Title
55513
    1DOPE     N    1   3.853   4.489  17.017 -0.5845  0.0375 -0.3797
    1DOPE   HN1    2   3.755   4.505  17.049 -0.6166  0.1204 -0.5150
    1DOPE   HN2    3   3.898   4.440  17.096  0.7567 -2.4800 -2.5672
    1DOPE   HN3    4   3.905   4.580  17.012  2.0545 -1.3167  0.6758
    1DOPE   C12    5   3.846   4.400  16.901 -0.3469  0.7390  0.5530
    1DOPE  H12A    6   3.890   4.300  16.924 -2.3848  0.1253  2.0494
    1DOPE  H12B    7   3.904   4.452  16.821 -1.0482  1.4481  0.5006
    1DOPE   C11    8   3.704   4.379  16.858 -0.1708  0.0463 -0.0514
    1DOPE  H11A    9   3.694   4.320  16.764 -2.4018 -0.8899  0.6964
    1DOPE  H11B   10   3.656   4.477  16.838 -0.8277 -0.3844 -0.6677
    1DOPE     P   11   3.521   4.374  17.038 -0.4627 -0.1123  0.0839
    1DOPE   O13   12   3.561   4.512  17.082 -0.4973 -0.3711 -0.0597
    1DOPE   O14   13   3.482   4.279  17.147 -0.5363  0.1498  0.0019
    1DOPE   O11   14   3.404   4.374  16.930 -0.0999  0.0071  0.3224
    1DOPE   O12   15   3.634   4.310  16.958 -0.3945  0.0180 -0.4324
    1DOPE    C1   16   3.348   4.246  16.889  1.0171  0.2014 -1.4662
    1DOPE    HA   17   3.261   4.217  16.952  2.7068  0.0979  0.9678
    1DOPE    HB   18   3.417   4.160  16.900  0.8586  0.3277  1.4536
    1DOPE    C2   19   3.274   4.234  16.746  0.5549 -0.5743 -0.5296
    1DOPE    HS   20   3.194   4.158  16.751 -0.3878  0.3482 -1.1174
    1DOPE   O21   21   3.373   4.220  16.644 -0.1470 -0.1281  0.1018
    1DOPE   C21   22   3.411   4.092  16.631 -0.0368  0.1075 -0.1979
    1DOPE   O22   23   3.381   3.996  16.700  0.5146  0.3543 -0.3803
    1DOPE   C22   24   3.508   4.089  16.511  0.5726 -0.0694 -0.2942
    1DOPE   H2R   25   3.582   4.008  16.523 -0.0779 -0.3991  2.0026
    1DOPE   H2S   26   3.554   4.190  16.517 -1.9605  1.1884 -0.6281
    1DOPE    C3   27   3.185   4.363  16.721 -0.2242 -0.9385 -0.2412
    1DOPE    HX   28   3.267   4.437  16.709 -0.8317  0.1137  1.6906
    1DOPE    HY   29   3.112   4.374  16.804 -0.7805 -0.9135 -0.7302
    1DOPE   O31   30   3.117   4.360  16.594 -0.2662 -0.6041  0.0394
    1DOPE   C31   31   3.016   4.282  16.579 -0.1458 -0.3091 -0.1245
    1DOPE   O32   32   2.955   4.229  16.674  0.1492  0.2271 -0.1827
    1DOPE   C32   33   2.979   4.244  16.437  0.4787 -0.1057  0.2670
    1DOPE   H2X   34   2.967   4.134  16.442 -1.5758  0.0304 -0.5978
    1DOPE   H2Y   35   2.871   4.272  16.427  0.8341  1.0931 -0.5623
    1DOPE   C23   36   3.424   4.061  16.388  0.5117 -0.3112  0.2484
    1DOPE   H3R   37   3.333   4.126  16.387  0.5545 -0.2309 -1.0378
    1DOPE   H3S   38   3.400   3.953  16.389  0.1338 -0.2237  1.1581
    1DOPE   C24   39   3.494   4.086  16.258  0.4132 -0.0839 -0.0679
    1DOPE   H4R   40   3.603   4.065  16.260  0.9916  2.4612 -1.0487
    1DOPE   H4S   41   3.491   4.196  16.247  1.5405  0.1791  1.7622
    1DOPE   C25   42   3.440   4.003  16.141  0.1954  0.5869  1.1949
    1DOPE   H5R   43   3.330   4.013  16.132  0.1662  0.1690  1.0382
    1DOPE   H5S   44   3.462   3.899  16.176  2.6354  0.1363 -1.3800
    1DOPE   C26   45   3.504   4.035  16.008 -0.1577 -0.2018  0.0088
    1DOPE   H6R   46   3.613   4.020  16.026 -0.4393 -0.7484  1.3304
    1DOPE   H6S   47   3.485   4.139  15.975  1.4070  0.1019 -0.0169
    1DOPE   C27   48   3.453   3.941  15.895 -0.3213  0.0383  0.1273
    1DOPE   H7R   49   3.343   3.928  15.900 -0.3832  0.1383 -0.7374
    1DOPE   H7S   50   3.495   3.839  15.909 -2.9099 -1.0015  0.8624
    1DOPE   C28   51   3.496   3.976  15.750 -0.0971 -0.1416 -0.8721
    1DOPE   H8R   52   3.598   4.018  15.756 -0.2086  0.0717 -0.4608
    1DOPE   H8S   53   3.437   4.063  15.714  0.8667  0.4738 -0.9821
    1DOPE   C29   54   3.482   3.854  15.657  0.1782  0.0346 -0.3531
    1DOPE   H9R   55   3.388   3.798  15.672 -0.8493  1.6642 -0.4806
    1DOPE  C210   56   3.562   3.821  15.559 -0.1936  0.1073  0.8024
    1DOPE  H10R   57   3.531   3.733  15.501 -3.1368 -0.0758  2.4756
    1DOPE  C211   58   3.680   3.898  15.522 -1.2296  0.1141  0.3417
    1DOPE  H11R   59   3.684   4.002  15.558  0.8416  0.2373 -0.1194
    1DOPE  H11S   60   3.668   3.912  15.412  2.9468  0.8917 -0.1820
    1DOPE  C212   61   3.820   3.824  15.549 -0.5532 -0.2975  0.0062
    1DOPE  H12R   62   3.905   3.873  15.497  0.0402 -0.6031  0.6664
    1DOPE  H12S   63   3.825   3.715  15.531  1.2371 -1.1538  4.4297
    1DOPE  C213   64   3.846   3.839  15.701  0.4743  0.4757 -1.0567
    1DOPE  H13R   65   3.749   3.830  15.755  0.9013 -2.8801 -0.6300
    1DOPE  H13S   66   3.881   3.943  15.718 -0.4003  0.9425 -1.9693
    1DOPE  C214   67   3.957   3.747  15.755 -0.2889 -0.7453 -0.3721
    1DOPE  H14R   68   4.045   3.736  15.688 -0.4523 -4.3157 -0.2280
    1DOPE  H14S   69   3.915   3.644  15.755 -2.0803 -0.0452 -0.4276
    1DOPE  C215   70   4.005   3.785  15.896 -0.3372  0.8218 -0.0831
    1DOPE  H15R   71   3.921   3.770  15.968  0.2314 -0.2550  0.3800
    1DOPE  H15S   72   4.033   3.892  15.889  0.0728  0.8997  2.1056
    1DOPE  C216   73   4.127   3.712  15.957 -0.1118  0.4154  0.0472
    1DOPE  H16R   74   4.105   3.603  15.951 -0.4953  0.4461  0.8228
    1DOPE  H16S   75   4.148   3.749  16.060 -3.4970 -0.5545  1.2069
    1DOPE  C217   76   4.264   3.742  15.879  0.1559 -0.1534 -0.2787
    1DOPE  H17R   77   4.227   3.716  15.777 -0.6622 -0.1132  0.0031
    1DOPE  H17S   78   4.344   3.671  15.908 -1.1402 -1.3225  0.5812
    1DOPE  C218   79   4.310   3.889  15.891  0.7077 -0.8280 -1.0441
    1DOPE  H18R   80   4.222   3.955  15.875 -1.9001 -3.9984 -0.7935
    1DOPE  H18S   81   4.378   3.901  15.804  0.6361  0.1919 -0.9731
    1DOPE  H18T   82   4.356   3.919  15.988 -1.6187  1.1016 -0.4396
    1DOPE   C33   83   3.070   4.296  16.321 -0.1841  0.2247  0.7645
    1DOPE   H3X   84   3.176   4.275  16.347  0.1454  0.3223 -0.4548
    1DOPE   H3Y   85   3.045   4.405  16.313 -0.9684  0.1915  2.3326
    1DOPE   C34   86   3.033   4.236  16.185 -0.5077  0.6040  0.2761
    1DOPE   H4X   87   3.065   4.131  16.196 -0.1045  0.6760 -0.1935
    1DOPE   H4Y   88   2.923   4.242  16.170 -0.3778  2.1754 -0.2936
    1DOPE   C35   89   3.098   4.294  16.062 -0.5055 -0.3865 -0.6333
    1DOPE   H5X   90   3.209   4.291  16.072 -0.7090 -0.8377  3.6927
    1DOPE   H5Y   91   3.078   4.402  16.046 -0.6296 -0.5319 -1.4672
    1DOPE   C36   92   3.060   4.223  15.936  0.1318 -0.2332 -0.0202
    1DOPE   H6X   93   2.949   4.227  15.936  0.1562  0.7485  0.8078
    1DOPE   H6Y   94   3.087   4.116  15.949  0.5913 -0.2011 -0.6592
    1DOPE   C37   95   3.112   4.272  15.806  0.0869 -0.3178 -0.3228
    1DOPE   H7X   96   3.059   4.366  15.782  0.7503 -0.0816 -0.8703
    1DOPE   H7Y   97   3.220   4.297  15.813  0.4876 -2.0853  0.4186
    1DOPE   C38   98   3.089   4.178  15.689 -0.4062 -0.0726 -0.8635
    1DOPE   H8X   99   2.979   4.171  15.679 -0.8212  0.6790  2.2238
    1DOPE   H8Y  100   3.124   4.077  15.719 -0.8586  0.1832  0.6195
    1DOPE   C39  101   3.158   4.194  15.557  0.3777 -0.5624 -0.5086
    1DOPE   H9X  102   3.258   4.149  15.553  0.3818 -0.5700 -0.3488
    1DOPE  C310  103   3.117   4.246  15.446 -0.1903 -0.9652  0.8132
    1DOPE  H10X  104   3.191   4.250  15.365 -0.6242  1.9049  0.4397
    1DOPE  C311  105   2.973   4.294  15.421 -0.1293 -0.4045  0.0641
    1DOPE  H11X  106   2.924   4.314  15.519  1.4635 -0.2318  0.8663
    1DOPE  H11Y  107   2.966   4.397  15.380  0.8224  0.7961  2.6986
    1DOPE  C312  108   2.890   4.204  15.323  0.1955  0.0404  0.1878
    1DOPE  H12X  109   2.783   4.236  15.322 -0.0479 -0.5945  2.1845
    1DOPE  H12Y  110   2.897   4.094  15.334  1.3477  0.1634  0.8179
    1DOPE  C313  111   2.925   4.237  15.175 -0.2658  0.0927  0.1064
    1DOPE  H13X  112   2.923   4.348  15.175 -0.1684  0.0952  0.4287
    1DOPE  H13Y  113   3.026   4.198  15.151 -1.1718 -1.3789 -1.4839
    1DOPE  C314  114   2.822   4.182  15.073  0.0829  0.1475  0.3097
    1DOPE  H14X  115   2.718   4.182  15.113  0.0382 -0.2431  0.1917
    1DOPE  H14Y  116   2.848   4.081  15.037  2.2585  1.0020 -0.7108
    1DOPE  C315  117   2.827   4.269  14.943 -0.3938  1.2010 -0.9306
    1DOPE  H15X  118   2.930   4.284  14.905 -0.5119  0.2400 -1.6764
    1DOPE  H15Y  119   2.789   4.369  14.973  1.6167  1.3607  1.3831
    1DOPE  C316  120   2.766   4.193  14.822  0.0093  0.6294 -0.3514
    1DOPE  H16X  121   2.661   4.164  14.845 -0.2752  1.7951 -0.1182
    1DOPE  H16Y  122   2.806   4.089  14.820 -3.3545 -0.9505  2.7372
    1DOPE  C317  123   2.769   4.257  14.686 -0.6519 -0.2550 -0.0910
    1DOPE  H17X  124   2.682   4.233  14.622  0.4777 -0.7588 -1.5049
    1DOPE  H17Y  125   2.763   4.365  14.714 -0.8242 -0.6548  1.4697
    1DOPE  C318  126   2.891   4.227  14.596 -0.3183  0.1744 -0.2783
    1DOPE  H18X  127   2.879   4.274  14.496  3.4746  0.6082 -0.6712
    1DOPE  H18Y  128   2.986   4.263  14.640 -0.1065  2.9594 -2.7236
    1DOPE  H18Z  129   2.895   4.118  14.574 -3.5413 -0.0907 -0.1286
    2DOPE     N  130   4.294   4.475  16.629  0.0178 -0.3038 -0.5147
    2DOPE   HN1  131   4.364   4.502  16.701  0.9361  1.2069 -1.9170
    2DOPE   HN2  132   4.226   4.408  16.671 -0.7147  0.0067 -1.1919
    2DOPE   HN3  133   4.352   4.421  16.562  0.5820 -1.5193  0.8879
    2DOPE   C12  134   4.229   4.592  16.562 -0.2727 -0.7288  0.6142
    2DOPE  H12A  135   4.142   4.544  16.513  0.0339 -1.9810  1.2577
    2DOPE  H12B  136   4.290   4.616  16.473 -0.1575 -2.9510  0.0419
    2DOPE   C11  137   4.186   4.713  16.655  0.5518  0.5053  0.8037
    2DOPE  H11A  138   4.121   4.773  16.588 -1.2739 -0.1667  1.9043
    2DOPE  H11B  139   4.276   4.773  16.681  0.0368  1.7596 -0.2095
    2DOPE     P  140   4.090   4.763  16.888 -0.2790 -0.0018  0.1127
    2DOPE   O13  141   4.217   4.806  16.946  0.3243 -0.0271 -0.2355
    2DOPE   O14  142   3.987   4.705  16.975  0.5595  0.0598 -0.0679
    2DOPE   O11  143   4.031   4.891  16.828  0.1678 -0.6138 -0.0397
    2DOPE   O12  144   4.117   4.669  16.767  0.5742  0.0243  0.0937
    2DOPE    C1  145   3.884   4.921  16.802 -1.0581 -0.3617 -0.0404
    2DOPE    HA  146   3.864   5.027  16.829  0.5227  0.0642 -0.4936
    2DOPE    HB  147   3.820   4.852  16.862  1.5283 -2.2706  0.6756
    2DOPE    C2  148   3.846   4.909  16.657  0.6847 -0.6222 -0.2256
    2DOPE    HS  149   3.735   4.913  16.654  0.4867 -2.0251  2.2541
    2DOPE   O21  150   3.884   4.784  16.596  1.4546 -0.2962 -0.0657
    2DOPE   C21  151   3.821   4.679  16.641  0.1222  0.5697  0.0058
    2DOPE   O22  152   3.734   4.669  16.727  0.1479 -0.4427  0.1309
    2DOPE   C22  153   3.862   4.553  16.561 -0.0297 -0.4509  0.0884
    2DOPE   H2R  154   3.790   4.470  16.578 -0.0984 -0.4576 -0.2284
    2DOPE   H2S  155   3.965   4.533  16.597  1.0596  1.0632 -1.9374
    2DOPE    C3  156   3.902   5.023  16.573 -0.4579 -0.4257 -0.3585
    2DOPE    HX  157   4.013   5.028  16.582 -0.4972  0.9028 -0.4369
    2DOPE    HY  158   3.878   5.123  16.615  1.3953 -0.5753  1.1745
    2DOPE   O31  159   3.862   5.014  16.437 -0.1250 -0.1301  0.5124
    2DOPE   C31  160   3.758   5.076  16.391  0.1554 -0.2540  0.0772
    2DOPE   O32  161   3.683   5.141  16.462  0.3055 -0.3347 -0.6516
    2DOPE   C32  162   3.722   5.075  16.245  0.6676 -0.2169  0.5617
    2DOPE   H2X  163   3.630   5.137  16.232 -0.2458 -1.8170 -1.1056
    2DOPE   H2Y  164   3.801   5.133  16.193 -1.4799  3.9431  1.5281
    2DOPE   C23  165   3.881   4.578  16.408  0.4816  0.5537  0.3753
    2DOPE   H3R  166   3.966   4.648  16.392  1.1347  0.3415  2.4944
    2DOPE   H3S  167   3.799   4.638  16.363 -0.3424 -0.9826 -0.2106
    2DOPE   C24  168   3.897   4.451  16.327  0.5541  0.0528  0.0170
    2DOPE   H4R  169   3.919   4.363  16.392  0.1502 -1.0283 -1.2644
    2DOPE   H4S  170   3.989   4.456  16.265  0.4182 -0.1269 -0.2006
    2DOPE   C25  171   3.773   4.424  16.236 -0.1360  0.1573 -0.4029
    2DOPE   H5R  172   3.760   4.516  16.175  1.1516 -0.3786 -1.5398
    2DOPE   H5S  173   3.688   4.422  16.308  0.1032 -1.5046 -0.1250
    2DOPE   C26  174   3.772   4.302  16.151  0.1406 -0.0500  0.1989
    2DOPE   H6R  175   3.665   4.282  16.131  0.1347 -2.1220  2.0035
    2DOPE   H6S  176   3.794   4.211  16.211 -0.2963 -0.8453 -0.8225
    2DOPE   C27  177   3.873   4.305  16.042 -0.1387  0.6996 -0.4346
    2DOPE   H7R  178   3.904   4.203  16.009 -1.4787 -0.9987  3.0980
    2DOPE   H7S  179   3.967   4.346  16.085  0.4018  1.4016 -2.1663
    2DOPE   C28  180   3.825   4.396  15.921 -0.0068  0.1741 -0.0565
    2DOPE   H8R  181   3.801   4.498  15.959 -0.0020  0.5694 -1.0676
    2DOPE   H8S  182   3.725   4.357  15.891  0.3093  0.1012 -1.0559
    2DOPE   C29  183   3.921   4.415  15.805 -0.1952  0.7859  0.6517
    2DOPE   H9R  184   4.011   4.473  15.830  0.1600  0.8223 -0.6720
    2DOPE  C210  185   3.905   4.372  15.681  0.3535  0.0546  0.1201
    2DOPE  H10R  186   3.981   4.401  15.607 -1.6460  1.3914 -1.5578
    2DOPE  C211  187   3.787   4.298  15.616 -1.0807  0.2022 -0.3996
    2DOPE  H11R  188   3.699   4.300  15.685 -1.7384  0.0161 -1.2174
    2DOPE  H11S  189   3.805   4.195  15.578 -0.6417 -0.5291  1.6192
    2DOPE  C212  190   3.738   4.365  15.481 -0.1366  0.6224 -0.0365
    2DOPE  H12R  191   3.815   4.362  15.401  0.0155  0.9540  0.0943
    2DOPE  H12S  192   3.728   4.476  15.491 -1.7341  0.4607  0.4067
    2DOPE  C213  193   3.617   4.309  15.417  0.3686  0.3377 -0.0012
    2DOPE  H13R  194   3.528   4.324  15.482 -0.1329  1.4663 -0.9185
    2DOPE  H13S  195   3.619   4.199  15.396 -1.2639  0.0270  1.3048
    2DOPE  C214  196   3.584   4.378  15.281 -0.5917  0.4440 -0.2499
    2DOPE  H14R  197   3.666   4.375  15.207 -1.8936 -0.3031 -1.7341
    2DOPE  H14S  198   3.569   4.486  15.304  1.1858  0.6726 -0.0507
    2DOPE  C215  199   3.453   4.331  15.211 -0.4322  1.0017  0.1636
    2DOPE  H15R  200   3.368   4.363  15.276  2.3027  3.8426  2.7047
    2DOPE  H15S  201   3.454   4.220  15.207 -0.9274  1.0098 -0.1891
    2DOPE  C216  202   3.427   4.390  15.071  0.5581 -0.0108 -0.3005
    2DOPE  H16R  203   3.507   4.376  14.995  0.2900 -0.3048 -0.5332
    2DOPE  H16S  204   3.402   4.498  15.073 -0.8341 -0.3130  0.1333
    2DOPE  C217  205   3.305   4.310  15.018  0.3013  0.4329 -0.0488
    2DOPE  H17R  206   3.234   4.290  15.102  1.6528 -1.6421  0.6678
    2DOPE  H17S  207   3.341   4.214  14.977 -0.9677  0.5504 -1.5252
    2DOPE  C218  208   3.234   4.382  14.900 -0.9994  0.9046 -1.3347
    2DOPE  H18R  209   3.298   4.380  14.809  1.7787  0.2449  0.4939
    2DOPE  H18S  210   3.208   4.487  14.927  0.1942  0.3643  2.4235
    2DOPE  H18T  211   3.141   4.328  14.874 -0.2544 -0.0938 -1.9887
    2DOPE   C33  212   3.705   4.938  16.179  0.0410 -0.0820  0.2075
    2DOPE   H3X  213   3.657   4.949  16.079 -0.3830 -0.8868  0.3083
    2DOPE   H3Y  214   3.642   4.874  16.245 -0.1422 -0.0051  0.1078
    2DOPE   C34  215   3.838   4.878  16.134 -0.4661  0.5886 -0.1110
    2DOPE   H4X  216   3.906   4.954  16.091  0.0168 -1.3504 -3.0747
    2DOPE   H4Y  217   3.887   4.845  16.229 -3.2076  0.6860  1.4419
    2DOPE   C35  218   3.840   4.768  16.019  0.1851 -0.3375 -0.1307
    2DOPE   H5X  219   3.758   4.694  16.033  1.0191 -1.2284  0.1499
    2DOPE   H5Y  220   3.930   4.704  16.029 -0.3264 -0.9161  0.9866
    2DOPE   C36  221   3.838   4.844  15.884  0.1870  0.0096  0.5893
    2DOPE   H6X  222   3.919   4.921  15.889 -0.1319  0.5017 -1.2163
    2DOPE   H6Y  223   3.740   4.896  15.882 -0.3959 -1.0769  0.1144
    2DOPE   C37  224   3.859   4.766  15.758 -0.6517 -0.2925  1.0474
    2DOPE   H7X  225   3.955   4.711  15.771  0.2468  0.7475 -0.8582
    2DOPE   H7Y  226   3.767   4.703  15.746 -0.6825  0.0701 -0.8628
    2DOPE   C38  227   3.870   4.856  15.634  0.3113 -0.4691  0.1023
    2DOPE   H8X  228   3.770   4.903  15.641  0.4642 -0.3498  2.0562
    2DOPE   H8Y  229   3.866   4.778  15.555 -1.5756 -0.7417  0.4095
    2DOPE   C39  230   3.997   4.940  15.636  0.2455 -0.1813 -0.0789
    2DOPE   H9X  231   4.084   4.877  15.617 -0.6835 -1.9556  1.2393
    2DOPE  C310  232   4.006   5.074  15.645 -0.0990 -0.0123  0.8154
    2DOPE  H10X  233   4.103   5.126  15.648 -0.7979  1.5067 -0.8253
    2DOPE  C311  234   3.892   5.171  15.654 -0.0403 -0.4216 -0.3323
    2DOPE  H11X  235   3.892   5.230  15.560  1.3855  2.2082  1.2110
    2DOPE  H11Y  236   3.796   5.117  15.665 -0.5209  0.1840 -1.4112
    2DOPE  C312  237   3.897   5.272  15.775  0.4909 -0.7913 -0.2210
    2DOPE  H12X  238   3.801   5.328  15.772  1.3629  0.7317 -1.9568
    2DOPE  H12Y  239   3.978   5.346  15.759 -0.6150  0.1578 -1.7457
    2DOPE  C313  240   3.925   5.206  15.909  0.6818 -0.0057 -0.2234
    2DOPE  H13X  241   3.838   5.145  15.941 -2.1159  3.4191 -0.7195
    2DOPE  H13Y  242   4.016   5.143  15.894 -0.1656 -1.1875 -0.5418
    2DOPE  C314  243   3.956   5.307  16.022  0.0490 -0.3308  0.2077
    2DOPE  H14X  244   4.041   5.375  16.001 -1.1172  0.7416 -1.2542
    2DOPE  H14Y  245   3.986   5.249  16.112  1.9843  1.9139  1.1020
    2DOPE  C315  246   3.836   5.386  16.083 -0.6381  0.4741  0.7644
    2DOPE  H15X  247   3.751   5.316  16.074 -1.6145  1.3387  2.5931
    2DOPE  H15Y  248   3.814   5.469  16.013  1.6969  0.9412  0.5173
    2DOPE  C316  249   3.853   5.432  16.222 -0.8073 -0.0271  0.4780
    2DOPE  H16X  250   3.933   5.508  16.235 -0.1999 -0.5194 -0.2881
    2DOPE  H16Y  251   3.878   5.341  16.282 -1.6025  0.2500  1.2475
    2DOPE  C317  252   3.733   5.517  16.268  0.3449 -0.0374 -0.2749
    2DOPE  H17X  253   3.724   5.606  16.202  0.2956 -0.7381 -1.2333
    2DOPE  H17Y  254   3.640   5.457  16.258  0.9128 -0.6225 -2.6172
    2DOPE  C318  255   3.747   5.552  16.415 -0.4179  0.2256 -0.7913
    2DOPE  H18X  256   3.669   5.623  16.450  0.2233  0.7193 -0.3277
    2DOPE  H18Y  257   3.748   5.461  16.478 -2.2651  0.7068 -0.0093
    2DOPE  H18Z  258   3.842   5.609  16.426  0.2843 -1.1691  0.8451
    3DOPE     N  259   2.031   6.294  17.090 -0.1042 -0.1940  0.1389
    3DOPE   HN1  260   2.017   6.254  16.995 -1.0416 -0.2515  0.2879
    3DOPE   HN2  261   1.942   6.283  17.143 -0.5846  0.7285 -0.4421
    3DOPE   HN3  262   2.051   6.395  17.074  0.2695 -0.1959  0.5789
    3DOPE   C12  263   2.142   6.200  17.134  0.8651 -0.4091  0.0820
    3DOPE  H12A  264   2.105   6.101  17.100  0.2897 -0.2461  0.2196
    3DOPE  H12B  265   2.159   6.202  17.244 -1.3251  0.3296  0.4683
    3DOPE   C11  266   2.278   6.228  17.066  0.2917  0.1283  0.9478
    3DOPE  H11A  267   2.338   6.135  17.057 -0.2580 -0.1310 -0.2611
    3DOPE  H11B  268   2.332   6.309  17.119  2.2093 -0.3251 -0.2247
    3DOPE     P  269   2.329   6.372  16.849  0.4194  0.1813 -0.2296
    3DOPE   O13  270   2.473   6.397  16.888  0.4125 -0.1196  0.6172
    3DOPE   O14  271   2.245   6.492  16.840 -0.4510 -0.2390  0.4514
    3DOPE   O11  272   2.337   6.316  16.702  0.4411  0.8717  0.0828
    3DOPE   O12  273   2.252   6.259  16.929 -0.4927 -0.0994  0.4987
    3DOPE    C1  274   2.369   6.179  16.685  0.1008  0.0810  0.0852
    3DOPE    HA  275   2.283   6.109  16.697  1.1660 -1.1334  0.9217
    3DOPE    HB  276   2.439   6.145  16.765 -1.2546  0.4204  1.4549
    3DOPE    C2  277   2.447   6.150  16.547 -0.2418 -0.3461 -0.0956
    3DOPE    HS  278   2.545   6.201  16.559 -0.9126  0.8576  0.5205
    3DOPE   O21  279   2.375   6.206  16.437  0.1718 -0.1939  0.1996
    3DOPE   C21  280   2.422   6.319  16.388 -0.0468  0.1088  0.1557
    3DOPE   O22  281   2.507   6.386  16.446 -0.5903  0.1790  0.0496
    3DOPE   C22  282   2.363   6.344  16.246  0.1161 -0.2462 -0.3385
    3DOPE   H2R  283   2.332   6.247  16.201  0.8080 -0.2645 -0.7897
    3DOPE   H2S  284   2.453   6.376  16.189  2.6147 -2.9246  1.7334
    3DOPE    C3  285   2.480   5.993  16.532  0.6343 -0.1980 -0.4752
    3DOPE    HX  286   2.382   5.941  16.524 -1.8459  3.8263  0.4175
    3DOPE    HY  287   2.528   5.963  16.628 -0.9665 -1.1611  0.0553
    3DOPE   O31  288   2.567   5.956  16.427 -0.7659 -0.4643  0.3201
    3DOPE   C31  289   2.571   5.823  16.398  0.0165  0.5183 -0.0894
    3DOPE   O32  290   2.499   5.738  16.448 -0.0834 -0.7873  0.0750
    3DOPE   C32  291   2.680   5.789  16.292  0.7257  0.1419 -0.0239
    3DOPE   H2X  292   2.780   5.815  16.333  1.5357 -2.1129 -0.4587
    3DOPE   H2Y  293   2.685   5.678  16.287  0.4636  0.1897 -1.5802
    3DOPE   C23  294   2.254   6.457  16.229  0.6120 -0.8863 -0.2110
    3DOPE   H3R  295   2.276   6.550  16.286 -1.7780 -1.1525  1.2470
    3DOPE   H3S  296   2.158   6.415  16.266 -0.2243  1.7122  0.7638
    3DOPE   C24  297   2.232   6.489  16.079 -0.7649  0.3904 -0.7231
    3DOPE   H4R  298   2.231   6.390  16.029  0.5274 -0.2054  0.3889
    3DOPE   H4S  299   2.322   6.546  16.048 -0.5979  0.8867  0.6036
    3DOPE   C25  300   2.106   6.569  16.043 -0.2777 -0.2886 -0.2357
    3DOPE   H5R  301   2.020   6.523  16.096  0.5077 -2.9741 -1.1136
    3DOPE   H5S  302   2.084   6.557  15.935 -1.2595 -1.7556  0.0963
    3DOPE   C26  303   2.126   6.724  16.071 -0.3822 -0.1694 -0.0099
    3DOPE   H6R  304   2.165   6.736  16.174  2.4713 -1.0733 -0.8900
    3DOPE   H6S  305   2.019   6.754  16.075  0.3396  2.6279  0.2883
    3DOPE   C27  306   2.213   6.799  15.971  0.5605 -0.2730 -0.6787
    3DOPE   H7R  307   2.316   6.759  15.970  0.7140  0.1286 -0.8046
    3DOPE   H7S  308   2.219   6.906  16.001  1.5341 -0.6256  0.4275
    3DOPE   C28  309   2.163   6.805  15.828 -0.0212 -0.4820  0.4070
    3DOPE   H8R  310   2.057   6.835  15.845 -0.2576 -0.8534 -0.3671
    3DOPE   H8S  311   2.152   6.707  15.778 -1.7800 -1.5309  2.6457
    3DOPE   C29  312   2.239   6.906  15.746  0.0144 -0.9294 -0.3463
    3DOPE   H9R  313   2.246   7.011  15.780  1.7072 -0.7293 -1.2219
    3DOPE  C210  314   2.301   6.888  15.632 -0.0654  0.7987  0.1614
    3DOPE  H10R  315   2.360   6.967  15.584  2.8273 -1.7320 -0.7658
    3DOPE  C211  316   2.319   6.762  15.544  0.4335  0.1166 -0.1683
    3DOPE  H11R  317   2.263   6.775  15.449 -0.4461  1.3900  0.4988
    3DOPE  H11S  318   2.272   6.670  15.583  3.0825 -1.4975 -0.5216
    3DOPE  C212  319   2.462   6.715  15.510 -0.5767  0.1394  0.6219
    3DOPE  H12R  320   2.532   6.793  15.474 -0.3733  0.1374  0.9967
    3DOPE  H12S  321   2.451   6.663  15.413  1.1355 -1.1935  1.0824
    3DOPE  C213  322   2.522   6.615  15.609 -0.2670  0.7445 -0.0589
    3DOPE  H13R  323   2.492   6.524  15.553  0.4888 -0.1881  1.0159
    3DOPE  H13S  324   2.467   6.609  15.705  0.1392 -0.7609  0.1008
    3DOPE  C214  325   2.673   6.636  15.626 -0.5362  0.1445 -0.5393
    3DOPE  H14R  326   2.704   6.578  15.716  0.5945  0.5447 -0.6564
    3DOPE  H14S  327   2.693   6.743  15.650 -1.0922  0.3230 -0.8542
    3DOPE  C215  328   2.759   6.595  15.500  0.2167 -0.5257  0.0748
    3DOPE  H15R  329   2.865   6.607  15.530  0.6845  0.1243 -1.7100
    3DOPE  H15S  330   2.738   6.670  15.421 -2.7246 -0.0262  1.1791
    3DOPE  C216  331   2.742   6.452  15.452 -0.1432  0.4332 -0.0757
    3DOPE  H16R  332   2.642   6.448  15.405  0.2745 -1.0980 -0.8963
    3DOPE  H16S  333   2.756   6.383  15.537 -0.3249  1.0634  0.4741
    3DOPE  C217  334   2.839   6.431  15.333  0.0011  0.6376  0.0736
    3DOPE  H17R  335   2.841   6.323  15.308  0.8748  0.2934  1.4766
    3DOPE  H17S  336   2.944   6.459  15.355 -0.3499  0.8359  1.6005
    3DOPE  C218  337   2.802   6.507  15.202 -0.0018  0.3569  0.6187
    3DOPE  H18R  338   2.702   6.471  15.171  0.0155  1.5183 -0.8776
    3DOPE  H18S  339   2.864   6.474  15.115  1.2357  0.6200  1.3735
    3DOPE  H18T  340   2.817   6.616  15.217 -0.5402  0.3310  1.3701
    3DOPE   C33  341   2.658   5.857  16.165  0.3713 -0.0211  0.2502
    3DOPE   H3X  342   2.690   5.962  16.183  2.8336 -0.5105 -0.7830
    3DOPE   H3Y  343   2.553   5.861  16.130  0.6797 -0.3234 -0.7463
    3DOPE   C34  344   2.743   5.817  16.040 -0.0408 -0.3335  0.2712
    3DOPE   H4X  345   2.713   5.712  16.020 -0.6002 -0.1343  0.0556
    3DOPE   H4Y  346   2.720   5.888  15.958 -0.0345 -1.2980 -0.5882
    3DOPE   C35  347   2.891   5.812  16.069 -0.1031  0.7347 -0.0637
    3DOPE   H5X  348   2.914   5.716  16.121 -0.8474 -0.0997 -1.2419
    3DOPE   H5Y  349   2.926   5.895  16.135 -0.5761  0.5237  0.4580
    3DOPE   C36  350   2.985   5.807  15.940  0.2724  0.0382  0.0279
    3DOPE   H6X  351   3.089   5.823  15.974  0.4798 -1.7505  0.3435
    3DOPE   H6Y  352   2.949   5.886  15.871 -1.6517  0.7952  1.7763
    3DOPE   C37  353   2.976   5.674  15.864 -0.3874 -0.2964  0.1748
    3DOPE   H7X  354   2.996   5.586  15.930 -1.7999 -1.3552 -0.7485
    3DOPE   H7Y  355   2.871   5.656  15.834 -0.8120 -1.9763  2.3582
    3DOPE   C38  356   3.077   5.662  15.750  0.7939 -0.0460  0.3755
    3DOPE   H8X  357   3.068   5.562  15.702  2.0132 -0.5920  1.2530
    3DOPE   H8Y  358   3.180   5.654  15.790  0.8951  0.6484  0.2704
    3DOPE   C39  359   3.062   5.779  15.658  0.5018  0.4922  0.9542
    3DOPE   H9X  360   3.094   5.878  15.695 -1.8673  1.7538 -0.1155
    3DOPE  C310  361   2.990   5.782  15.539  0.0858 -0.2684 -0.3375
    3DOPE  H10X  362   2.982   5.881  15.491  0.1568  0.1388  0.4598
    3DOPE  C311  363   2.917   5.672  15.471  0.0725  0.2079  0.0496
    3DOPE  H11X  364   2.981   5.636  15.387  0.3619 -0.0100  0.3572
    3DOPE  H11Y  365   2.909   5.584  15.539 -0.0650 -1.0342 -1.5276
    3DOPE  C312  366   2.778   5.716  15.417 -0.0540  0.0548  0.5004
    3DOPE  H12X  367   2.737   5.626  15.366  0.3332 -0.4852  1.1474
    3DOPE  H12Y  368   2.775   5.793  15.336 -0.6592  1.6305  1.9673
    3DOPE  C313  369   2.678   5.756  15.529  0.3475 -0.0204 -0.4190
    3DOPE  H13X  370   2.574   5.742  15.493 -0.6381  0.7079  1.9368
    3DOPE  H13Y  371   2.693   5.690  15.617 -1.5282 -2.9870 -2.1411
    3DOPE  C314  372   2.697   5.908  15.570  0.2619  0.5298  0.2233
    3DOPE  H14X  373   2.744   5.968  15.490 -0.2202  0.0902 -0.4035
    3DOPE  H14Y  374   2.768   5.909  15.656 -1.2361  2.6814  1.5255
    3DOPE  C315  375   2.565   5.969  15.624 -0.1828 -0.3509 -0.4892
    3DOPE  H15X  376   2.528   5.897  15.701  0.1679 -0.1509 -0.1301
    3DOPE  H15Y  377   2.489   5.974  15.544  0.0368 -0.2077 -0.6890
    3DOPE  C316  378   2.591   6.105  15.696  0.4709 -0.1415  0.0890
    3DOPE  H16X  379   2.617   6.181  15.620  1.3966 -0.8623 -0.3405
    3DOPE  H16Y  380   2.673   6.100  15.771 -1.1939  1.0390  2.0979
    3DOPE  C317  381   2.464   6.154  15.767 -0.1778 -0.1445  0.2210
    3DOPE  H17X  382   2.392   6.158  15.683  2.0200 -2.1522 -1.8994
    3DOPE  H17Y  383   2.430   6.073  15.836  0.1409  0.4618  1.1146
    3DOPE  C318  384   2.472   6.292  15.832 -0.7520  0.0235 -0.4754
    3DOPE  H18X  385   2.373   6.328  15.869 -1.0320 -0.9934 -0.1918
    3DOPE  H18Y  386   2.544   6.284  15.917  1.6713  3.1692 -2.0299
    3DOPE  H18Z  387   2.512   6.373  15.768 -1.6321  0.0827 -0.9572
    4DOPE     N  388   4.016   2.992  17.200  0.0668  0.2001 -0.4515
    4DOPE   HN1  389   3.955   3.059  17.251  2.4898  0.8492  1.7841
    4DOPE   HN2  390   4.103   3.035  17.163  0.4833 -0.3222 -0.0750
    4DOPE   HN3  391   3.973   2.955  17.112 -1.1392  1.5750 -0.4888
    4DOPE   C12  392   4.051   2.881  17.291 -0.4293  0.0531 -0.2007
    4DOPE  H12A  393   3.961   2.832  17.335 -0.1333  0.4686  0.8869
    4DOPE  H12B  394   4.114   2.932  17.366 -0.2375  1.2894 -1.1744
    4DOPE   C11  395   4.138   2.778  17.218 -0.4699  0.0065 -0.3505
    4DOPE  H11A  396   4.184   2.709  17.291  2.5512  0.1938 -1.9222
    4DOPE  H11B  397   4.221   2.832  17.168 -0.0951 -0.3684 -0.1323
    4DOPE     P  398   4.132   2.574  17.066 -0.5984 -0.2678  0.4789
    4DOPE   O13  399   4.033   2.506  16.981 -0.7061  0.0412  0.1494
    4DOPE   O14  400   4.200   2.497  17.173 -0.0602  0.0638 -0.3832
    4DOPE   O11  401   4.250   2.644  16.981 -0.4788 -0.0485  0.5841
    4DOPE   O12  402   4.058   2.702  17.127 -0.2845 -0.3244 -0.3331
    4DOPE    C1  403   4.222   2.741  16.877  0.2675  0.0242 -0.2805
    4DOPE    HA  404   4.291   2.825  16.899  0.7332  0.6220 -3.5339
    4DOPE    HB  405   4.118   2.780  16.886 -0.8025 -2.7999  1.0135
    4DOPE    C2  406   4.254   2.688  16.739  0.2894 -0.3007 -0.0348
    4DOPE    HS  407   4.356   2.643  16.745  0.3409 -0.1745  0.0442
    4DOPE   O21  408   4.242   2.796  16.641 -0.2694 -0.1686  0.1638
    4DOPE   C21  409   4.323   2.897  16.660  1.0899  0.0354 -0.2891
    4DOPE   O22  410   4.420   2.900  16.730  0.3506  0.3951  0.6869
    4DOPE   C22  411   4.271   3.022  16.588  0.9021  0.5006  0.8129
    4DOPE   H2R  412   4.278   3.098  16.668 -0.8300 -0.2343  1.6934
    4DOPE   H2S  413   4.166   2.999  16.561  0.5883 -1.8067  3.5997
    4DOPE    C3  414   4.163   2.572  16.703  0.1855  0.3540  0.4482
    4DOPE    HX  415   4.058   2.608  16.707  0.6186  1.7120  0.1450
    4DOPE    HY  416   4.181   2.484  16.768  1.1369  1.6360  2.0089
    4DOPE   O31  417   4.183   2.535  16.563 -0.3514 -0.7135  0.3452
    4DOPE   C31  418   4.121   2.423  16.529 -0.1785  0.1265  0.5945
    4DOPE   O32  419   4.067   2.342  16.602 -0.4006  0.0993 -0.1964
    4DOPE   C32  420   4.133   2.405  16.381  0.0676  0.2378  0.6549
    4DOPE   H2X  421   4.238   2.417  16.347 -1.1594 -0.0313 -3.9243
    4DOPE   H2Y  422   4.104   2.300  16.360 -2.0071  0.9527 -0.3027
    4DOPE   C23  423   4.361   3.060  16.470 -0.1884 -0.2307  0.0926
    4DOPE   H3R  424   4.469   3.044  16.493 -0.2986 -0.3348  0.5417
    4DOPE   H3S  425   4.339   3.166  16.445 -1.5773 -0.3779  0.6071
    4DOPE   C24  426   4.316   2.992  16.339  0.0414 -0.0145  0.6126
    4DOPE   H4R  427   4.365   3.051  16.258 -0.7541  0.4025  0.4208
    4DOPE   H4S  428   4.206   2.998  16.327  0.3059  1.5209 -2.0078
    4DOPE   C25  429   4.350   2.837  16.325  0.2163 -0.2595 -0.4385
    4DOPE   H5R  430   4.303   2.777  16.405 -0.7550  0.8734 -0.1301
    4DOPE   H5S  431   4.461   2.826  16.326  0.2214 -0.2539  0.4886
    4DOPE   C26  432   4.290   2.787  16.187 -0.1505  0.1134 -0.0998
    4DOPE   H6R  433   4.179   2.782  16.194  0.0059 -1.9975  2.4374
    4DOPE   H6S  434   4.331   2.684  16.178 -0.4048  0.1545 -2.2633
    4DOPE   C27  435   4.324   2.864  16.059  0.1161 -0.3020 -0.2422
    4DOPE   H7R  436   4.434   2.879  16.055 -0.2088  2.6495 -0.7039
    4DOPE   H7S  437   4.273   2.962  16.069 -0.3380 -0.3061 -2.0671
    4DOPE   C28  438   4.293   2.781  15.931 -0.1208 -0.4084  0.7594
    4DOPE   H8R  439   4.191   2.738  15.941  0.7380 -2.5074  1.0067
    4DOPE   H8S  440   4.355   2.690  15.947 -0.8590 -0.7428  1.8411
    4DOPE   C29  441   4.299   2.868  15.810 -0.5446 -0.2069  0.0421
    4DOPE   H9R  442   4.354   2.963  15.816  0.0236 -0.6246  2.5474
    4DOPE  C210  443   4.254   2.834  15.691 -0.5954 -0.0793 -0.0596
    4DOPE  H10R  444   4.255   2.906  15.608 -1.7354 -1.3959 -1.2740
    4DOPE  C211  445   4.181   2.704  15.660 -0.2898  0.4551  0.2094
    4DOPE  H11R  446   4.118   2.678  15.747 -1.0796 -1.5760 -0.9080
    4DOPE  H11S  447   4.250   2.624  15.626  2.4189  2.7288  0.0057
    4DOPE  C212  448   4.092   2.734  15.539 -0.3820 -0.4595 -0.5729
    4DOPE  H12R  449   4.144   2.787  15.457 -1.8192 -0.7436 -1.7155
    4DOPE  H12S  450   4.022   2.812  15.575  2.3308  1.3713  1.1154
    4DOPE  C213  451   4.010   2.610  15.486 -0.0962  0.2086 -0.4937
    4DOPE  H13R  452   3.940   2.578  15.567 -0.2098  0.8662 -0.3305
    4DOPE  H13S  453   4.089   2.533  15.467  0.5323  0.7345 -0.0338
    4DOPE  C214  454   3.928   2.647  15.358  0.2170  0.2785  0.3047
    4DOPE  H14R  455   3.885   2.551  15.324  1.1200  0.0801 -0.3324
    4DOPE  H14S  456   3.996   2.675  15.274  0.0545 -2.4224 -0.8134
    4DOPE  C215  457   3.821   2.751  15.383  0.5669 -0.5650 -0.0596
    4DOPE  H15R  458   3.870   2.849  15.399  0.0029 -0.1807 -0.6368
    4DOPE  H15S  459   3.754   2.723  15.467  2.1416 -0.7864  1.1766
    4DOPE  C216  460   3.743   2.756  15.252  0.1784  0.0992 -0.4580
    4DOPE  H16R  461   3.699   2.658  15.222 -1.4955  0.7842 -0.3877
    4DOPE  H16S  462   3.797   2.777  15.157 -2.7886  1.3301 -2.0195
    4DOPE  C217  463   3.632   2.853  15.263  0.3335 -0.1950  0.4946
    4DOPE  H17R  464   3.575   2.840  15.357  1.4857 -0.6999  1.1431
    4DOPE  H17S  465   3.568   2.820  15.179 -0.7228 -1.1291  1.6278
    4DOPE  C218  466   3.677   2.996  15.235 -0.0457  0.8435  0.4948
    4DOPE  H18R  467   3.720   3.038  15.328  0.6896 -1.7695  1.4124
    4DOPE  H18S  468   3.589   3.060  15.211 -0.7465  0.1273  1.0816
    4DOPE  H18T  469   3.752   3.000  15.153 -0.0312 -0.6815  0.4045
    4DOPE   C33  470   4.047   2.505  16.307 -0.4242  0.5384  0.0634
    4DOPE   H3X  471   4.081   2.604  16.343 -1.7620  0.5850  1.2405
    4DOPE   H3Y  472   3.938   2.502  16.326 -0.2329  0.3397  1.1756
    4DOPE   C34  473   4.082   2.501  16.155  0.1107 -0.1804 -0.0773
    4DOPE   H4X  474   4.039   2.589  16.103  0.9564  0.9022  1.0112
    4DOPE   H4Y  475   4.191   2.501  16.138  0.1759 -1.0458  0.3049
    4DOPE   C35  476   4.033   2.375  16.082  0.2152  0.2104 -0.3805
    4DOPE   H5X  477   3.923   2.359  16.083  0.1965  0.3330 -0.3389
    4DOPE   H5Y  478   4.074   2.290  16.139  1.5207  0.9814 -0.1311
    4DOPE   C36  479   4.070   2.378  15.936 -0.1086  0.0476 -0.0397
    4DOPE   H6X  480   4.181   2.371  15.945 -0.0331  2.2867  1.3204
    4DOPE   H6Y  481   4.044   2.470  15.881  0.3540 -0.7283 -1.6150
    4DOPE   C37  482   4.026   2.265  15.850  0.5000  0.8096  0.0004
    4DOPE   H7X  483   4.015   2.171  15.908  2.7016 -1.7767 -3.4014
    4DOPE   H7Y  484   3.932   2.297  15.802  1.0355  3.2403  0.4303
    4DOPE   C38  485   4.128   2.242  15.732 -0.0690  0.4584 -0.0988
    4DOPE   H8X  486   4.140   2.341  15.682 -1.3528  1.0777  0.7363
    4DOPE   H8Y  487   4.077   2.172  15.662  1.5891  0.5220 -1.4179
    4DOPE   C39  488   4.262   2.185  15.771 -0.3950 -0.7752 -0.6606
    4DOPE   H9X  489   4.273   2.138  15.870 -1.3351  1.5054  0.5931
    4DOPE  C310  490   4.365   2.202  15.689 -0.1406  0.4367  0.1892
    4DOPE  H10X  491   4.460   2.152  15.713 -0.0738  0.2553 -0.4215
    4DOPE  C311  492   4.367   2.270  15.553 -0.1450 -0.0572 -0.3197
    4DOPE  H11X  493   4.415   2.204  15.477  0.7971 -1.0162  1.0485
    4DOPE  H11Y  494   4.267   2.307  15.522 -0.1130  2.0954  1.8668
    4DOPE  C312  495   4.458   2.397  15.562  0.3910 -0.2403 -0.2016
    4DOPE  H12X  496   4.565   2.375  15.585  1.3258  1.4912 -2.4364
    4DOPE  H12Y  497   4.423   2.459  15.647 -0.3365 -2.8306  1.5210
    4DOPE  C313  498   4.463   2.472  15.427  0.2798 -1.3076 -0.7896
    4DOPE  H13X  499   4.500   2.400  15.351  0.2263 -1.6954 -0.4516
    4DOPE  H13Y  500   4.357   2.496  15.406  0.4496  0.6938  0.4145
    4DOPE  C314  501   4.541   2.602  15.422  0.5659  0.1749  0.0140
    4DOPE  H14X  502   4.646   2.574  15.447  0.6217  0.5900  0.2569
    4DOPE  H14Y  503   4.515   2.672  15.504  0.5090 -0.0440  0.1856
    4DOPE  C315  504   4.531   2.661  15.282  0.1743  0.4983  0.3532
    4DOPE  H15X  505   4.558   2.587  15.204  0.1905  1.1984 -0.3121
    4DOPE  H15Y  506   4.612   2.737  15.286 -0.1306  0.8126  0.5151
    4DOPE  C316  507   4.399   2.723  15.256  0.4257 -0.7129 -0.1610
    4DOPE  H16X  508   4.369   2.786  15.342  1.7882  0.0874 -0.2395
    4DOPE  H16Y  509   4.323   2.645  15.236  1.4111 -1.3795 -1.4299
    4DOPE  C317  510   4.390   2.800  15.118  0.2123 -0.5123  0.2467
    4DOPE  H17X  511   4.457   2.887  15.104 -0.3776 -0.2614 -1.1687
    4DOPE  H17Y  512   4.404   2.722  15.040 -2.4492 -1.4836  0.6411
    4DOPE  C318  513   4.253   2.850  15.091  0.0943  0.0038  0.2391
    4DOPE  H18X  514   4.247   2.898  14.992 -1.4598 -2.3099 -0.8765
    4DOPE  H18Y  515   4.172   2.775  15.100  2.1910 -2.5077 -0.4826
    4DOPE  H18Z  516   4.230   2.930  15.165  0.2133  0.2184  0.0436
    5DOPE     N  517   0.072   3.646  17.193  0.7040 -0.0619  0.3794
    5DOPE   HN1  518   0.133   3.637  17.277 -0.6829 -1.5889  1.2978
    5DOPE   HN2  519  -0.015   3.590  17.210  0.8077 -0.5351 -0.6217
    5DOPE   HN3  520   0.117   3.603  17.110  2.3021  0.4912  0.9334
    5DOPE   C12  521   0.055   3.794  17.150  0.4586  0.2480 -0.2856
    5DOPE  H12A  522   0.020   3.849  17.240 -0.4642 -1.7814  0.6755
    5DOPE  H12B  523  -0.038   3.796  17.089 -0.4680  0.4815  1.0630
    5DOPE   C11  524   0.179   3.853  17.075 -0.9220  0.0347 -0.1132
    5DOPE  H11A  525   0.279   3.862  17.123 -0.8500 -0.9684 -0.0424
    5DOPE  H11B  526   0.149   3.955  17.044 -1.6366 -0.4125 -0.9187
    5DOPE     P  527   0.293   3.674  16.927  0.2042  0.5599 -0.0156
    5DOPE   O13  528   0.249   3.587  16.818 -0.0916  0.1839  0.0914
    5DOPE   O14  529   0.310   3.604  17.051  0.4865  1.0319  0.2063
    5DOPE   O11  530   0.421   3.745  16.873  0.4150 -0.9110 -0.2104
    5DOPE   O12  531   0.190   3.790  16.949 -0.2851  0.3332  1.0756
    5DOPE    C1  532   0.413   3.876  16.815  0.0393 -0.2936  0.2596
    5DOPE    HA  533   0.518   3.910  16.816  0.8248 -2.5544  0.0979
    5DOPE    HB  534   0.357   3.949  16.877 -0.1564 -1.3671  1.3999
    5DOPE    C2  535   0.381   3.878  16.661  0.0969 -0.1678 -0.5344
    5DOPE    HS  536   0.277   3.839  16.651  0.0676 -0.1234 -0.4065
    5DOPE   O21  537   0.474   3.789  16.596  0.4599  0.2479  0.4500
    5DOPE   C21  538   0.421   3.719  16.499  0.5665  1.0983  0.3235
    5DOPE   O22  539   0.306   3.702  16.471  0.1815 -0.0262  0.2844
    5DOPE   C22  540   0.537   3.671  16.410 -0.1131 -0.6350 -0.0946
    5DOPE   H2R  541   0.583   3.578  16.451  0.5578 -0.8704 -1.3081
    5DOPE   H2S  542   0.619   3.746  16.413  1.7523 -2.5513 -0.1799
    5DOPE    C3  543   0.382   4.018  16.596 -0.2497  0.2077  0.4891
    5DOPE    HX  544   0.485   4.059  16.603 -0.6889  1.1807  1.4861
    5DOPE    HY  545   0.314   4.081  16.657 -1.9151 -1.1399  0.1177
    5DOPE   O31  546   0.340   4.016  16.458  0.3463 -0.2480 -0.1194
    5DOPE   C31  547   0.205   4.009  16.436  0.0773 -0.2651 -0.2001
    5DOPE   O32  548   0.120   4.019  16.516  0.1040  0.2683 -0.5251
    5DOPE   C32  549   0.188   4.017  16.289 -0.1038  0.5104  0.0149
    5DOPE   H2X  550   0.240   4.114  16.273  1.1130 -0.1713 -0.2897
    5DOPE   H2Y  551   0.247   3.945  16.229 -0.7636 -0.3030  0.3150
    5DOPE   C23  552   0.498   3.616  16.268 -0.1755  0.7248 -0.7501
    5DOPE   H3R  553   0.497   3.712  16.212  0.1326  0.2921 -1.5234
    5DOPE   H3S  554   0.396   3.575  16.276 -0.2096  0.8852 -0.3127
    5DOPE   C24  555   0.602   3.515  16.217 -0.1771 -0.4540  0.0020
    5DOPE   H4R  556   0.570   3.426  16.275  0.2204 -0.7860 -0.2753
    5DOPE   H4S  557   0.705   3.543  16.250 -0.1993 -0.8457  0.4193
    5DOPE   C25  558   0.588   3.496  16.066 -0.3957 -0.2209 -0.3950
    5DOPE   H5R  559   0.478   3.492  16.063 -0.4066  0.3290 -1.0802
    5DOPE   H5S  560   0.630   3.397  16.038 -3.9908 -1.6734 -1.0676
    5DOPE   C26  561   0.660   3.607  15.988 -0.6411  0.0107 -0.1837
    5DOPE   H6R  562   0.770   3.597  16.006 -0.5995 -1.5076 -1.0988
    5DOPE   H6S  563   0.624   3.703  16.030  0.2175 -0.7280  2.4422
    5DOPE   C27  564   0.662   3.588  15.837  0.3714 -0.5306 -0.0203
    5DOPE   H7R  565   0.732   3.662  15.793  0.5776 -0.2887  0.7081
    5DOPE   H7S  566   0.565   3.614  15.790  0.6143  1.8429  0.6703
    5DOPE   C28  567   0.696   3.443  15.793 -0.6216  0.0195  0.1990
    5DOPE   H8R  568   0.602   3.384  15.798  0.2706 -1.3477  2.9555
    5DOPE   H8S  569   0.765   3.395  15.865 -0.6202 -0.5337 -0.1628
    5DOPE   C29  570   0.762   3.428  15.653  0.2565 -0.6654 -0.3464
    5DOPE   H9R  571   0.868   3.457  15.654 -0.3039  2.0098 -3.2935
    5DOPE  C210  572   0.703   3.392  15.539  0.2433  0.2375 -0.4793
    5DOPE  H10R  573   0.753   3.409  15.442 -0.7272 -2.1993 -1.4725
    5DOPE  C211  574   0.560   3.353  15.517 -0.5051 -0.4526  0.3751
    5DOPE  H11R  575   0.521   3.452  15.486  1.3384 -0.1629 -1.2042
    5DOPE  H11S  576   0.503   3.323  15.607  0.7139 -1.9302  0.6957
    5DOPE  C212  577   0.523   3.262  15.398  0.2554  0.0743 -0.4858
    5DOPE  H12R  578   0.541   3.155  15.424  0.7460  0.3141  0.2028
    5DOPE  H12S  579   0.578   3.287  15.305 -0.7790 -0.3965 -1.2366
    5DOPE  C213  580   0.376   3.270  15.363  0.4117  0.2436  0.5092
    5DOPE  H13R  581   0.346   3.377  15.363  1.9109  0.7377 -1.5381
    5DOPE  H13S  582   0.321   3.211  15.439 -0.1775  1.1867  0.8333
    5DOPE  C214  583   0.330   3.207  15.237 -0.2261 -0.4036 -0.0009
    5DOPE  H14R  584   0.390   3.114  15.224  1.1550  0.6487 -1.7054
    5DOPE  H14S  585   0.358   3.272  15.151 -2.7108  0.1566 -0.4663
    5DOPE  C215  586   0.178   3.181  15.245  0.3097  0.7975  0.9175
    5DOPE  H15R  587   0.132   3.252  15.317  0.9480 -1.0648  3.2827
    5DOPE  H15S  588   0.158   3.083  15.293  1.3747  0.3424  0.4719
    5DOPE  C216  589   0.119   3.180  15.101 -0.4829  0.1333 -0.4001
    5DOPE  H16R  590   0.118   3.279  15.050 -1.5781  0.2629 -0.1573
    5DOPE  H16S  591   0.012   3.151  15.108 -0.2394 -1.0169 -1.1359
    5DOPE  C217  592   0.184   3.082  15.006 -0.1328 -0.1698 -0.0720
    5DOPE  H17R  593   0.169   2.980  15.045 -2.9257  0.5226  0.9388
    5DOPE  H17S  594   0.293   3.095  14.986 -0.6269  0.6975 -2.7286
    5DOPE  C218  595   0.118   3.091  14.872  0.5106 -0.7409  1.1344
    5DOPE  H18R  596   0.007   3.092  14.874  0.4557 -0.1502 -0.5878
    5DOPE  H18S  597   0.154   3.004  14.812 -2.7600 -1.2435 -0.3010
    5DOPE  H18T  598   0.152   3.184  14.821 -1.3419  0.6898  2.3978
    5DOPE   C33  599   0.047   4.035  16.236  0.2645 -0.4263  0.2760
    5DOPE   H3X  600   0.060   4.098  16.146  1.6611  1.9493  2.0044
    5DOPE   H3Y  601  -0.020   4.098  16.298  1.3064  2.7263 -1.6044
    5DOPE   C34  602  -0.019   3.904  16.201  0.3681  0.6606  0.3209
    5DOPE   H4X  603   0.055   3.852  16.137 -0.2533  0.0997  0.0407
    5DOPE   H4Y  604  -0.019   3.838  16.291  0.3529 -0.3697 -0.4213
    5DOPE   C35  605  -0.156   3.913  16.137  0.0493 -0.3346  0.0200
    5DOPE   H5X  606  -0.191   3.815  16.098  1.4685 -2.0667  2.7866
    5DOPE   H5Y  607  -0.147   3.975  16.045  0.3362 -1.9385 -1.0739
    5DOPE   C36  608  -0.267   3.992  16.209  0.0292 -0.0024 -0.0874
    5DOPE   H6X  609  -0.368   3.991  16.162  0.2881 -0.8627 -0.6465
    5DOPE   H6Y  610  -0.229   4.095  16.220  1.7243 -0.6093  0.0054
    5DOPE   C37  611  -0.284   3.933  16.349  0.1153 -0.2577 -0.5858
    5DOPE   H7X  612  -0.341   3.838  16.337 -0.6210  0.2274 -1.0913
    5DOPE   H7Y  613  -0.187   3.908  16.395 -0.9281  0.1736  1.9945
    5DOPE   C38  614  -0.372   4.034  16.433 -0.4293 -0.6504  0.4108
    5DOPE   H8X  615  -0.343   4.140  16.416  0.0129 -0.5206  1.8315
    5DOPE   H8Y  616  -0.358   4.028  16.543 -0.9577  2.7619  0.7567
    5DOPE   C39  617  -0.517   4.005  16.412 -0.7430 -0.2650  0.1749
    5DOPE   H9X  618  -0.552   3.910  16.453 -2.7633  0.1969 -0.3722
    5DOPE  C310  619  -0.609   4.090  16.376  0.8781 -0.5614  0.2446
    5DOPE  H10X  620  -0.709   4.046  16.362  0.2812  0.7289  0.2979
    5DOPE  C311  621  -0.596   4.240  16.354 -0.0529  0.0303  0.6550
    5DOPE  H11X  622  -0.664   4.281  16.431 -2.1340 -0.6955 -0.7317
    5DOPE  H11Y  623  -0.497   4.288  16.373  0.4918 -0.1024 -1.5355
    5DOPE  C312  624  -0.626   4.271  16.204 -0.1549 -0.0910  0.4493
    5DOPE  H12X  625  -0.545   4.224  16.144 -0.5111  1.1282 -1.0746
    5DOPE  H12Y  626  -0.612   4.378  16.174 -0.3581 -0.1144  0.2670
    5DOPE  C313  627  -0.767   4.229  16.146 -0.0500 -0.0721  0.1687
    5DOPE  H13X  628  -0.783   4.124  16.178 -0.9006  0.2424  0.7939
    5DOPE  H13Y  629  -0.840   4.292  16.200  0.3623  2.2057 -1.7874
    5DOPE  C314  630  -0.792   4.245  15.995 -0.5096 -0.2409  0.3460
    5DOPE  H14X  631  -0.824   4.349  15.976 -0.6421 -0.5309 -1.2047
    5DOPE  H14Y  632  -0.877   4.178  15.967  0.3513 -0.0861 -3.2103
    5DOPE  C315  633  -0.664   4.225  15.908 -0.1971  0.3830  0.2556
    5DOPE  H15X  634  -0.595   4.154  15.959  3.4462  2.2876 -1.6168
    5DOPE  H15Y  635  -0.604   4.318  15.897  0.0039  0.0859 -1.4083
    5DOPE  C316  636  -0.700   4.166  15.770 -0.2197  0.4185 -0.6372
    5DOPE  H16X  637  -0.782   4.090  15.772 -0.8726  1.1012 -1.1131
    5DOPE  H16Y  638  -0.615   4.107  15.729 -1.5362 -2.5330  0.5800
    5DOPE  C317  639  -0.742   4.279  15.671 -0.2153 -0.1994  0.1057
    5DOPE  H17X  640  -0.832   4.325  15.718  1.2419  2.1237  0.8172
    5DOPE  H17Y  641  -0.660   4.354  15.680 -1.4690  1.1456  0.7359
    5DOPE  C318  642  -0.780   4.230  15.531  0.1349  0.6726  0.7350
    5DOPE  H18X  643  -0.686   4.184  15.493 -0.6931  0.1259 -0.7550
    5DOPE  H18Y  644  -0.866   4.161  15.541 -0.0066  0.8819  0.9521
    5DOPE  H18Z  645  -0.810   4.312  15.462 -3.0250  0.2955  1.5235
    6DOPE     N  646   1.167   4.168  17.020  0.6562  0.8497 -0.1901
    6DOPE   HN1  647   1.127   4.087  16.968 -2.4495  2.3464 -0.3660
    6DOPE   HN2  648   1.269   4.153  17.025  0.4939 -0.6357 -0.6776
    6DOPE   HN3  649   1.133   4.174  17.118 -1.0972  0.8027 -0.7486
    6DOPE   C12  650   1.132   4.297  16.953  0.2476  0.0264  0.0043
    6DOPE  H12A  651   1.151   4.278  16.846 -0.6660 -0.1427 -0.1351
    6DOPE  H12B  652   1.196   4.379  16.992  0.3240  0.1354 -0.3541
    6DOPE   C11  653   0.986   4.330  16.972 -0.5166 -0.0660 -0.3480
    6DOPE  H11A  654   0.966   4.427  16.921  0.5393  0.6758  0.6053
    6DOPE  H11B  655   0.971   4.352  17.079 -0.4967 -0.4686 -0.2610
    6DOPE     P  656   0.759   4.206  16.888 -0.4385 -0.3911 -0.2275
    6DOPE   O13  657   0.687   4.333  16.889 -0.5023 -0.2876  0.0230
    6DOPE   O14  658   0.709   4.086  16.963  1.0440  0.1131 -0.3929
    6DOPE   O11  659   0.769   4.159  16.736 -0.0264 -0.5133 -0.0159
    6DOPE   O12  660   0.906   4.219  16.931 -0.1508 -0.1088 -0.3241
    6DOPE    C1  661   0.880   4.200  16.658 -0.4372  0.9858 -0.3554
    6DOPE    HA  662   0.975   4.152  16.691 -1.0716 -0.0450  0.0415
    6DOPE    HB  663   0.894   4.309  16.670  2.7491  0.4333  2.4212
    6DOPE    C2  664   0.857   4.172  16.507 -0.1628  0.3315  0.9251
    6DOPE    HS  665   0.749   4.186  16.485 -0.4995  0.2604  2.4585
    6DOPE   O21  666   0.901   4.039  16.479  0.6089 -0.0863 -0.1229
    6DOPE   C21  667   0.862   3.988  16.368 -0.1539 -1.1362  0.5598
    6DOPE   O22  668   0.785   4.046  16.285 -0.3788 -0.3920  0.6931
    6DOPE   C22  669   0.916   3.851  16.360  0.5706  0.5193  0.3717
    6DOPE   H2R  670   0.841   3.790  16.415  0.1097 -1.0309 -1.8287
    6DOPE   H2S  671   1.019   3.854  16.402  0.8987 -1.4203 -0.1620
    6DOPE    C3  672   0.944   4.269  16.416 -0.9268  0.0626 -0.2806
    6DOPE    HX  673   0.921   4.375  16.438 -0.5723 -0.1372  1.1232
    6DOPE    HY  674   0.931   4.250  16.307 -0.4342 -1.3828 -0.1054
    6DOPE   O31  675   1.085   4.238  16.434 -0.2023  0.1946 -0.2327
    6DOPE   C31  676   1.163   4.336  16.482  0.0352 -0.4369 -0.2053
    6DOPE   O32  677   1.126   4.452  16.499  0.9420 -0.1354  0.0018
    6DOPE   C32  678   1.302   4.283  16.507 -0.0520  0.4612 -0.3105
    6DOPE   H2X  679   1.283   4.235  16.606  0.5838 -1.9342 -1.2965
    6DOPE   H2Y  680   1.332   4.191  16.454  1.0904  0.4107  0.3781
    6DOPE   C23  681   0.925   3.799  16.221 -0.2874 -0.0258  0.3330
    6DOPE   H3R  682   0.823   3.816  16.178 -0.1704 -0.2314 -0.0307
    6DOPE   H3S  683   0.949   3.691  16.223  0.8692  0.1633 -1.3094
    6DOPE   C24  684   1.036   3.868  16.134  0.4015  0.4559 -0.0849
    6DOPE   H4R  685   1.130   3.821  16.170 -0.4645 -0.9236  0.4632
    6DOPE   H4S  686   1.041   3.979  16.143 -1.6848  0.5935 -0.1353
    6DOPE   C25  687   1.027   3.824  15.987  0.2543  0.1506 -0.0667
    6DOPE   H5R  688   0.939   3.881  15.949  0.6243  1.8409  1.4545
    6DOPE   H5S  689   1.006   3.715  15.985 -1.0677  0.3882 -0.6158
    6DOPE   C26  690   1.142   3.869  15.897  0.1732 -0.0082 -0.6770
    6DOPE   H6R  691   1.228   3.912  15.954  0.8054  0.6527 -2.0829
    6DOPE   H6S  692   1.105   3.944  15.824 -1.3941 -0.7342 -0.6802
    6DOPE   C27  693   1.202   3.754  15.823  0.4629  0.3954 -0.0099
    6DOPE   H7R  694   1.225   3.674  15.897 -1.6331 -0.0690  0.2109
    6DOPE   H7S  695   1.301   3.781  15.780  0.2437 -0.4843 -1.1208
    6DOPE   C28  696   1.116   3.696  15.708  0.0728 -0.6601  0.4001
    6DOPE   H8R  697   1.025   3.656  15.759 -1.2496  2.5476  0.8319
    6DOPE   H8S  698   1.172   3.612  15.663  1.3398 -0.4764  1.5659
    6DOPE   C29  699   1.068   3.789  15.603  0.4483 -0.4383  0.1908
    6DOPE   H9R  700   0.964   3.826  15.601  1.0448  1.2837 -0.6719
    6DOPE  C210  701   1.146   3.820  15.493 -0.7939 -0.0357 -0.8065
    6DOPE  H10R  702   1.101   3.894  15.426  0.8102  1.4429 -0.3057
    6DOPE  C211  703   1.292   3.768  15.469 -0.4072  0.2815 -0.0684
    6DOPE  H11R  704   1.318   3.696  15.550  0.8394  1.5158  0.6761
    6DOPE  H11S  705   1.370   3.845  15.486  0.1610 -0.2712 -0.1215
    6DOPE  C212  706   1.308   3.701  15.333  0.6813  0.3573 -0.0961
    6DOPE  H12R  707   1.415   3.698  15.304  0.5505 -1.2282 -0.4797
    6DOPE  H12S  708   1.251   3.767  15.264 -0.8222 -0.2485  0.4966
    6DOPE  C213  709   1.245   3.562  15.330 -0.0947 -0.7840  0.2009
    6DOPE  H13R  710   1.139   3.575  15.360 -0.1283  2.9991 -0.9527
    6DOPE  H13S  711   1.292   3.496  15.405  1.7453  0.2810  0.0539
    6DOPE  C214  712   1.260   3.509  15.193 -0.2504 -0.6535  0.3185
    6DOPE  H14R  713   1.370   3.505  15.182 -0.1771 -0.2251  0.8748
    6DOPE  H14S  714   1.224   3.570  15.108 -0.7419 -3.2922 -1.4819
    6DOPE  C215  715   1.208   3.371  15.177 -0.0414  0.4455  0.0667
    6DOPE  H15R  716   1.105   3.375  15.218 -0.4116 -0.6670 -0.7127
    6DOPE  H15S  717   1.271   3.301  15.236 -1.1277 -0.7596 -0.1704
    6DOPE  C216  718   1.214   3.318  15.036 -0.1140  0.2058 -0.0260
    6DOPE  H16R  719   1.180   3.212  15.042 -0.6431  0.4235  1.1123
    6DOPE  H16S  720   1.321   3.317  15.007 -0.2383  0.4276 -0.5028
    6DOPE  C217  721   1.142   3.399  14.923  0.0334  0.1705 -0.8415
    6DOPE  H17R  722   1.182   3.502  14.914  1.5521 -0.0572  2.1022
    6DOPE  H17S  723   1.040   3.418  14.962  0.8163  1.3990  0.7224
    6DOPE  C218  724   1.135   3.341  14.785 -0.0748 -0.0484  0.3672
    6DOPE  H18R  725   1.096   3.237  14.777 -0.7818 -0.0638  3.0773
    6DOPE  H18S  726   1.241   3.342  14.753 -0.0749 -0.5912  0.3354
    6DOPE  H18T  727   1.085   3.409  14.712 -1.1413  0.3313  1.4085
    6DOPE   C33  728   1.414   4.390  16.520 -0.5391  0.9350 -0.6761
    6DOPE   H3X  729   1.505   4.343  16.562 -3.2403 -2.3862  2.0202
    6DOPE   H3Y  730   1.374   4.477  16.578 -2.8149 -0.2657 -0.3270
    6DOPE   C34  731   1.462   4.438  16.384  0.1327 -0.1822  0.3474
    6DOPE   H4X  732   1.378   4.493  16.336 -0.0157 -0.1966  0.5891
    6DOPE   H4Y  733   1.527   4.528  16.391  1.2939 -0.8215 -1.6001
    6DOPE   C35  734   1.500   4.335  16.286 -0.0310  0.5082  0.0401
    6DOPE   H5X  735   1.421   4.264  16.254 -0.0956  0.7003 -0.2225
    6DOPE   H5Y  736   1.572   4.276  16.347  0.5403  1.3128  0.1598
    6DOPE   C36  737   1.572   4.410  16.168  0.2042  0.0313 -0.4996
    6DOPE   H6X  738   1.656   4.467  16.214  0.2075  0.2022 -0.7145
    6DOPE   H6Y  739   1.502   4.480  16.118 -0.7354 -0.4269  0.1403
    6DOPE   C37  740   1.641   4.313  16.069 -0.5485  0.1367 -0.3279
    6DOPE   H7X  741   1.724   4.262  16.124 -0.6636 -0.7918 -0.9940
    6DOPE   H7Y  742   1.565   4.234  16.050 -1.8540  0.4442  2.9144
    6DOPE   C38  743   1.708   4.375  15.945  0.6473  0.2895 -0.2258
    6DOPE   H8X  744   1.807   4.421  15.969  0.5083  0.2401  0.4775
    6DOPE   H8Y  745   1.639   4.448  15.899 -1.2339 -1.2068  0.1119
    6DOPE   C39  746   1.753   4.261  15.861  1.0720  0.0829  0.1982
    6DOPE   H9X  747   1.731   4.159  15.897 -1.5906  0.6926  0.5337
    6DOPE  C310  748   1.811   4.266  15.744 -0.1957 -0.1741 -0.0738
    6DOPE  H10X  749   1.855   4.174  15.702 -0.9970 -0.2894 -0.6687
    6DOPE  C311  750   1.852   4.394  15.677  0.6190 -0.6280 -0.1216
    6DOPE  H11X  751   1.803   4.402  15.577  0.0324 -1.1271  0.1189
    6DOPE  H11Y  752   1.808   4.484  15.726 -2.5501  0.3645 -4.1313
    6DOPE  C312  753   2.004   4.394  15.650 -0.2723  0.3735  0.6024
    6DOPE  H12X  754   2.019   4.488  15.593 -1.7317  0.8091  0.8829
    6DOPE  H12Y  755   2.032   4.303  15.592  0.4430 -1.5311  3.7221
    6DOPE  C313  756   2.104   4.379  15.762  0.9716 -0.7904  0.3741
    6DOPE  H13X  757   2.078   4.293  15.827 -3.7040  1.1684  1.5536
    6DOPE  H13Y  758   2.204   4.373  15.714  0.2517  0.2601 -1.3356
    6DOPE  C314  759   2.122   4.506  15.850 -0.3293 -0.2125 -1.1187
    6DOPE  H14X  760   2.023   4.528  15.897  0.9816  1.6984  0.9635
    6DOPE  H14Y  761   2.142   4.598  15.791  0.3362 -0.3654 -1.1404
    6DOPE  C315  762   2.231   4.477  15.955 -0.4204 -0.3387  0.7352
    6DOPE  H15X  763   2.326   4.442  15.910  0.9106  2.3487  1.3095
    6DOPE  H15Y  764   2.200   4.389  16.015  1.2015 -1.5565 -0.1428
    6DOPE  C316  765   2.251   4.603  16.043 -0.0746  0.7520 -0.1334
    6DOPE  H16X  766   2.152   4.648  16.067 -2.7930 -3.5333 -2.0618
    6DOPE  H16Y  767   2.308   4.685  15.995  0.2398  0.8823  0.4492
    6DOPE  C317  768   2.318   4.556  16.177 -0.1276 -0.3648  0.3530
    6DOPE  H17X  769   2.255   4.481  16.230 -0.6368  0.1953  0.5514
    6DOPE  H17Y  770   2.414   4.507  16.150  0.6472 -0.1698  2.5642
    6DOPE  C318  771   2.356   4.663  16.281 -0.2096 -0.1919  0.2808
    6DOPE  H18X  772   2.271   4.731  16.301  1.2193  1.2323  1.8302
    6DOPE  H18Y  773   2.380   4.628  16.384  3.5250  2.5834  0.5556
    6DOPE  H18Z  774   2.441   4.726  16.247 -1.1004  1.2001  0.5667
    7DOPE     N  775   4.251   7.507  17.014 -0.7122  0.3913 -0.4611
    7DOPE   HN1  776   4.322   7.535  16.944 -2.8284 -0.9269 -3.3299
    7DOPE   HN2  777   4.188   7.589  17.029 -2.2895 -0.7373 -0.6531
    7DOPE   HN3  778   4.303   7.472  17.097 -1.6747  1.1451  0.5038
    7DOPE   C12  779   4.164   7.393  16.973 -1.2416  0.9500 -0.5337
    7DOPE  H12A  780   4.129   7.414  16.870 -0.7678  1.4919 -0.5963
    7DOPE  H12B  781   4.075   7.384  17.038  0.8992 -3.9605  2.2422
    7DOPE   C11  782   4.240   7.260  16.984 -0.0895  0.4682 -0.2669
    7DOPE  H11A  783   4.164   7.180  16.976  0.0665  0.4026 -1.1183
    7DOPE  H11B  784   4.289   7.255  17.084 -1.0400  1.9402  0.3133
    7DOPE     P  785   4.414   7.110  16.845 -0.0882 -0.4430  0.1473
    7DOPE   O13  786   4.312   7.001  16.860 -0.1745  0.8335 -0.6151
    7DOPE   O14  787   4.548   7.103  16.909  0.3261 -0.1722  0.4366
    7DOPE   O11  788   4.427   7.126  16.685  0.0455 -0.7174 -0.0522
    7DOPE   O12  789   4.346   7.245  16.888  0.4612  0.5217 -0.5258
    7DOPE    C1  790   4.379   7.242  16.616  0.2289 -0.3785 -0.0042
    7DOPE    HA  791   4.403   7.331  16.678 -1.7454  1.9492 -2.3763
    7DOPE    HB  792   4.269   7.246  16.606  0.3397  1.1314 -0.8619
    7DOPE    C2  793   4.435   7.257  16.471 -0.3362 -0.0312  0.0662
    7DOPE    HS  794   4.398   7.352  16.427 -0.3299 -1.0515 -2.3123
    7DOPE   O21  795   4.381   7.158  16.391 -0.4731  0.0525  0.4143
    7DOPE   C21  796   4.253   7.161  16.364  0.0532 -0.2786  0.7442
    7DOPE   O22  797   4.170   7.247  16.389  0.5281 -0.5258  0.6064
    7DOPE   C22  798   4.203   7.041  16.290 -0.3240 -0.2789 -0.5711
    7DOPE   H2R  799   4.099   7.013  16.319 -0.0649 -1.0225 -0.3255
    7DOPE   H2S  800   4.248   6.947  16.329 -1.8527 -1.2523 -1.0497
    7DOPE    C3  801   4.594   7.249  16.462 -0.1821  0.4826  0.1001
    7DOPE    HX  802   4.621   7.149  16.502 -0.1390  0.8630  1.0422
    7DOPE    HY  803   4.641   7.319  16.534 -0.2753 -0.1932  0.8359
    7DOPE   O31  804   4.643   7.272  16.328 -0.6206 -0.0780 -0.3362
    7DOPE   C31  805   4.770   7.287  16.315  0.3957 -0.0042 -0.0188
    7DOPE   O32  806   4.848   7.289  16.409  0.6316  0.4203 -0.9433
    7DOPE   C32  807   4.811   7.287  16.165  0.6616  0.4808 -0.1085
    7DOPE   H2X  808   4.766   7.195  16.121 -1.7418  0.9289  1.2242
    7DOPE   H2Y  809   4.761   7.378  16.126 -0.9217  0.0536  0.8079
    7DOPE   C23  810   4.212   7.055  16.136  0.3668 -0.3815 -0.2907
    7DOPE   H3R  811   4.203   7.160  16.102  0.5577  0.1485  1.1901
    7DOPE   H3S  812   4.139   6.988  16.086 -1.2270 -1.3820  3.0244
    7DOPE   C24  813   4.354   7.009  16.090 -0.2104  0.0059  0.0446
    7DOPE   H4R  814   4.373   6.907  16.131  0.4550  0.1481  0.0931
    7DOPE   H4S  815   4.425   7.077  16.140 -0.8798  2.1441 -1.7350
    7DOPE   C25  816   4.386   7.022  15.943  0.0683  0.0543 -0.4151
    7DOPE   H5R  817   4.373   7.127  15.907  1.5683  0.2228 -0.5152
    7DOPE   H5S  818   4.307   6.968  15.886 -0.0100 -1.2066  0.8468
    7DOPE   C26  819   4.532   6.991  15.898  0.4177 -0.1408  0.8598
    7DOPE   H6R  820   4.556   6.888  15.932 -0.9593 -0.8366 -0.1420
    7DOPE   H6S  821   4.589   7.072  15.947  1.3590  0.6102 -1.3477
    7DOPE   C27  822   4.553   7.025  15.749 -0.5795 -0.0634  0.6363
    7DOPE   H7R  823   4.662   7.039  15.732 -0.5021  1.8660  2.3599
    7DOPE   H7S  824   4.511   7.119  15.708  1.8076  1.1547  0.7835
    7DOPE   C28  825   4.519   6.908  15.653  0.5723 -0.1903 -0.5770
    7DOPE   H8R  826   4.532   6.810  15.704  1.8450  1.4714  2.5733
    7DOPE   H8S  827   4.587   6.912  15.565  2.6807  0.5467  0.9866
    7DOPE   C29  828   4.374   6.917  15.608 -0.2619  0.3494  0.4279
    7DOPE   H9R  829   4.302   6.882  15.684  0.9180  0.5262  1.6731
    7DOPE  C210  830   4.334   6.938  15.479  0.3309 -0.0523  0.2031
    7DOPE  H10R  831   4.227   6.924  15.456  0.5435  0.1471 -0.9794
    7DOPE  C211  832   4.430   6.950  15.364 -0.4177 -0.2696 -0.0355
    7DOPE  H11R  833   4.455   6.866  15.296  0.3535  0.7678 -1.0877
    7DOPE  H11S  834   4.532   6.983  15.394 -0.9579 -0.2155  1.8759
    7DOPE  C212  835   4.361   7.060  15.269  0.1852  0.0047  0.6475
    7DOPE  H12R  836   4.437   7.079  15.190 -0.2756  0.0008  0.2024
    7DOPE  H12S  837   4.357   7.158  15.321 -0.0332  0.1344  0.3862
    7DOPE  C213  838   4.228   7.018  15.210 -0.0460  0.3039  0.6807
    7DOPE  H13R  839   4.152   7.046  15.287  1.4002 -0.7698  2.5773
    7DOPE  H13S  840   4.221   6.907  15.205 -0.8053  0.3872 -0.4299
    7DOPE  C214  841   4.187   7.075  15.073 -0.3979 -1.1597  0.1674
    7DOPE  H14R  842   4.242   7.060  14.977 -0.3863  0.4483 -0.1107
    7DOPE  H14S  843   4.191   7.186  15.083  1.5529 -1.3347  2.1225
    7DOPE  C215  844   4.034   7.036  15.043 -0.0320  0.2027 -0.6678
    7DOPE  H15R  845   3.963   7.086  15.113  1.0038  1.6950 -0.6425
    7DOPE  H15S  846   4.029   6.926  15.055  0.0064 -0.1347 -3.2764
    7DOPE  C216  847   3.993   7.062  14.903 -0.0863  0.7816  0.2182
    7DOPE  H16R  848   4.063   7.010  14.834 -0.3709 -1.4146  1.4781
    7DOPE  H16S  849   3.996   7.171  14.884  1.4507  0.9400  1.2462
    7DOPE  C217  850   3.849   7.011  14.870  0.2133  0.1110  0.7648
    7DOPE  H17R  851   3.776   7.067  14.932 -1.6280 -0.1303 -1.0437
    7DOPE  H17S  852   3.828   6.904  14.889 -1.7942  0.8015  2.8743
    7DOPE  C218  853   3.791   7.041  14.728 -0.9971  0.4564  0.5381
    7DOPE  H18R  854   3.860   6.998  14.653 -0.9094  0.9899  0.3031
    7DOPE  H18S  855   3.794   7.151  14.709 -0.3938  0.3124 -0.2643
    7DOPE  H18T  856   3.688   7.006  14.707 -1.4492  1.0241  1.7159
    7DOPE   C33  857   4.957   7.309  16.156  0.3028  0.4131  0.8142
    7DOPE   H3X  858   5.014   7.238  16.220  0.7466  0.6268  0.6592
    7DOPE   H3Y  859   4.988   7.407  16.197  0.8165  0.5298  0.1688
    7DOPE   C34  860   5.014   7.288  16.013 -0.6303 -0.2445 -0.4109
    7DOPE   H4X  861   5.124   7.276  16.021 -0.4806  0.9388 -0.4883
    7DOPE   H4Y  862   4.982   7.190  15.973 -1.3011  0.0978 -0.7406
    7DOPE   C35  863   4.998   7.409  15.914  0.8595  0.5676  0.5887
    7DOPE   H5X  864   5.018   7.506  15.964  1.4538  0.8035 -0.0909
    7DOPE   H5Y  865   4.892   7.412  15.880  1.1636 -0.3241 -0.5190
    7DOPE   C36  866   5.076   7.398  15.781 -0.0376  0.0944 -0.0830
    7DOPE   H6X  867   5.010   7.345  15.709 -0.6612  1.2030 -0.3496
    7DOPE   H6Y  868   5.174   7.351  15.803 -0.2663  0.3341  1.5689
    7DOPE   C37  869   5.105   7.532  15.725  0.0757 -0.7206  0.7122
    7DOPE   H7X  870   5.011   7.581  15.692  0.6489 -0.7419 -1.0996
    7DOPE   H7Y  871   5.161   7.590  15.802 -0.4647  1.6721 -0.6013
    7DOPE   C38  872   5.200   7.525  15.601  0.1985  0.4563 -0.5690
    7DOPE   H8X  873   5.165   7.448  15.529  2.2728  0.0794 -1.2351
    7DOPE   H8Y  874   5.291   7.482  15.647 -0.8054 -0.1796  0.9030
    7DOPE   C39  875   5.238   7.654  15.527 -0.3246  0.5224 -0.3176
    7DOPE   H9X  876   5.306   7.723  15.579  0.9137  0.0045 -1.1794
    7DOPE  C310  877   5.220   7.682  15.401  0.4891  0.1449  0.0727
    7DOPE  H10X  878   5.238   7.784  15.366 -1.4036  0.8409  0.9689
    7DOPE  C311  879   5.154   7.601  15.291 -0.4409  0.3862  0.3190
    7DOPE  H11X  880   5.232   7.547  15.234 -1.2130  0.4731 -0.8713
    7DOPE  H11Y  881   5.075   7.531  15.326 -1.5850  1.8775  0.8585
    7DOPE  C312  882   5.078   7.692  15.190 -0.0421 -0.1227  0.4551
    7DOPE  H12X  883   4.997   7.747  15.243  0.4212  0.9120  0.1174
    7DOPE  H12Y  884   5.016   7.626  15.125 -0.8024 -0.7185  1.7402
    7DOPE  C313  885   5.161   7.777  15.088  0.1743  0.3515 -0.2303
    7DOPE  H13X  886   5.253   7.822  15.131  0.8886 -0.8204 -0.4827
    7DOPE  H13Y  887   5.204   7.711  15.010 -1.1001  0.0788 -0.7188
    7DOPE  C314  888   5.081   7.886  15.014 -0.3156 -0.6779 -0.5803
    7DOPE  H14X  889   4.997   7.831  14.966  0.1081 -1.4672 -0.4460
    7DOPE  H14Y  890   5.135   7.933  14.930 -2.6766  1.1493 -1.1775
    7DOPE  C315  891   5.015   7.999  15.099  0.1502  0.0329 -0.6859
    7DOPE  H15X  892   5.082   8.068  15.154  0.3465  0.4923 -1.4840
    7DOPE  H15Y  893   4.956   7.942  15.174 -0.2796 -1.1865 -1.9061
    7DOPE  C316  894   4.913   8.089  15.023 -0.3391  0.3308  0.3495
    7DOPE  H16X  895   4.969   8.146  14.945  2.6180  0.0723  2.1330
    7DOPE  H16Y  896   4.876   8.152  15.106 -0.3076  1.3552 -0.3933
    7DOPE  C317  897   4.798   8.008  14.961  0.4169 -0.4849  0.3929
    7DOPE  H17X  898   4.834   7.933  14.886 -1.2824 -1.9825  1.0110
    7DOPE  H17Y  899   4.744   7.959  15.044 -1.9821 -0.2700 -0.9699
    7DOPE  C318  900   4.690   8.096  14.889 -0.3613  0.4626 -0.5533
    7DOPE  H18X  901   4.724   8.103  14.784 -0.5684  1.4437 -0.5661
    7DOPE  H18Y  902   4.592   8.044  14.885 -0.6590  0.8654  0.8411
    7DOPE  H18Z  903   4.685   8.189  14.951 -0.3519 -0.3458  0.6973
    8DOPE     N  904   5.336   6.193  17.054 -0.3582  0.6379 -0.4308
    8DOPE   HN1  905   5.362   6.130  16.975 -0.1797  0.2215 -0.0476
    8DOPE   HN2  906   5.325   6.133  17.139  0.1020  0.0273 -0.7906
    8DOPE   HN3  907   5.254   6.251  17.027 -2.4587 -0.3170  3.2572
    8DOPE   C12  908   5.437   6.304  17.067  0.5062 -0.1252 -0.2911
    8DOPE  H12A  909   5.524   6.247  17.105  1.2699  0.1325 -1.6208
    8DOPE  H12B  910   5.394   6.375  17.142  0.8455  0.0289 -0.2425
    8DOPE   C11  911   5.459   6.378  16.936 -0.4698 -0.8091 -0.3883
    8DOPE  H11A  912   5.524   6.466  16.957 -1.5419  0.3820 -1.7913
    8DOPE  H11B  913   5.364   6.428  16.905 -0.2560  1.5068  2.2476
    8DOPE     P  914   5.658   6.224  16.818 -0.0541 -0.2143  0.1575
    8DOPE   O13  915   5.663   6.130  16.933  0.0814  0.3780  0.7238
    8DOPE   O14  916   5.755   6.331  16.799 -0.0020  0.5711 -0.2277
    8DOPE   O11  917   5.632   6.142  16.689 -0.0570  0.2418 -0.2026
    8DOPE   O12  918   5.517   6.298  16.834  0.0502  0.3482  0.3553
    8DOPE    C1  919   5.514   6.145  16.610  0.0424  0.6142  0.3747
    8DOPE    HA  920   5.433   6.201  16.662  0.4780  2.7322 -1.0950
    8DOPE    HB  921   5.479   6.040  16.596 -0.3256  0.8877 -0.9130
    8DOPE    C2  922   5.522   6.205  16.469 -0.1976  0.3639 -0.0464
    8DOPE    HS  923   5.560   6.129  16.398  0.4465 -2.7978  3.3499
    8DOPE   O21  924   5.603   6.320  16.476 -0.2494  0.1442  0.0166
    8DOPE   C21  925   5.722   6.312  16.417 -0.5874  0.3935  0.6464
    8DOPE   O22  926   5.765   6.210  16.363  0.1636  0.1964  1.0047
    8DOPE   C22  927   5.792   6.448  16.411 -0.2704 -0.0125  0.4326
    8DOPE   H2R  928   5.885   6.431  16.470  0.1179  0.9373  0.1096
    8DOPE   H2S  929   5.733   6.529  16.459 -0.0836  0.2574  0.2048
    8DOPE    C3  930   5.379   6.234  16.418 -0.4965 -0.5319 -0.0938
    8DOPE    HX  931   5.356   6.320  16.484 -2.2509 -0.1125 -1.1817
    8DOPE    HY  932   5.301   6.156  16.433 -1.8523  0.2931 -2.4097
    8DOPE   O31  933   5.379   6.266  16.277  0.2724  0.4160 -0.1325
    8DOPE   C31  934   5.322   6.381  16.240  0.2916 -0.4261  0.6784
    8DOPE   O32  935   5.264   6.452  16.320  0.2586 -0.2463  0.1370
    8DOPE   C32  936   5.336   6.400  16.092  0.4868  0.2169  0.1664
    8DOPE   H2X  937   5.442   6.388  16.062  0.4963 -0.2977  0.3938
    8DOPE   H2Y  938   5.280   6.319  16.042  1.4513  0.0851 -0.7216
    8DOPE   C23  939   5.835   6.487  16.269 -0.0827 -0.6233 -1.0049
    8DOPE   H3R  940   5.885   6.403  16.216 -0.0436 -0.7321 -0.7952
    8DOPE   H3S  941   5.912   6.567  16.273  1.6771 -2.2317 -1.2215
    8DOPE   C24  942   5.717   6.535  16.177  0.4648 -0.1767  0.3520
    8DOPE   H4R  943   5.674   6.624  16.229  0.4387 -0.2625  0.4779
    8DOPE   H4S  944   5.636   6.459  16.167 -1.0284  1.5478 -1.5195
    8DOPE   C25  945   5.759   6.568  16.036  0.4711 -0.3799  0.3455
    8DOPE   H5R  946   5.828   6.490  15.997  0.0913  0.0055 -1.1451
    8DOPE   H5S  947   5.817   6.663  16.034  0.9952 -0.7009 -0.0915
    8DOPE   C26  948   5.637   6.597  15.944 -0.7506 -0.0538 -0.9539
    8DOPE   H6R  949   5.580   6.673  16.002  1.5742 -0.0564  1.5304
    8DOPE   H6S  950   5.583   6.500  15.937 -0.6363 -0.7698  4.2583
    8DOPE   C27  951   5.674   6.667  15.810 -0.3496 -0.2976  0.0071
    8DOPE   H7R  952   5.760   6.731  15.840 -0.0056 -0.6231 -0.2748
    8DOPE   H7S  953   5.597   6.738  15.772 -0.4569 -0.1024  0.5825
    8DOPE   C28  954   5.718   6.559  15.703 -0.1793 -0.0546  0.0265
    8DOPE   H8R  955   5.640   6.480  15.703 -0.1730 -0.2572  3.7061
    8DOPE   H8S  956   5.794   6.493  15.751 -0.7490 -1.3800 -0.8077
    8DOPE   C29  957   5.765   6.605  15.567 -0.3963  0.5480 -0.1664
    8DOPE   H9R  958   5.864   6.653  15.564 -0.6218  1.0546  0.4085
    8DOPE  C210  959   5.697   6.605  15.450  0.1678  0.2109 -0.0668
    8DOPE  H10R  960   5.741   6.645  15.357 -0.3599 -0.8469 -0.7811
    8DOPE  C211  961   5.556   6.559  15.438  1.1113  0.5928 -0.0563
    8DOPE  H11R  962   5.515   6.531  15.538 -0.1600 -2.1173 -1.2029
    8DOPE  H11S  963   5.564   6.465  15.378 -1.6390  1.2069 -1.5875
    8DOPE  C212  964   5.437   6.646  15.371 -0.2295 -0.3431  0.4995
    8DOPE  H12R  965   5.444   6.752  15.404 -0.7868 -0.3753  0.7156
    8DOPE  H12S  966   5.343   6.598  15.405 -0.6077  1.1659  1.6738
    8DOPE  C213  967   5.437   6.639  15.215 -0.1044 -0.7646  0.0554
    8DOPE  H13R  968   5.424   6.532  15.188  0.0229 -1.1383  1.3686
    8DOPE  H13S  969   5.535   6.672  15.173 -0.9139  1.0491 -0.4745
    8DOPE  C214  970   5.333   6.731  15.147  0.2127  0.6264 -0.5627
    8DOPE  H14R  971   5.343   6.753  15.039  2.0982 -0.5818 -0.6924
    8DOPE  H14S  972   5.335   6.825  15.206 -2.9342  1.2198 -1.2243
    8DOPE  C215  973   5.184   6.689  15.170  0.3647  0.6285 -0.4332
    8DOPE  H15R  974   5.118   6.775  15.147 -0.2140  0.6342  1.1297
    8DOPE  H15S  975   5.161   6.667  15.277 -0.2169 -0.1043 -0.7008
    8DOPE  C216  976   5.132   6.574  15.087 -0.5721  0.0203  0.4368
    8DOPE  H16R  977   5.211   6.498  15.104  1.1962  1.0676 -2.3806
    8DOPE  H16S  978   5.145   6.601  14.980 -0.6736  0.7129  0.5992
    8DOPE  C217  979   4.981   6.535  15.114  0.0914  0.3376 -0.1322
    8DOPE  H17R  980   4.943   6.475  15.028 -0.9415 -1.4913  1.5165
    8DOPE  H17S  981   4.935   6.636  15.110  0.5216  0.5095 -0.8840
    8DOPE  C218  982   4.954   6.456  15.242 -0.2232 -0.0349 -0.7334
    8DOPE  H18R  983   4.847   6.444  15.266  0.1540  0.6650  1.5800
    8DOPE  H18S  984   5.001   6.499  15.333 -0.8629 -1.6261  0.3757
    8DOPE  H18T  985   5.002   6.356  15.232 -3.4468 -1.7679  0.0343
    8DOPE   C33  986   5.293   6.538  16.036  0.0192 -0.1057  0.4757
    8DOPE   H3X  987   5.368   6.613  16.068  2.2227 -2.0030  0.0124
    8DOPE   H3Y  988   5.199   6.580  16.078  0.7622  2.0858  0.0814
    8DOPE   C34  989   5.283   6.549  15.881  0.2351  0.4759  0.0479
    8DOPE   H4X  990   5.254   6.650  15.845  1.7948  0.7519 -0.5078
    8DOPE   H4Y  991   5.386   6.538  15.842  1.1713 -0.9048  2.6652
    8DOPE   C35  992   5.183   6.444  15.818 -0.8603  0.0226 -0.1312
    8DOPE   H5X  993   5.083   6.462  15.864  0.2512  2.5912  1.4851
    8DOPE   H5Y  994   5.214   6.341  15.843 -0.3575  0.7991  2.8200
    8DOPE   C36  995   5.171   6.463  15.670 -0.4250 -0.7396 -0.1794
    8DOPE   H6X  996   5.266   6.436  15.618 -0.4898  1.2634 -1.4148
    8DOPE   H6Y  997   5.157   6.569  15.640 -1.7783 -1.5330 -2.7143
    8DOPE   C37  998   5.074   6.369  15.603 -0.1512  0.3007 -0.2315
    8DOPE   H7X  999   4.973   6.373  15.647  0.0492 -2.6717  0.6782
    8DOPE   H7Y 1000   5.067   6.408  15.499  0.4555  1.4825  0.1534
    8DOPE   C38 1001   5.115   6.220  15.599 -0.3298  1.0738  0.4378
    8DOPE   H8X 1002   5.115   6.182  15.704 -1.3048 -0.6574 -0.1495
    8DOPE   H8Y 1003   5.217   6.206  15.557 -0.4912  2.1925 -0.3644
    8DOPE   C39 1004   5.026   6.128  15.522  0.1579 -0.1596 -0.3319
    8DOPE   H9X 1005   5.058   6.113  15.418  0.4086  1.4826 -0.5288
    8DOPE  C310 1006   4.910   6.073  15.563 -0.6891  0.1788 -0.0280
    8DOPE  H10X 1007   4.860   6.019  15.482 -0.1331 -0.8705  0.3029
    8DOPE  C311 1008   4.838   6.085  15.693 -0.1725 -0.1970  0.0576
    8DOPE  H11X 1009   4.899   6.101  15.785 -0.0693 -1.4913  0.2234
    8DOPE  H11Y 1010   4.768   6.172  15.689  0.0868  0.1307  1.7690
    8DOPE  C312 1011   4.755   5.953  15.706  0.1758 -0.3334  0.6920
    8DOPE  H12X 1012   4.809   5.856  15.705 -0.0025 -0.4437 -0.5581
    8DOPE  H12Y 1013   4.697   5.939  15.612  1.8507 -0.7564 -0.3142
    8DOPE  C313 1014   4.659   5.961  15.831 -1.0570  0.9287 -0.1461
    8DOPE  H13X 1015   4.602   6.056  15.826  2.0423  3.1718  2.4465
    8DOPE  H13Y 1016   4.586   5.880  15.813 -0.1991 -0.3910  1.9439
    8DOPE  C314 1017   4.732   5.935  15.962  0.1970 -0.6664  0.3523
    8DOPE  H14X 1018   4.810   6.012  15.975 -1.6727  1.0077  2.5940
    8DOPE  H14Y 1019   4.767   5.830  15.959 -1.9729 -1.4543  0.5213
    8DOPE  C315 1020   4.639   5.946  16.080 -0.2091 -0.5114  0.2095
    8DOPE  H15X 1021   4.542   5.892  16.073  0.2319 -1.3109  0.1237
    8DOPE  H15Y 1022   4.616   6.055  16.086 -0.3052 -0.5352  0.2712
    8DOPE  C316 1023   4.700   5.904  16.219 -0.0569 -0.1756  0.6987
    8DOPE  H16X 1024   4.808   5.930  16.219 -0.2617  0.7267  1.0949
    8DOPE  H16Y 1025   4.689   5.793  16.217 -1.7147 -0.0597  1.7403
    8DOPE  C317 1026   4.617   5.957  16.332 -0.0069  0.7422  0.2769
    8DOPE  H17X 1027   4.673   5.926  16.423 -1.7369 -0.2838  1.0336
    8DOPE  H17Y 1028   4.617   6.067  16.316  1.5063  0.5799 -1.1119
    8DOPE  C318 1029   4.474   5.912  16.336 -0.3269 -0.4872 -0.1066
    8DOPE  H18X 1030   4.456   5.803  16.344  0.5739 -0.5660  0.9882
    8DOPE  H18Y 1031   4.425   5.940  16.240  1.7686  1.5909 -0.6573
    8DOPE  H18Z 1032   4.414   5.953  16.421  1.3630  0.5394  0.6322
    9DOPE     N 1033   1.240   5.040  17.091  0.7357 -0.8913  0.0294
    9DOPE   HN1 1034   1.162   5.069  17.029  0.8787  0.1889  0.3284
    9DOPE   HN2 1035   1.280   5.120  17.145 -0.5532  0.2436 -0.6360
    9DOPE   HN3 1036   1.323   5.008  17.038  1.2442  0.0692  0.2225
    9DOPE   C12 1037   1.176   4.940  17.185  0.1138 -0.2798  0.2283
    9DOPE  H12A 1038   1.231   4.932  17.281 -1.2207  0.4729  1.0837
    9DOPE  H12B 1039   1.182   4.839  17.139 -1.1059  0.7504 -2.4049
    9DOPE   C11 1040   1.035   4.985  17.213 -0.4810  0.7705 -0.4240
    9DOPE  H11A 1041   1.034   5.073  17.280 -1.1775  1.2523 -1.0480
    9DOPE  H11B 1042   0.992   4.899  17.268  1.3177 -0.1627 -0.3998
    9DOPE     P 1043   0.803   5.001  17.083  0.2781  0.5598 -0.1092
    9DOPE   O13 1044   0.744   5.133  17.118 -0.0356 -0.5451 -0.2217
    9DOPE   O14 1045   0.761   4.883  17.163  0.4307  0.2599 -0.2244
    9DOPE   O11 1046   0.777   4.957  16.935 -0.2982  0.1795  0.6950
    9DOPE   O12 1047   0.963   5.013  17.088  0.0928  0.3744  0.1679
    9DOPE    C1 1048   0.787   5.061  16.831 -0.3810 -0.6132 -0.4129
    9DOPE    HA 1049   0.854   5.014  16.756 -1.0483 -2.3251  0.0032
    9DOPE    HB 1050   0.837   5.154  16.865 -1.0689 -1.0239  1.8980
    9DOPE    C2 1051   0.650   5.090  16.766 -0.5066  0.1187  0.2401
    9DOPE    HS 1052   0.586   5.153  16.831 -0.9514  0.5347 -0.5853
    9DOPE   O21 1053   0.593   4.958  16.748 -0.1285  0.3755  0.1314
    9DOPE   C21 1054   0.468   4.960  16.691 -0.1502  0.0211 -0.1795
    9DOPE   O22 1055   0.400   5.060  16.682  0.1365 -0.6836 -0.4834
    9DOPE   C22 1056   0.433   4.824  16.632  0.0718 -0.3348 -0.3363
    9DOPE   H2R 1057   0.335   4.792  16.674 -0.5984  0.1994 -1.4439
    9DOPE   H2S 1058   0.511   4.749  16.658  1.1714  0.4339 -1.2953
    9DOPE    C3 1059   0.674   5.165  16.637 -0.0890 -0.2178  0.0746
    9DOPE    HX 1060   0.737   5.251  16.669  0.3896  0.6082 -2.8253
    9DOPE    HY 1061   0.576   5.200  16.598 -0.4034 -0.7978  0.3281
    9DOPE   O31 1062   0.736   5.081  16.537  0.2599  0.5492  0.1050
    9DOPE   C31 1063   0.848   5.129  16.493 -0.3245  0.0151 -0.4561
    9DOPE   O32 1064   0.914   5.223  16.537 -0.2448 -0.0018  0.1692
    9DOPE   C32 1065   0.902   5.054  16.365 -0.4943 -0.9023  0.1874
    9DOPE   H2X 1066   0.905   4.949  16.401 -1.9846 -0.1871  2.6312
    9DOPE   H2Y 1067   0.842   5.081  16.276 -0.9186 -0.1081  0.6978
    9DOPE   C23 1068   0.410   4.824  16.485  0.6187 -0.4246 -0.2447
    9DOPE   H3R 1069   0.355   4.918  16.461 -0.3205 -1.3313 -1.8840
    9DOPE   H3S 1070   0.347   4.744  16.441  0.0196 -0.1904  0.1608
    9DOPE   C24 1071   0.537   4.816  16.403  0.3279  0.2671 -0.2275
    9DOPE   H4R 1072   0.590   4.721  16.427 -3.4917 -2.0262 -0.0196
    9DOPE   H4S 1073   0.599   4.901  16.439 -0.1749  0.6969 -0.3651
    9DOPE   C25 1074   0.514   4.826  16.253 -0.0111 -0.3976 -0.3461
    9DOPE   H5R 1075   0.470   4.925  16.228 -2.0818 -1.0458  0.5491
    9DOPE   H5S 1076   0.444   4.751  16.211  2.3760 -1.3653 -2.9303
    9DOPE   C26 1077   0.645   4.814  16.174 -0.7113  0.1980  0.3123
    9DOPE   H6R 1078   0.718   4.883  16.221  0.1517 -0.2808 -0.3071
    9DOPE   H6S 1079   0.625   4.837  16.067 -2.0719 -1.8387  0.0867
    9DOPE   C27 1080   0.701   4.670  16.167 -0.1418 -0.2383 -0.2060
    9DOPE   H7R 1081   0.627   4.601  16.121  0.7076 -1.7603  0.6268
    9DOPE   H7S 1082   0.716   4.635  16.271 -0.9162  1.2148  0.4150
    9DOPE   C28 1083   0.836   4.674  16.086  0.4408 -0.3491  0.1274
    9DOPE   H8R 1084   0.906   4.735  16.147 -2.3629  4.5932 -1.0560
    9DOPE   H8S 1085   0.830   4.715  15.983 -0.7053 -0.6651  0.0513
    9DOPE   C29 1086   0.866   4.527  16.080  0.2628 -0.1533 -0.2728
    9DOPE   H9R 1087   0.781   4.460  16.063 -0.3182  0.2388  0.9549
    9DOPE  C210 1088   0.990   4.469  16.093  0.8894 -0.0387  0.3565
    9DOPE  H10R 1089   0.992   4.364  16.059 -1.9948 -0.7658  2.1199
    9DOPE  C211 1090   1.131   4.517  16.120 -0.2533 -0.3460 -0.1121
    9DOPE  H11R 1091   1.196   4.439  16.167 -0.7778 -0.6306  0.1540
    9DOPE  H11S 1092   1.137   4.606  16.186  0.4381 -1.3746  1.2754
    9DOPE  C212 1093   1.178   4.576  15.989 -0.2788  0.3930  0.4611
    9DOPE  H12R 1094   1.272   4.633  15.999 -0.3778  0.7726 -0.5617
    9DOPE  H12S 1095   1.110   4.654  15.948 -1.4696  0.1376  1.8971
    9DOPE  C213 1096   1.190   4.474  15.866 -0.4928  0.2663  0.0875
    9DOPE  H13R 1097   1.220   4.541  15.783 -1.2941 -0.8176 -1.1036
    9DOPE  H13S 1098   1.104   4.405  15.858 -0.1614  0.0236 -1.6553
    9DOPE  C214 1099   1.320   4.385  15.885 -0.4912  0.2230 -0.3860
    9DOPE  H14R 1100   1.324   4.325  15.979  0.4424 -0.8638 -1.0873
    9DOPE  H14S 1101   1.411   4.450  15.888 -1.5788  1.7707  0.0657
    9DOPE  C215 1102   1.337   4.276  15.779 -0.0714  0.1579  0.9650
    9DOPE  H15R 1103   1.254   4.202  15.790  1.2794 -1.6402 -0.3967
    9DOPE  H15S 1104   1.424   4.212  15.802 -0.1319  0.2127  1.3516
    9DOPE  C216 1105   1.354   4.330  15.637  0.1195  1.2427 -0.2890
    9DOPE  H16R 1106   1.451   4.383  15.641  0.6114  0.2984  1.1560
    9DOPE  H16S 1107   1.275   4.408  15.628  0.7561  2.3550  2.5112
    9DOPE  C217 1108   1.346   4.221  15.527 -0.1878  0.2065  0.7560
    9DOPE  H17R 1109   1.309   4.253  15.428  0.8817 -3.1001 -0.8620
    9DOPE  H17S 1110   1.269   4.148  15.560  1.1432 -1.6912 -0.1235
    9DOPE  C218 1111   1.470   4.143  15.505  0.6482  0.4626  0.6615
    9DOPE  H18R 1112   1.453   4.050  15.447 -0.4527 -0.2913  2.1231
    9DOPE  H18S 1113   1.514   4.113  15.603  0.4665 -0.9299  0.3311
    9DOPE  H18T 1114   1.546   4.204  15.452  0.8352  0.3801  0.8324
    9DOPE   C33 1115   1.048   5.082  16.332  0.5866  0.3544  0.0433
    9DOPE   H3X 1116   1.113   5.049  16.416  0.0762 -0.1712  0.2296
    9DOPE   H3Y 1117   1.073   5.190  16.326  1.2540  0.2162  0.2564
    9DOPE   C34 1118   1.101   5.004  16.209  0.3245 -0.3040 -0.3767
    9DOPE   H4X 1119   1.209   5.027  16.195  0.6342 -2.0998 -1.3647
    9DOPE   H4Y 1120   1.096   4.897  16.238  0.6974 -0.7332 -1.7765
    9DOPE   C35 1121   1.035   5.045  16.075  0.1076  0.4113  0.4057
    9DOPE   H5X 1122   1.020   5.155  16.075 -0.6938  0.3165  1.0065
    9DOPE   H5Y 1123   0.937   4.991  16.071  0.7359 -0.7431  0.0867
    9DOPE   C36 1124   1.126   5.006  15.955 -0.1479  0.2816  0.2206
    9DOPE   H6X 1125   1.146   4.897  15.959  0.8089  0.4910  2.4834
    9DOPE   H6Y 1126   1.225   5.055  15.970 -1.0091  1.8613  1.0317
    9DOPE   C37 1127   1.064   5.029  15.814  0.3422 -0.0864 -0.0921
    9DOPE   H7X 1128   1.043   5.138  15.806 -1.7295 -0.3870  0.6407
    9DOPE   H7Y 1129   1.146   5.004  15.744 -0.6504 -3.0445 -0.3063
    9DOPE   C38 1130   0.931   4.949  15.787  0.1953  0.1736  0.1685
    9DOPE   H8X 1131   0.856   4.987  15.860 -1.0079 -0.6043 -0.6296
    9DOPE   H8Y 1132   0.944   4.842  15.815 -0.5254  0.2008  0.6443
    9DOPE   C39 1133   0.882   4.967  15.646 -0.5486  0.2995 -0.0644
    9DOPE   H9X 1134   0.845   5.068  15.623 -1.9675 -0.4247 -1.0823
    9DOPE  C310 1135   0.870   4.877  15.552  0.1287 -0.0669 -0.5553
    9DOPE  H10X 1136   0.822   4.906  15.457 -0.4593 -0.8909 -0.5285
    9DOPE  C311 1137   0.897   4.727  15.560 -0.6789  0.1751 -0.0876
    9DOPE  H11X 1138   0.938   4.691  15.657  0.4971  1.8236  0.0761
    9DOPE  H11Y 1139   0.806   4.671  15.528  0.0473 -1.0850 -0.0026
    9DOPE  C312 1140   1.019   4.691  15.461  0.0555  0.5079 -0.6428
    9DOPE  H12X 1141   1.044   4.585  15.482 -1.0372  0.7007  2.0952
    9DOPE  H12Y 1142   1.108   4.755  15.479 -0.1481  0.6076  0.0834
    9DOPE  C313 1143   0.984   4.713  15.317  0.1115  0.2229 -0.1538
    9DOPE  H13X 1144   0.904   4.638  15.301  1.1434 -0.5752 -1.7620
    9DOPE  H13Y 1145   0.945   4.816  15.301  1.7233  0.7278 -1.0264
    9DOPE  C314 1146   1.103   4.687  15.222 -0.0583  0.3904 -0.3757
    9DOPE  H14X 1147   1.151   4.594  15.260 -1.5100  0.0174  0.6341
    9DOPE  H14Y 1148   1.176   4.770  15.230 -0.7172  1.0772 -1.3599
    9DOPE  C315 1149   1.051   4.650  15.081  0.2149  0.1019 -0.1453
    9DOPE  H15X 1150   0.983   4.565  15.104 -0.1691 -0.0692 -1.8173
    9DOPE  H15Y 1151   1.130   4.613  15.013 -0.1060 -1.1823  0.1518
    9DOPE  C316 1152   0.968   4.761  15.006  0.0653 -0.0188  0.1708
    9DOPE  H16X 1153   1.035   4.850  15.010 -0.2600  0.2023  1.1547
    9DOPE  H16Y 1154   0.882   4.791  15.070  3.3680  2.9999  3.6947
    9DOPE  C317 1155   0.932   4.718  14.868 -0.4127  0.3685 -0.8433
    9DOPE  H17X 1156   1.019   4.681  14.811  0.6343 -0.2346  1.0348
    9DOPE  H17Y 1157   0.864   4.631  14.873  0.1659 -0.0385  0.4373
    9DOPE  C318 1158   0.863   4.835  14.787 -0.6765 -0.0595 -0.2273
    9DOPE  H18X 1159   0.903   4.844  14.683 -0.8723 -1.1530 -0.4070
    9DOPE  H18Y 1160   0.752   4.831  14.781 -0.7566  1.4564 -0.2013
    9DOPE  H18Z 1161   0.898   4.930  14.832  4.3096 -0.3335 -2.8241
   10DOPE     N 1162   1.406   6.238  17.461  0.0525  0.7818  0.0274
   10DOPE   HN1 1163   1.503   6.246  17.422  0.2363 -1.0226  0.0190
   10DOPE   HN2 1164   1.411   6.275  17.558  0.9091 -0.5361  0.5202
   10DOPE   HN3 1165   1.384   6.139  17.482  1.9518  0.3712  0.2673
   10DOPE   C12 1166   1.307   6.302  17.366  0.4510  0.4094 -1.0984
   10DOPE  H12A 1167   1.362   6.384  17.315 -1.0175  3.1692  1.3908
   10DOPE  H12B 1168   1.229   6.351  17.429 -0.1186 -0.0795 -1.4156
   10DOPE   C11 1169   1.251   6.207  17.255 -0.6769 -0.0481 -0.3574
   10DOPE  H11A 1170   1.187   6.269  17.188 -2.3309  0.7616  1.8519
   10DOPE  H11B 1171   1.180   6.131  17.294 -2.4369  1.6264 -0.1406
   10DOPE     P 1172   1.422   6.188  17.053 -0.2388  0.0199 -0.5542
   10DOPE   O13 1173   1.460   6.075  16.971 -0.1701 -0.1146 -0.1406
   10DOPE   O14 1174   1.532   6.286  17.087 -0.1612 -0.5059 -0.1159
   10DOPE   O11 1175   1.306   6.272  16.984  0.2503 -0.5911 -0.2821
   10DOPE   O12 1176   1.358   6.138  17.193  0.6374 -0.2952  0.2147
   10DOPE    C1 1177   1.216   6.220  16.885  0.2504 -0.0930  0.4265
   10DOPE    HA 1178   1.122   6.198  16.939 -1.2244 -0.4100 -2.0837
   10DOPE    HB 1179   1.257   6.131  16.833  0.8186 -0.5291  1.5941
   10DOPE    C2 1180   1.168   6.325  16.789  0.2078 -0.0530 -0.1582
   10DOPE    HS 1181   1.074   6.296  16.738 -1.4408 -2.5186  3.8467
   10DOPE   O21 1182   1.267   6.354  16.694  0.4965 -0.2774  0.2735
   10DOPE   C21 1183   1.293   6.253  16.611  0.1503 -0.4024  0.4899
   10DOPE   O22 1184   1.224   6.154  16.611 -0.6342  0.3274  0.5767
   10DOPE   C22 1185   1.406   6.282  16.511 -0.1217 -0.8690  0.0494
   10DOPE   H2R 1186   1.490   6.299  16.582 -0.3738 -1.9897  0.6392
   10DOPE   H2S 1187   1.378   6.376  16.459 -3.6412 -0.5461  2.2288
   10DOPE    C3 1188   1.127   6.456  16.864  0.0298 -0.1054  0.4021
   10DOPE    HX 1189   1.220   6.505  16.897 -1.9948  3.1161  1.7279
   10DOPE    HY 1190   1.060   6.432  16.949  1.4531  0.3071  1.6744
   10DOPE   O31 1191   1.065   6.558  16.778  0.0514 -0.4280 -0.5795
   10DOPE   C31 1192   0.940   6.529  16.734  0.3145 -0.1686 -0.1006
   10DOPE   O32 1193   0.882   6.425  16.756  0.1693  0.0050  0.3693
   10DOPE   C32 1194   0.885   6.648  16.650 -0.4734 -0.0767  0.4466
   10DOPE   H2X 1195   0.835   6.732  16.703 -1.9976  1.4301 -3.0757
   10DOPE   H2Y 1196   0.981   6.684  16.606  0.9121 -1.2147  2.3898
   10DOPE   C23 1197   1.434   6.162  16.418  0.0318 -0.4251 -0.5433
   10DOPE   H3R 1198   1.471   6.079  16.481  0.5941  0.6160  0.5488
   10DOPE   H3S 1199   1.525   6.198  16.365  1.6327 -0.9689  1.6626
   10DOPE   C24 1200   1.340   6.124  16.309  0.0058  0.8861  0.2578
   10DOPE   H4R 1201   1.301   6.222  16.273  0.6354  0.7336 -0.9023
   10DOPE   H4S 1202   1.260   6.065  16.356  0.1534  0.2499 -0.2657
   10DOPE   C25 1203   1.382   6.029  16.196 -0.6961  0.6164 -0.1267
   10DOPE   H5R 1204   1.291   6.002  16.139 -2.5888  1.3278  2.3601
   10DOPE   H5S 1205   1.403   5.930  16.240  0.5897  0.5284 -0.8687
   10DOPE   C26 1206   1.496   6.087  16.109 -0.2663 -0.0230  0.4568
   10DOPE   H6R 1207   1.584   6.097  16.176 -0.3560 -2.9952  1.1621
   10DOPE   H6S 1208   1.455   6.187  16.083  0.5137  0.1344 -0.1698
   10DOPE   C27 1209   1.522   6.002  15.977 -0.2991 -0.0417 -0.3819
   10DOPE   H7R 1210   1.418   5.992  15.938  0.2604 -3.0324 -1.3309
   10DOPE   H7S 1211   1.537   5.895  16.002  0.3874  0.2927  0.7054
   10DOPE   C28 1212   1.615   6.056  15.876  0.3934 -0.3907  0.3317
   10DOPE   H8R 1213   1.595   6.022  15.773  0.3245  1.2131 -0.2113
   10DOPE   H8S 1214   1.717   6.020  15.904 -0.0144 -0.5900  1.6179
   10DOPE   C29 1215   1.621   6.207  15.859 -0.5163  0.1819 -0.6437
   10DOPE   H9R 1216   1.544   6.272  15.905  0.6443  0.8315  0.4730
   10DOPE  C210 1217   1.712   6.277  15.786 -0.1052  0.1236 -0.2105
   10DOPE  H10R 1218   1.691   6.383  15.767 -1.6718  0.0598  0.9437
   10DOPE  C211 1219   1.833   6.218  15.712  0.2260 -0.2580 -0.5363
   10DOPE  H11R 1220   1.828   6.232  15.602 -3.6096  0.6547 -0.3692
   10DOPE  H11S 1221   1.847   6.108  15.717 -1.4762 -0.6513 -2.8083
   10DOPE  C212 1222   1.964   6.281  15.767 -0.1251 -0.3579 -0.2280
   10DOPE  H12R 1223   1.969   6.239  15.870 -1.3488 -1.0549 -0.4390
   10DOPE  H12S 1224   1.952   6.391  15.775  0.7682 -0.3496  1.2868
   10DOPE  C213 1225   2.090   6.254  15.688 -0.7056  0.4114 -0.1737
   10DOPE  H13R 1226   2.133   6.151  15.687  2.4387  1.5404 -2.9950
   10DOPE  H13S 1227   2.176   6.310  15.731 -0.7064  1.4511 -1.4428
   10DOPE  C214 1228   2.092   6.313  15.545  0.5835 -0.1640 -0.0238
   10DOPE  H14R 1229   2.045   6.412  15.565  1.9038  0.4824  0.0134
   10DOPE  H14S 1230   2.017   6.268  15.477  0.1375  0.2492  0.1822
   10DOPE  C215 1231   2.234   6.336  15.475  0.3581 -1.0478 -0.1648
   10DOPE  H15R 1232   2.308   6.394  15.535  1.4371 -0.5770 -1.8871
   10DOPE  H15S 1233   2.222   6.407  15.390 -3.6065 -0.4477  0.6909
   10DOPE  C216 1234   2.302   6.207  15.418  0.1062  0.0988 -0.7255
   10DOPE  H16R 1235   2.232   6.168  15.340 -0.3046 -0.4768 -0.0819
   10DOPE  H16S 1236   2.330   6.127  15.490  0.4592  2.0832  1.4336
   10DOPE  C217 1237   2.432   6.231  15.345 -0.3309 -0.0146 -0.3588
   10DOPE  H17R 1238   2.517   6.236  15.416 -0.7450  0.0535  0.1377
   10DOPE  H17S 1239   2.432   6.332  15.297 -3.1925 -0.6695 -1.9617
   10DOPE  C218 1240   2.458   6.133  15.232 -0.2357  0.0602  0.6762
   10DOPE  H18R 1241   2.547   6.172  15.179 -1.3489  0.9255 -0.6344
   10DOPE  H18S 1242   2.386   6.139  15.148 -1.9744  3.8973  2.2025
   10DOPE  H18T 1243   2.484   6.030  15.264  1.7707  0.8675  1.8177
   10DOPE   C33 1244   0.785   6.600  16.543 -0.2986  0.0252 -0.3884
   10DOPE   H3X 1245   0.754   6.688  16.482  0.0030  1.2664  1.1986
   10DOPE   H3Y 1246   0.702   6.554  16.600  0.7273 -2.1743 -0.5575
   10DOPE   C34 1247   0.839   6.490  16.446  0.3127  0.5799  0.1605
   10DOPE   H4X 1248   0.934   6.530  16.405  1.0453  0.4284  1.6579
   10DOPE   H4Y 1249   0.847   6.394  16.502 -3.7740 -0.0781 -0.0689
   10DOPE   C35 1250   0.742   6.468  16.333  0.6222 -0.0667  0.2968
   10DOPE   H5X 1251   0.709   6.567  16.295 -0.5194 -0.2896  0.6782
   10DOPE   H5Y 1252   0.658   6.414  16.382  1.1887 -0.9004  0.3618
   10DOPE   C36 1253   0.801   6.390  16.216 -0.1242 -0.0910 -0.3859
   10DOPE   H6X 1254   0.825   6.292  16.263  1.6646  0.7986  0.6631
   10DOPE   H6Y 1255   0.898   6.424  16.175 -0.8783 -0.4473 -2.5900
   10DOPE   C37 1256   0.713   6.379  16.092  0.6474 -0.3998  0.1617
   10DOPE   H7X 1257   0.747   6.298  16.023  0.6164 -1.2123  1.0681
   10DOPE   H7Y 1258   0.610   6.358  16.127  0.8759 -1.5619  0.1799
   10DOPE   C38 1259   0.695   6.506  16.018  0.5997  0.5066 -0.5369
   10DOPE   H8X 1260   0.649   6.577  16.089  0.8419  0.7034 -0.5742
   10DOPE   H8Y 1261   0.614   6.482  15.946  0.6350 -1.7577  0.0974
   10DOPE   C39 1262   0.821   6.550  15.942  0.1980  0.4100 -0.5797
   10DOPE   H9X 1263   0.911   6.570  16.002  1.0252  1.3066 -2.0674
   10DOPE  C310 1264   0.820   6.562  15.810 -0.3159  0.4292 -0.2342
   10DOPE  H10X 1265   0.918   6.587  15.768 -0.2783  2.0864  0.7396
   10DOPE  C311 1266   0.715   6.543  15.702  0.0142 -0.2726 -0.5795
   10DOPE  H11X 1267   0.700   6.435  15.684 -0.1783 -0.0352 -1.9696
   10DOPE  H11Y 1268   0.616   6.583  15.735  1.7001  2.5286  1.5876
   10DOPE  C312 1269   0.749   6.629  15.575 -1.0162  0.1111 -0.1915
   10DOPE  H12X 1270   0.776   6.732  15.604 -0.7857 -0.2258  0.8727
   10DOPE  H12Y 1271   0.658   6.635  15.511 -0.7149 -1.4213 -0.8083
   10DOPE  C313 1272   0.855   6.561  15.491  0.5369  1.0466 -0.5667
   10DOPE  H13X 1273   0.942   6.552  15.559 -0.6381  0.8584  0.9594
   10DOPE  H13Y 1274   0.828   6.455  15.472  1.1419  0.8948 -0.6121
   10DOPE  C314 1275   0.906   6.635  15.361 -0.5371  0.5496  0.0904
   10DOPE  H14X 1276   0.945   6.734  15.394 -0.7626 -0.1489  2.6530
   10DOPE  H14Y 1277   0.821   6.652  15.291 -0.7570 -1.6173 -0.2298
   10DOPE  C315 1278   1.011   6.554  15.286 -0.1029  0.3775  0.8578
   10DOPE  H15X 1279   0.961   6.471  15.231  2.0696  0.4308 -1.4316
   10DOPE  H15Y 1280   1.093   6.514  15.350  2.4554  1.3286 -1.5760
   10DOPE  C316 1281   1.101   6.623  15.178 -0.1017 -0.3873  0.1344
   10DOPE  H16X 1282   1.145   6.710  15.231  0.1912 -0.6503  0.3245
   10DOPE  H16Y 1283   1.032   6.660  15.099  0.3518  0.5393  0.1468
   10DOPE  C317 1284   1.223   6.553  15.106  0.1773 -0.4685  0.3421
   10DOPE  H17X 1285   1.184   6.488  15.025  2.2078 -2.7599  1.0945
   10DOPE  H17Y 1286   1.278   6.628  15.044 -3.4840  1.2262 -1.1983
   10DOPE  C318 1287   1.320   6.463  15.185 -0.3007  0.3915  0.2453
   10DOPE  H18X 1288   1.403   6.429  15.120  0.2967 -2.4524  2.2932
   10DOPE  H18Y 1289   1.353   6.525  15.271 -1.5756  1.2923  0.1145
   10DOPE  H18Z 1290   1.272   6.369  15.221  0.7236 -0.2211  0.0632
   11DOPE     N 1291   1.327   3.542  16.936  0.3717  0.2712  0.0074
   11DOPE   HN1 1292   1.270   3.495  17.009  0.2507  0.4458  0.0258
   11DOPE   HN2 1293   1.419   3.557  16.982  0.7493 -0.0989 -0.6122
   11DOPE   HN3 1294   1.290   3.639  16.922  1.0953  0.8209  1.6314
   11DOPE   C12 1295   1.354   3.463  16.813  0.2095 -0.5543  0.2482
   11DOPE  H12A 1296   1.384   3.359  16.840 -2.4255 -2.3667 -2.9960
   11DOPE  H12B 1297   1.433   3.514  16.754 -1.0498  0.8268 -0.2963
   11DOPE   C11 1298   1.232   3.464  16.719  0.0985  0.1389 -0.5104
   11DOPE  H11A 1299   1.252   3.405  16.627  0.3657  1.0495 -1.0455
   11DOPE  H11B 1300   1.212   3.568  16.685 -0.3071  0.4602  0.6679
   11DOPE     P 1301   1.066   3.287  16.807 -0.5577  0.2497 -0.1012
   11DOPE   O13 1302   0.932   3.290  16.867 -0.3877 -0.1595  0.1500
   11DOPE   O14 1303   1.170   3.197  16.863 -0.0864  0.1986  0.5553
   11DOPE   O11 1304   1.041   3.242  16.660  0.5951 -0.3939 -0.2971
   11DOPE   O12 1305   1.110   3.440  16.794  0.0492 -0.0522 -0.1025
   11DOPE    C1 1306   0.989   3.108  16.625  0.6949  0.0717  0.0627
   11DOPE    HA 1307   0.878   3.111  16.621  0.7286  1.1780 -0.4970
   11DOPE    HB 1308   1.018   3.026  16.694  0.0440  0.7753  1.2223
   11DOPE    C2 1309   1.034   3.064  16.487  1.0705  0.3858  0.2365
   11DOPE    HS 1310   1.015   2.955  16.473 -1.2513  0.7348  0.4336
   11DOPE   O21 1311   1.172   3.095  16.473  0.0998 -0.2832 -0.3860
   11DOPE   C21 1312   1.264   3.014  16.524  0.5077 -0.1301  0.3462
   11DOPE   O22 1313   1.237   2.907  16.570 -0.0269 -0.1750  0.3337
   11DOPE   C22 1314   1.394   3.082  16.536 -0.2727 -0.1479  0.2298
   11DOPE   H2R 1315   1.363   3.145  16.623 -1.8226 -1.1973  0.4856
   11DOPE   H2S 1316   1.423   3.144  16.449  0.2095 -1.0711 -0.2757
   11DOPE    C3 1317   0.971   3.149  16.374 -0.6779  0.4996 -0.6580
   11DOPE    HX 1318   0.999   3.255  16.393 -0.5834  0.3156  0.3191
   11DOPE    HY 1319   0.860   3.146  16.368 -0.7984  0.2999  1.1401
   11DOPE   O31 1320   1.029   3.119  16.247 -0.3273  0.0016 -0.1605
   11DOPE   C31 1321   0.973   3.019  16.181  0.5427 -0.5497 -0.0261
   11DOPE   O32 1322   0.881   2.953  16.229 -0.1221  0.3941  0.0009
   11DOPE   C32 1323   1.046   3.002  16.044  0.2646  0.6087  0.0198
   11DOPE   H2X 1324   1.013   3.088  15.982 -2.1844  0.1074  0.4913
   11DOPE   H2Y 1325   1.155   3.006  16.061  0.6457  0.2535 -2.0930
   11DOPE   C23 1326   1.504   2.977  16.573 -0.6850 -0.0097 -0.0952
   11DOPE   H3R 1327   1.456   2.898  16.636  0.0240  0.5459  1.1802
   11DOPE   H3S 1328   1.577   3.030  16.638  0.4625 -1.8022  0.1682
   11DOPE   C24 1329   1.590   2.932  16.455 -0.1444  0.3023  0.4595
   11DOPE   H4R 1330   1.674   2.870  16.492 -0.0936  0.6828  0.9929
   11DOPE   H4S 1331   1.631   3.016  16.394 -1.2956  1.2659  0.9766
   11DOPE   C25 1332   1.517   2.841  16.351  0.2053 -0.1401 -0.1112
   11DOPE   H5R 1333   1.410   2.871  16.343  0.7332  1.6542 -0.7715
   11DOPE   H5S 1334   1.511   2.732  16.371  2.5793 -0.7398 -2.2148
   11DOPE   C26 1335   1.590   2.842  16.214 -0.3556  0.1717 -0.2161
   11DOPE   H6R 1336   1.629   2.943  16.189 -1.2038  0.7179  0.5881
   11DOPE   H6S 1337   1.522   2.797  16.139 -0.9606  0.7203 -0.0099
   11DOPE   C27 1338   1.713   2.741  16.224  0.2076  0.3115 -0.5739
   11DOPE   H7R 1339   1.680   2.637  16.245  0.0126  0.3157 -0.8607
   11DOPE   H7S 1340   1.778   2.759  16.312  2.5154 -0.1788 -2.0624
   11DOPE   C28 1341   1.802   2.751  16.104 -0.0849 -0.3723  0.0795
   11DOPE   H8R 1342   1.908   2.728  16.127 -0.5477 -0.9225  1.8312
   11DOPE   H8S 1343   1.796   2.852  16.058  0.7669 -0.6309 -0.6111
   11DOPE   C29 1344   1.761   2.651  15.994  0.4240  0.2369  0.5135
   11DOPE   H9R 1345   1.804   2.551  16.006 -1.1098 -0.4670  0.3805
   11DOPE  C210 1346   1.675   2.671  15.890  0.0889  0.1956  0.9786
   11DOPE  H10R 1347   1.655   2.584  15.825  2.4331 -1.1418  1.8998
   11DOPE  C211 1348   1.600   2.800  15.857  0.5759 -0.3461  0.1693
   11DOPE  H11R 1349   1.615   2.882  15.930  0.0130  0.0200 -0.1278
   11DOPE  H11S 1350   1.494   2.772  15.869  0.4940 -0.8505 -1.4661
   11DOPE  C212 1351   1.605   2.863  15.711  0.1294 -0.3095 -0.4890
   11DOPE  H12R 1352   1.709   2.901  15.702 -0.4875  1.7452  0.3829
   11DOPE  H12S 1353   1.534   2.949  15.709 -0.4285 -0.7822 -1.6900
   11DOPE  C213 1354   1.569   2.772  15.597  0.6268  0.2850  0.4367
   11DOPE  H13R 1355   1.460   2.768  15.577  0.5618 -1.0963  0.9298
   11DOPE  H13S 1356   1.610   2.669  15.610  1.3066  0.2140 -1.7900
   11DOPE  C214 1357   1.624   2.818  15.462 -0.4846  0.2901 -0.0539
   11DOPE  H14R 1358   1.631   2.736  15.387  0.6856 -0.5290  0.8999
   11DOPE  H14S 1359   1.730   2.851  15.458 -0.4738  0.1152 -2.1422
   11DOPE  C215 1360   1.529   2.921  15.406 -0.4670  0.0560 -0.3847
   11DOPE  H15R 1361   1.535   3.017  15.460  1.2629 -0.2429 -0.0125
   11DOPE  H15S 1362   1.423   2.890  15.424 -0.6090  0.2856 -0.8098
   11DOPE  C216 1363   1.547   2.944  15.251 -0.5397 -0.2942 -0.3009
   11DOPE  H16R 1364   1.570   2.845  15.207  1.9374  0.7595 -1.6116
   11DOPE  H16S 1365   1.647   2.993  15.241 -1.2682  1.9029  1.9759
   11DOPE  C217 1366   1.432   3.017  15.194 -0.1024 -0.3939 -0.1913
   11DOPE  H17R 1367   1.425   3.111  15.252 -0.8773  0.6539 -1.9081
   11DOPE  H17S 1368   1.331   2.972  15.194 -1.0478  1.5175  1.8891
   11DOPE  C218 1369   1.466   3.055  15.053 -0.2946 -0.5821 -0.2258
   11DOPE  H18R 1370   1.384   3.108  14.999 -0.6136  1.6994  2.2960
   11DOPE  H18S 1371   1.479   2.958  15.001  0.5080 -0.4306 -0.3295
   11DOPE  H18T 1372   1.561   3.112  15.046 -0.6193 -0.2068 -2.4141
   11DOPE   C33 1373   1.008   2.870  15.976 -0.0526 -0.0774 -0.2275
   11DOPE   H3X 1374   0.898   2.870  15.964 -0.2065 -0.3256  1.1101
   11DOPE   H3Y 1375   1.030   2.790  16.050  0.7037  0.8759  0.6127
   11DOPE   C34 1376   1.091   2.843  15.854  0.2584  0.1188  0.6888
   11DOPE   H4X 1377   1.084   2.923  15.777  3.5311 -0.5744 -0.5148
   11DOPE   H4Y 1378   1.196   2.844  15.889  0.6301 -0.7403 -0.3440
   11DOPE   C35 1379   1.051   2.713  15.781  0.5104  0.3320 -0.2052
   11DOPE   H5X 1380   0.940   2.701  15.775  0.4191  1.2482 -0.4938
   11DOPE   H5Y 1381   1.086   2.628  15.843 -0.0621  0.3080  0.0987
   11DOPE   C36 1382   1.119   2.694  15.636  0.1916 -0.0405 -0.2062
   11DOPE   H6X 1383   1.226   2.714  15.655  0.1967 -1.1690  1.0518
   11DOPE   H6Y 1384   1.070   2.760  15.561  0.1805  0.0088 -0.1563
   11DOPE   C37 1385   1.120   2.551  15.576  0.4727  0.6597 -0.3162
   11DOPE   H7X 1386   1.139   2.485  15.663 -1.9396 -0.1420 -0.3117
   11DOPE   H7Y 1387   1.018   2.528  15.538  0.5013  0.5563 -0.3286
   11DOPE   C38 1388   1.221   2.550  15.460 -0.6422 -0.4213 -0.0459
   11DOPE   H8X 1389   1.316   2.607  15.467  0.0515 -1.2208 -2.0229
   11DOPE   H8Y 1390   1.171   2.603  15.376  0.4928 -2.0088 -1.7997
   11DOPE   C39 1391   1.252   2.408  15.420  0.3326  0.3638 -0.2174
   11DOPE   H9X 1392   1.299   2.344  15.495 -1.0936  0.6839  0.9896
   11DOPE  C310 1393   1.207   2.352  15.307  0.1990  0.7019 -0.1581
   11DOPE  H10X 1394   1.232   2.248  15.281  0.2454  1.1834 -2.1541
   11DOPE  C311 1395   1.129   2.415  15.193  0.7346  0.2463 -0.5402
   11DOPE  H11X 1396   1.056   2.340  15.155  0.5685  0.3916 -0.5090
   11DOPE  H11Y 1397   1.060   2.492  15.230 -0.5456 -0.5431 -1.1941
   11DOPE  C312 1398   1.200   2.473  15.074 -0.1640 -0.2901  0.8053
   11DOPE  H12X 1399   1.135   2.492  14.986  0.2072  0.2632  0.6493
   11DOPE  H12Y 1400   1.267   2.398  15.025 -0.0799  0.5566 -0.4214
   11DOPE  C313 1401   1.277   2.607  15.100 -0.2559 -0.2133 -0.2860
   11DOPE  H13X 1402   1.202   2.688  15.111 -0.3898 -0.4378  0.6178
   11DOPE  H13Y 1403   1.316   2.595  15.204 -1.2981  0.4260  0.2027
   11DOPE  C314 1404   1.373   2.654  14.996  0.4631  0.5718 -0.4235
   11DOPE  H14X 1405   1.443   2.574  14.964 -0.6447 -0.6711  0.1706
   11DOPE  H14Y 1406   1.436   2.739  15.029 -0.3368  1.3753 -0.8923
   11DOPE  C315 1407   1.307   2.699  14.868 -0.2140  0.0897  0.1643
   11DOPE  H15X 1408   1.233   2.776  14.899 -0.9680 -0.2662 -0.6987
   11DOPE  H15Y 1409   1.250   2.619  14.816 -1.8502  1.8018 -0.7815
   11DOPE  C316 1410   1.406   2.752  14.764 -0.0712 -0.3326  0.1182
   11DOPE  H16X 1411   1.472   2.667  14.736 -0.6245 -0.6540 -0.2311
   11DOPE  H16Y 1412   1.475   2.822  14.816  0.3301 -1.2968  0.9248
   11DOPE  C317 1413   1.331   2.797  14.639 -0.4045  0.3910 -0.9456
   11DOPE  H17X 1414   1.405   2.841  14.568 -1.0679  0.3034 -1.7098
   11DOPE  H17Y 1415   1.292   2.709  14.584  2.6803  0.0993 -2.9020
   11DOPE  C318 1416   1.230   2.912  14.675 -0.1082  0.3666  0.2154
   11DOPE  H18X 1417   1.137   2.884  14.730  1.3683 -2.5287  1.4743
   11DOPE  H18Y 1418   1.289   2.992  14.725  0.0395  0.0755  0.5148
   11DOPE  H18Z 1419   1.197   2.955  14.578 -0.1148 -1.9887 -0.8817
   12DOPE     N 1420   2.412   7.038  16.790  0.8367  0.8991 -0.0151
   12DOPE   HN1 1421   2.400   7.138  16.816 -1.2568  0.6553  0.1205
   12DOPE   HN2 1422   2.376   7.037  16.692  0.3488  2.3421  0.1270
   12DOPE   HN3 1423   2.333   6.992  16.841 -0.7381  1.1530 -2.0780
   12DOPE   C12 1424   2.556   6.993  16.813  0.3476 -0.3706 -0.1738
   12DOPE  H12A 1425   2.557   6.893  16.766  1.9462  0.1050 -1.2423
   12DOPE  H12B 1426   2.578   7.001  16.922  1.0184  0.6859 -0.3673
   12DOPE   C11 1427   2.649   7.071  16.726 -0.0047 -0.0891 -0.2143
   12DOPE  H11A 1428   2.634   7.059  16.617 -1.2999  0.0564 -0.0611
   12DOPE  H11B 1429   2.751   7.033  16.750 -0.9134 -2.4603  0.2016
   12DOPE     P 1430   2.748   7.298  16.834  0.2446  0.0796  0.5799
   12DOPE   O13 1431   2.780   7.219  16.956  0.1423 -0.1705 -0.1861
   12DOPE   O14 1432   2.681   7.429  16.847 -0.1762  0.2778  0.4278
   12DOPE   O11 1433   2.874   7.320  16.744  0.1425  0.3895 -0.0022
   12DOPE   O12 1434   2.649   7.214  16.740  0.0501  0.7114  0.0627
   12DOPE    C1 1435   2.854   7.330  16.604 -0.8137  0.1838  0.5996
   12DOPE    HA 1436   2.868   7.436  16.572 -0.4480 -0.3759 -1.2336
   12DOPE    HB 1437   2.753   7.292  16.577 -0.7564 -1.6214  2.6749
   12DOPE    C2 1438   2.958   7.230  16.532  0.6462 -0.9899 -0.1921
   12DOPE    HS 1439   2.959   7.136  16.591 -0.2668  0.2619  1.9352
   12DOPE   O21 1440   3.083   7.301  16.525  0.4572 -0.1381 -0.3727
   12DOPE   C21 1441   3.188   7.220  16.526 -0.5279 -0.3102 -0.2219
   12DOPE   O22 1442   3.190   7.107  16.569 -0.0958 -0.7705 -0.1042
   12DOPE   C22 1443   3.314   7.301  16.487 -0.1815  0.2015  0.2616
   12DOPE   H2R 1444   3.391   7.252  16.551 -1.4944 -1.0822  0.9239
   12DOPE   H2S 1445   3.287   7.403  16.522 -1.4371 -0.8440  2.5892
   12DOPE    C3 1446   2.921   7.191  16.392 -0.4200  0.4632  0.7398
   12DOPE    HX 1447   2.885   7.284  16.342  2.6528  1.3340 -0.0539
   12DOPE    HY 1448   2.835   7.121  16.385 -0.1341  0.0735  1.0967
   12DOPE   O31 1449   3.030   7.152  16.298 -0.8803 -0.2238  0.1238
   12DOPE   C31 1450   3.036   7.020  16.283  0.0418  0.0672  1.0116
   12DOPE   O32 1451   2.966   6.939  16.340  0.1866 -0.1430  0.1878
   12DOPE   C32 1452   3.152   6.981  16.185 -0.2049  0.0984 -0.3613
   12DOPE   H2X 1453   3.192   7.074  16.139 -0.4490  1.1199  1.3839
   12DOPE   H2Y 1454   3.228   6.948  16.259  0.6784 -0.8789 -1.6759
   12DOPE   C23 1455   3.341   7.282  16.335 -0.5211  0.3010 -0.3296
   12DOPE   H3R 1456   3.256   7.310  16.269 -0.0143 -1.3562 -1.7451
   12DOPE   H3S 1457   3.357   7.174  16.317 -0.2662 -0.0723  1.8010
   12DOPE   C24 1458   3.478   7.337  16.285  1.1004 -0.4025 -0.2036
   12DOPE   H4R 1459   3.561   7.301  16.349  1.2725 -1.5167 -1.0389
   12DOPE   H4S 1460   3.485   7.448  16.297  0.3967 -0.3238 -0.4905
   12DOPE   C25 1461   3.503   7.291  16.138  0.0381  0.2782  0.3227
   12DOPE   H5R 1462   3.485   7.182  16.134  1.4235  0.0546 -0.3560
   12DOPE   H5S 1463   3.603   7.317  16.096 -0.5645 -1.3130 -2.3226
   12DOPE   C26 1464   3.405   7.351  16.045 -0.4086  0.1717  0.2707
   12DOPE   H6R 1465   3.413   7.462  16.053  0.5226  0.2799 -1.6605
   12DOPE   H6S 1466   3.298   7.328  16.067 -0.1389 -0.2554  1.1936
   12DOPE   C27 1467   3.415   7.300  15.904 -0.0954 -0.2349 -0.0907
   12DOPE   H7R 1468   3.327   7.328  15.841  1.0169  1.2572 -1.0708
   12DOPE   H7S 1469   3.409   7.190  15.900 -1.8990 -0.1465 -0.7291
   12DOPE   C28 1470   3.537   7.358  15.832 -0.2067  0.0082 -0.1958
   12DOPE   H8R 1471   3.637   7.349  15.880  0.1599 -1.0422 -1.1242
   12DOPE   H8S 1472   3.519   7.468  15.831 -0.5543 -0.0450  0.0184
   12DOPE   C29 1473   3.557   7.295  15.696  0.1014  0.0499  0.3382
   12DOPE   H9R 1474   3.544   7.187  15.685  0.3999 -0.1463  1.7873
   12DOPE  C210 1475   3.592   7.363  15.578  0.3032  1.0777 -0.4569
   12DOPE  H10R 1476   3.617   7.308  15.486 -0.5790  0.2036 -0.1989
   12DOPE  C211 1477   3.617   7.519  15.569  0.3131 -0.5350  0.3949
   12DOPE  H11R 1478   3.725   7.541  15.550 -0.1749  0.4018 -1.6546
   12DOPE  H11S 1479   3.599   7.565  15.668 -0.4352 -1.7657  0.8458
   12DOPE  C212 1480   3.540   7.592  15.455 -0.1296 -0.4413 -0.0572
   12DOPE  H12R 1481   3.581   7.554  15.359  0.4182 -0.0351  0.0141
   12DOPE  H12S 1482   3.547   7.701  15.473  0.1881 -0.4566 -0.0842
   12DOPE  C213 1483   3.391   7.570  15.468 -0.0408 -0.2054 -0.3844
   12DOPE  H13R 1484   3.365   7.567  15.575 -0.3393 -1.4521 -0.4682
   12DOPE  H13S 1485   3.368   7.465  15.440  1.0139 -0.5642  0.0248
   12DOPE  C214 1486   3.308   7.655  15.375  0.1551 -1.0471  0.0387
   12DOPE  H14R 1487   3.319   7.762  15.402  1.6113 -1.2562  0.3334
   12DOPE  H14S 1488   3.198   7.636  15.378 -0.1433  0.2793 -1.2570
   12DOPE  C215 1489   3.340   7.648  15.225 -0.4000  0.3674 -0.0669
   12DOPE  H15R 1490   3.307   7.547  15.193  1.1688 -1.0778  2.5479
   12DOPE  H15S 1491   3.449   7.653  15.202 -0.2100 -2.7768 -0.3250
   12DOPE  C216 1492   3.265   7.754  15.141 -0.2301  0.6264 -0.4871
   12DOPE  H16R 1493   3.312   7.848  15.177 -0.0836 -0.4067  2.2322
   12DOPE  H16S 1494   3.157   7.739  15.161  0.0385 -2.0207 -0.6576
   12DOPE  C217 1495   3.284   7.746  14.985  0.0738 -0.5983 -0.0860
   12DOPE  H17R 1496   3.250   7.646  14.949 -2.0502  0.2185 -0.5046
   12DOPE  H17S 1497   3.390   7.774  14.967 -0.2679 -0.3438 -1.8626
   12DOPE  C218 1498   3.210   7.845  14.899 -0.2758 -0.2181  0.2056
   12DOPE  H18R 1499   3.230   7.817  14.793  0.3912 -1.2793  0.5928
   12DOPE  H18S 1500   3.252   7.945  14.921 -3.2798  1.4823 -1.2959
   12DOPE  H18T 1501   3.102   7.846  14.922 -0.0598 -1.1077  1.3390
   12DOPE   C33 1502   3.114   6.870  16.092  0.5727 -0.3747  0.1932
   12DOPE   H3X 1503   3.009   6.836  16.107 -0.2947  1.9919 -0.1006
   12DOPE   H3Y 1504   3.184   6.786  16.109  0.5373 -0.7491 -1.3531
   12DOPE   C34 1505   3.120   6.905  15.940 -0.1016  0.3505  0.4026
   12DOPE   H4X 1506   3.034   6.965  15.902  0.5484  2.8583  2.5417
   12DOPE   H4Y 1507   3.215   6.961  15.934 -0.8337  1.4763 -1.4837
   12DOPE   C35 1508   3.137   6.782  15.858 -0.3739  0.0471  0.0185
   12DOPE   H5X 1509   3.043   6.731  15.830 -0.7984  1.6786 -1.7499
   12DOPE   H5Y 1510   3.209   6.717  15.912  1.3149  0.4970 -1.6069
   12DOPE   C36 1511   3.196   6.820  15.721 -1.0066  0.3810 -0.9585
   12DOPE   H6X 1512   3.236   6.726  15.677 -1.7075 -0.8931  0.9891
   12DOPE   H6Y 1513   3.294   6.872  15.732  1.7276 -3.8460 -2.6320
   12DOPE   C37 1514   3.108   6.886  15.622  0.4644  0.6771 -0.3019
   12DOPE   H7X 1515   3.041   6.809  15.579  2.6979 -0.8829 -1.1780
   12DOPE   H7Y 1516   3.043   6.952  15.684 -0.1496 -1.3314  1.3375
   12DOPE   C38 1517   3.167   6.950  15.498 -0.2514  0.4517  0.0136
   12DOPE   H8X 1518   3.090   6.971  15.421 -0.8088 -0.2082  0.3827
   12DOPE   H8Y 1519   3.224   6.865  15.455 -1.4570 -0.0114 -0.6949
   12DOPE   C39 1520   3.248   7.073  15.527 -0.0353 -0.1266  0.1388
   12DOPE   H9X 1521   3.336   7.054  15.591 -0.0610 -2.6239 -0.4434
   12DOPE  C310 1522   3.212   7.200  15.490  0.9243 -0.7932 -0.1141
   12DOPE  H10X 1523   3.281   7.281  15.520 -0.0556  0.5583 -1.3338
   12DOPE  C311 1524   3.089   7.253  15.419  0.0732  0.6673 -0.1188
   12DOPE  H11X 1525   3.016   7.169  15.412  0.8282  0.0926 -1.7484
   12DOPE  H11Y 1526   3.038   7.329  15.481 -1.2759 -0.2629 -0.0440
   12DOPE  C312 1527   3.131   7.297  15.282  0.3285 -0.4810 -0.2664
   12DOPE  H12X 1528   3.178   7.207  15.238  0.4324 -0.9817  0.8354
   12DOPE  H12Y 1529   3.204   7.381  15.290  1.8058 -1.8502  1.1818
   12DOPE  C313 1530   3.004   7.345  15.195 -0.5160  0.1236 -1.1927
   12DOPE  H13X 1531   2.931   7.261  15.199 -1.6153  1.1129  1.3515
   12DOPE  H13Y 1532   2.964   7.431  15.252  0.8574  0.1522 -0.2169
   12DOPE  C314 1533   3.049   7.391  15.056 -0.1490 -0.4212 -0.1873
   12DOPE  H14X 1534   3.103   7.308  15.005 -0.9820 -0.2969 -1.3247
   12DOPE  H14Y 1535   3.120   7.476  15.062 -2.5644  1.6410  1.2011
   12DOPE  C315 1536   2.930   7.420  14.960  0.2255 -0.7014  0.4308
   12DOPE  H15X 1537   2.882   7.519  14.977 -2.0282 -1.7586  0.6323
   12DOPE  H15Y 1538   2.849   7.347  14.980 -0.1087 -0.3777  0.2692
   12DOPE  C316 1539   2.963   7.420  14.808  0.3118 -0.2899 -0.6566
   12DOPE  H16X 1540   2.867   7.403  14.754  0.0158 -0.7647  0.0023
   12DOPE  H16Y 1541   3.027   7.336  14.775  1.3579 -0.0022  0.5688
   12DOPE  C317 1542   3.030   7.557  14.756 -0.2579  0.0270 -0.2724
   12DOPE  H17X 1543   3.050   7.615  14.848 -2.6414  0.5354 -0.0299
   12DOPE  H17Y 1544   3.132   7.527  14.723 -0.0811 -1.2702  1.2858
   12DOPE  C318 1545   2.953   7.647  14.654  0.5418  0.3663 -0.4416
   12DOPE  H18X 1546   2.925   7.583  14.568  1.4453  0.2439 -0.6510
   12DOPE  H18Y 1547   2.868   7.689  14.712 -0.0132 -1.9891  0.5860
   12DOPE  H18Z 1548   3.024   7.719  14.608  0.6370 -0.5319 -1.7794
   13DOPE     N 1549   1.761   1.763  17.101  0.1938  0.3745 -0.1257
   13DOPE   HN1 1550   1.860   1.734  17.090  0.3701  0.6825  0.5651
   13DOPE   HN2 1551   1.749   1.842  17.034  0.1988  1.2497  0.8833
   13DOPE   HN3 1552   1.749   1.794  17.200  0.3164  1.8700 -0.5456
   13DOPE   C12 1553   1.665   1.658  17.058  0.3039  0.6465  0.4007
   13DOPE  H12A 1554   1.562   1.692  17.033 -0.2539 -1.5946 -0.6037
   13DOPE  H12B 1555   1.654   1.579  17.135  3.4542 -0.3993 -0.0490
   13DOPE   C11 1556   1.713   1.588  16.933 -0.4133 -0.3243 -0.4182
   13DOPE  H11A 1557   1.707   1.658  16.847 -3.1753  0.8234  0.5836
   13DOPE  H11B 1558   1.633   1.513  16.914 -0.8667 -0.0225  0.2591
   13DOPE     P 1559   1.902   1.440  16.824 -0.5514 -0.0791 -0.5202
   13DOPE   O13 1560   1.814   1.328  16.795  0.6017  0.3783 -0.4781
   13DOPE   O14 1561   2.041   1.405  16.861 -0.3130 -0.1878  0.0058
   13DOPE   O11 1562   1.895   1.543  16.701 -0.5499 -0.3061 -0.2705
   13DOPE   O12 1563   1.837   1.522  16.948  0.1536  0.3514 -0.6892
   13DOPE    C1 1564   1.929   1.683  16.707  1.0972 -0.4347  0.6596
   13DOPE    HA 1565   2.029   1.691  16.659  0.0592 -0.7927 -1.7109
   13DOPE    HB 1566   1.930   1.726  16.810  0.6751 -1.2632  1.0184
   13DOPE    C2 1567   1.844   1.786  16.619 -0.1541 -0.3108 -0.3071
   13DOPE    HS 1568   1.738   1.791  16.654  1.0573  0.1699  3.8286
   13DOPE   O21 1569   1.863   1.743  16.485 -0.7430  0.2841  0.2465
   13DOPE   C21 1570   1.768   1.664  16.438  0.2126 -0.7895 -0.2421
   13DOPE   O22 1571   1.662   1.637  16.491  0.4747 -0.5577 -0.6616
   13DOPE   C22 1572   1.807   1.616  16.301  0.5787 -0.2909  0.2365
   13DOPE   H2R 1573   1.856   1.517  16.312  0.3650 -0.7328 -2.2125
   13DOPE   H2S 1574   1.883   1.686  16.260 -0.3673  0.6619  0.0571
   13DOPE    C3 1575   1.899   1.931  16.624  0.2216 -0.1176  0.2086
   13DOPE    HX 1576   1.998   1.944  16.575  0.3285  1.4770  0.7956
   13DOPE    HY 1577   1.913   1.953  16.732 -1.2025  0.0204  0.3827
   13DOPE   O31 1578   1.797   2.028  16.580 -0.0261  0.6473 -0.2901
   13DOPE   C31 1579   1.843   2.152  16.594  0.5562 -1.2509  0.5251
   13DOPE   O32 1580   1.948   2.180  16.643  0.7293  0.5141  0.6827
   13DOPE   C32 1581   1.746   2.254  16.533 -0.2900  0.3680 -0.2599
   13DOPE   H2X 1582   1.693   2.201  16.451  0.9970  0.0061 -0.8903
   13DOPE   H2Y 1583   1.681   2.293  16.614  0.0996  0.1883  0.1450
   13DOPE   C23 1584   1.688   1.607  16.204  0.2171  0.4780 -0.2405
   13DOPE   H3R 1585   1.642   1.707  16.212 -1.4175 -0.3044  0.6874
   13DOPE   H3S 1586   1.605   1.543  16.241 -0.7099  1.8867  0.1993
   13DOPE   C24 1587   1.737   1.560  16.064 -0.4899 -0.0692  0.2856
   13DOPE   H4R 1588   1.651   1.528  16.001  0.9895 -2.5560 -0.6564
   13DOPE   H4S 1589   1.808   1.476  16.081 -1.5685 -1.3154 -1.0811
   13DOPE   C25 1590   1.802   1.674  15.983  0.3357  0.0921 -0.4138
   13DOPE   H5R 1591   1.900   1.699  16.027  0.2707 -1.9061  0.9596
   13DOPE   H5S 1592   1.734   1.762  15.993  1.2504  0.8954 -1.1368
   13DOPE   C26 1593   1.803   1.651  15.826 -0.8036 -0.8526  0.2426
   13DOPE   H6R 1594   1.701   1.637  15.784 -1.1831  0.0321  0.8371
   13DOPE   H6S 1595   1.869   1.563  15.809 -0.1400 -0.2526 -0.3428
   13DOPE   C27 1596   1.865   1.773  15.751 -0.2373  0.0265  0.3665
   13DOPE   H7R 1597   1.970   1.791  15.781 -0.0053  0.6797 -0.7857
   13DOPE   H7S 1598   1.804   1.862  15.779 -0.3242  0.1191 -0.1036
   13DOPE   C28 1599   1.866   1.763  15.596 -0.1247  0.5684 -0.0216
   13DOPE   H8R 1600   1.948   1.694  15.566  0.6162  0.8426  1.3166
   13DOPE   H8S 1601   1.895   1.865  15.563  3.4840 -0.2364  0.2371
   13DOPE   C29 1602   1.751   1.702  15.519 -0.6327 -0.1319  0.1341
   13DOPE   H9R 1603   1.718   1.600  15.545 -3.2515  0.1079 -1.9331
   13DOPE  C210 1604   1.694   1.764  15.416 -0.2830 -0.0328 -0.4940
   13DOPE  H10R 1605   1.611   1.711  15.368 -0.3572 -0.7577  0.3998
   13DOPE  C211 1606   1.733   1.900  15.359 -0.1044 -0.3721 -0.7499
   13DOPE  H11R 1607   1.775   1.976  15.428  1.3937  0.0059 -2.0127
   13DOPE  H11S 1608   1.652   1.959  15.311  0.1731  3.5210  2.9779
   13DOPE  C212 1609   1.860   1.882  15.273  0.0340 -0.1191 -0.3987
   13DOPE  H12R 1610   1.852   1.802  15.197 -2.5447  1.2848 -1.7218
   13DOPE  H12S 1611   1.947   1.852  15.335  0.0010 -0.4244 -0.5007
   13DOPE  C213 1612   1.901   2.019  15.209  0.0967  0.0854 -0.1006
   13DOPE  H13R 1613   1.927   2.075  15.300 -1.0413  1.6970 -0.7140
   13DOPE  H13S 1614   1.813   2.075  15.171 -0.2495  0.5644  1.3786
   13DOPE  C214 1615   2.019   1.998  15.116  0.0258  0.0278  0.3678
   13DOPE  H14R 1616   1.985   1.920  15.045 -1.0764  0.2294  0.6582
   13DOPE  H14S 1617   2.107   1.963  15.175  0.6641  0.7829 -0.1191
   13DOPE  C215 1618   2.061   2.122  15.042 -0.0269 -1.2724 -0.6681
   13DOPE  H15R 1619   2.074   2.214  15.103  0.1820 -1.3651 -0.5690
   13DOPE  H15S 1620   1.971   2.154  14.986 -0.7153 -0.3347  0.8912
   13DOPE  C216 1621   2.190   2.085  14.965 -0.7600 -0.2227  0.3014
   13DOPE  H16R 1622   2.181   1.989  14.908  0.8935  0.8390 -1.9114
   13DOPE  H16S 1623   2.260   2.074  15.051 -2.4529  0.3927  1.8212
   13DOPE  C217 1624   2.234   2.213  14.882 -0.1380 -0.0439 -0.0836
   13DOPE  H17R 1625   2.233   2.298  14.954  2.8944  0.4108 -0.4373
   13DOPE  H17S 1626   2.152   2.236  14.811  0.0175  2.7060  0.5154
   13DOPE  C218 1627   2.369   2.216  14.810 -0.5374  0.8256 -0.0734
   13DOPE  H18R 1628   2.455   2.231  14.880  0.6791 -2.0972 -0.7948
   13DOPE  H18S 1629   2.372   2.290  14.727 -2.0557  2.1132  0.9562
   13DOPE  H18T 1630   2.390   2.120  14.759 -1.2230  1.0323 -0.7629
   13DOPE   C33 1631   1.832   2.369  16.469 -0.1958 -0.5466  0.6222
   13DOPE   H3X 1632   1.887   2.428  16.545 -1.0695  1.2057 -0.0509
   13DOPE   H3Y 1633   1.758   2.445  16.436 -0.3274 -0.0143  2.0641
   13DOPE   C34 1634   1.923   2.315  16.352  1.0041 -0.1912 -0.1549
   13DOPE   H4X 1635   2.005   2.248  16.386  0.7900  0.6827  2.3045
   13DOPE   H4Y 1636   1.861   2.250  16.286  1.2844  0.5433 -1.1649
   13DOPE   C35 1637   1.990   2.431  16.277 -0.5641 -0.2051 -0.3124
   13DOPE   H5X 1638   2.045   2.490  16.353 -1.3409 -0.9428  0.8356
   13DOPE   H5Y 1639   1.907   2.493  16.238  0.1772  0.8328 -0.2937
   13DOPE   C36 1640   2.079   2.381  16.159 -0.1746  0.4000  0.4486
   13DOPE   H6X 1641   2.017   2.313  16.097 -1.2718  1.8688 -0.1167
   13DOPE   H6Y 1642   2.159   2.316  16.200 -1.7523 -2.7958 -1.1670
   13DOPE   C37 1643   2.139   2.487  16.070 -0.3184  0.7694 -0.3179
   13DOPE   H7X 1644   2.051   2.550  16.044 -3.6231 -3.0565  0.4851
   13DOPE   H7Y 1645   2.219   2.537  16.128 -1.4888  0.2467  1.8605
   13DOPE   C38 1646   2.207   2.425  15.947  0.1929 -0.2832 -0.2274
   13DOPE   H8X 1647   2.260   2.515  15.909  1.3729 -0.3627  1.1276
   13DOPE   H8Y 1648   2.124   2.400  15.878  0.4350 -0.5620 -0.4165
   13DOPE   C39 1649   2.298   2.303  15.949 -0.7277  0.1922 -0.2654
   13DOPE   H9X 1650   2.252   2.208  15.978  0.6498 -0.0737  1.1995
   13DOPE  C310 1651   2.426   2.310  15.921  0.1558  0.2916  0.3326
   13DOPE  H10X 1652   2.480   2.214  15.923 -0.5657 -0.1696 -1.0480
   13DOPE  C311 1653   2.512   2.428  15.876 -0.3140  0.0291  0.0975
   13DOPE  H11X 1654   2.478   2.523  15.923 -0.8293  0.4392 -1.0584
   13DOPE  H11Y 1655   2.614   2.407  15.915 -1.4049 -1.7984  2.2128
   13DOPE  C312 1656   2.513   2.449  15.720  0.1245  0.9527 -0.4445
   13DOPE  H12X 1657   2.409   2.470  15.687  0.2815 -0.2100 -1.7440
   13DOPE  H12Y 1658   2.538   2.353  15.670 -0.0632  1.1733 -0.9663
   13DOPE  C313 1659   2.611   2.557  15.672  0.2451  0.5033  0.2536
   13DOPE  H13X 1660   2.573   2.654  15.711 -0.8017  0.8452 -1.5088
   13DOPE  H13Y 1661   2.706   2.530  15.724 -0.1674 -1.2430  0.1691
   13DOPE  C314 1662   2.640   2.571  15.523  0.4851  0.1689 -0.6430
   13DOPE  H14X 1663   2.552   2.611  15.468 -0.7115  1.4240  2.0240
   13DOPE  H14Y 1664   2.677   2.477  15.477  0.9572  0.5468 -1.0405
   13DOPE  C315 1665   2.766   2.662  15.509  0.3092 -0.3660  0.1288
   13DOPE  H15X 1666   2.859   2.622  15.555  0.1613  0.8468  1.5403
   13DOPE  H15Y 1667   2.748   2.759  15.560 -0.0729  0.3541 -1.3405
   13DOPE  C316 1668   2.801   2.675  15.355 -0.5503  0.3104 -0.8335
   13DOPE  H16X 1669   2.720   2.737  15.311 -1.8278 -1.0746 -0.5041
   13DOPE  H16Y 1670   2.780   2.579  15.304 -1.0568  1.3153 -2.6526
   13DOPE  C317 1671   2.939   2.731  15.321 -0.7342  0.6250 -0.2093
   13DOPE  H17X 1672   2.939   2.842  15.311  1.2740  0.4715 -3.9211
   13DOPE  H17Y 1673   3.013   2.697  15.397  0.1675 -1.0207 -1.7293
   13DOPE  C318 1674   2.989   2.692  15.188 -0.8726  0.3612  0.7812
   13DOPE  H18X 1675   3.020   2.586  15.175  0.2607  0.8779 -1.1090
   13DOPE  H18Y 1676   2.911   2.712  15.111  0.8432 -0.7552 -1.3595
   13DOPE  H18Z 1677   3.072   2.762  15.165 -0.6259 -0.5505 -1.3928
   14DOPE     N 1678   6.754   4.562  17.138  0.0261  0.2270  0.3735
   14DOPE   HN1 1679   6.840   4.614  17.163  0.4502 -0.0705 -0.4464
   14DOPE   HN2 1680   6.704   4.542  17.227 -0.9955 -0.9786 -0.4473
   14DOPE   HN3 1681   6.784   4.476  17.090 -2.3237 -0.8917  0.7718
   14DOPE   C12 1682   6.670   4.658  17.056  0.4440 -0.3689  0.3178
   14DOPE  H12A 1683   6.635   4.742  17.121  2.8927  1.7770 -0.9686
   14DOPE  H12B 1684   6.578   4.607  17.020 -0.8755  1.6892  0.5933
   14DOPE   C11 1685   6.753   4.708  16.933  0.3926  0.1559 -0.6944
   14DOPE  H11A 1686   6.826   4.633  16.896  1.5285 -0.9601  3.2704
   14DOPE  H11B 1687   6.803   4.801  16.968 -1.6908  2.2013 -2.8157
   14DOPE     P 1688   6.595   4.665  16.729 -0.0879  0.3235 -0.0034
   14DOPE   O13 1689   6.483   4.742  16.670  0.3439 -0.5838  0.4520
   14DOPE   O14 1690   6.554   4.537  16.786 -0.2572 -0.1835  0.4664
   14DOPE   O11 1691   6.704   4.653  16.618  0.3426  0.1530  0.4492
   14DOPE   O12 1692   6.659   4.749  16.838  0.1139 -0.3538 -0.5066
   14DOPE    C1 1693   6.685   4.586  16.490  0.3490  0.3562 -0.6290
   14DOPE    HA 1694   6.604   4.511  16.501 -0.0166  1.1190  3.0817
   14DOPE    HB 1695   6.777   4.532  16.460  0.0042 -1.6260  1.5672
   14DOPE    C2 1696   6.652   4.684  16.378 -0.2240 -0.2266  0.5252
   14DOPE    HS 1697   6.545   4.713  16.386 -0.3367 -0.3617 -0.3541
   14DOPE   O21 1698   6.687   4.631  16.251  0.1644  0.0329 -0.5727
   14DOPE   C21 1699   6.619   4.666  16.144  0.5478  0.5438  0.2325
   14DOPE   O22 1700   6.525   4.745  16.140 -0.1095  0.4345 -0.4925
   14DOPE   C22 1701   6.679   4.592  16.032  0.0803  0.1142  0.5689
   14DOPE   H2R 1702   6.706   4.486  16.055  1.0951  0.5016  1.2668
   14DOPE   H2S 1703   6.768   4.651  16.002 -0.8150  1.5427  0.6190
   14DOPE    C3 1704   6.716   4.820  16.409 -0.5483  0.3663  0.8877
   14DOPE    HX 1705   6.823   4.791  16.423  0.6889  3.5506 -0.7178
   14DOPE    HY 1706   6.686   4.861  16.507  0.0966 -0.6843  1.5394
   14DOPE   O31 1707   6.698   4.916  16.300  0.0923 -0.0845  0.4690
   14DOPE   C31 1708   6.779   5.026  16.309  0.8423  0.1477 -0.4676
   14DOPE   O32 1709   6.857   5.047  16.399 -0.7623  0.0664 -0.0410
   14DOPE   C32 1710   6.764   5.112  16.185  0.1059  0.1933  0.2311
   14DOPE   H2X 1711   6.840   5.192  16.177  0.0821  0.0268 -3.0618
   14DOPE   H2Y 1712   6.780   5.039  16.103 -2.5539 -1.8673  1.3785
   14DOPE   C23 1713   6.582   4.597  15.905 -0.3114 -0.0375  0.9249
   14DOPE   H3R 1714   6.550   4.700  15.881  0.4242 -0.1973 -0.9501
   14DOPE   H3S 1715   6.485   4.548  15.928 -0.7784  0.8234  0.8358
   14DOPE   C24 1716   6.639   4.529  15.779  0.0756 -0.1969 -0.2309
   14DOPE   H4R 1717   6.661   4.421  15.792  0.1026 -0.0062  1.5323
   14DOPE   H4S 1718   6.728   4.584  15.741  0.1509  0.8664  1.3967
   14DOPE   C25 1719   6.545   4.541  15.660  0.3379 -0.3012 -0.1673
   14DOPE   H5R 1720   6.497   4.641  15.656 -0.4435 -0.6189  0.9106
   14DOPE   H5S 1721   6.460   4.473  15.680  2.4642 -2.9095  0.5770
   14DOPE   C26 1722   6.607   4.490  15.523  0.9775  0.0599 -0.0448
   14DOPE   H6R 1723   6.676   4.406  15.544  0.4359 -0.4240 -0.1811
   14DOPE   H6S 1724   6.657   4.579  15.480 -2.1100  3.3494  2.4730
   14DOPE   C27 1725   6.504   4.429  15.423  0.4490  0.2578  0.1047
   14DOPE   H7R 1726   6.431   4.512  15.407 -0.6251 -0.7381 -0.3144
   14DOPE   H7S 1727   6.451   4.347  15.476 -0.3105  0.5468 -0.1851
   14DOPE   C28 1728   6.587   4.368  15.307 -0.2156 -0.7765  0.2857
   14DOPE   H8R 1729   6.644   4.279  15.340  0.4581 -0.5817 -0.3184
   14DOPE   H8S 1730   6.653   4.448  15.265 -0.9826 -0.9088 -1.2445
   14DOPE   C29 1731   6.501   4.327  15.199 -0.1557 -0.0646 -0.2475
   14DOPE   H9R 1732   6.395   4.345  15.222  0.1253  2.5299 -0.6519
   14DOPE  C210 1733   6.534   4.245  15.097  0.0663  0.1548  0.2454
   14DOPE  H10R 1734   6.456   4.214  15.026  0.0366  2.3695 -0.7703
   14DOPE  C211 1735   6.680   4.192  15.076 -0.1632 -0.1748 -0.9279
   14DOPE  H11R 1736   6.747   4.247  15.145 -1.9627  0.5355  0.3381
   14DOPE  H11S 1737   6.712   4.231  14.976  0.9355  0.1295 -0.4702
   14DOPE  C212 1738   6.700   4.041  15.084 -0.1326  0.3749  0.3432
   14DOPE  H12R 1739   6.780   4.005  15.016 -0.8919  0.0965 -0.4322
   14DOPE  H12S 1740   6.608   3.990  15.047  0.0850 -0.5734  1.0523
   14DOPE  C213 1741   6.728   4.009  15.235 -0.5783  0.7073 -0.3218
   14DOPE  H13R 1742   6.636   3.994  15.295 -0.8455 -0.2254 -0.9432
   14DOPE  H13S 1743   6.799   4.085  15.273  0.4004  0.3316 -1.3281
   14DOPE  C214 1744   6.802   3.872  15.249  0.0726 -0.0346 -0.9605
   14DOPE  H14R 1745   6.827   3.878  15.357 -1.5390  1.3340 -0.6180
   14DOPE  H14S 1746   6.900   3.870  15.197 -0.3820 -1.4324 -1.8457
   14DOPE  C215 1747   6.710   3.748  15.223 -0.5412 -1.0129  0.0809
   14DOPE  H15R 1748   6.712   3.735  15.113  1.9387 -0.9867  0.0785
   14DOPE  H15S 1749   6.612   3.783  15.262 -0.0305 -1.2235  1.6072
   14DOPE  C216 1750   6.752   3.618  15.293 -0.3322  0.1540  0.1940
   14DOPE  H16R 1751   6.693   3.530  15.260  0.5269 -0.6879  0.8372
   14DOPE  H16S 1752   6.751   3.636  15.403  1.6339  0.4689  0.2009
   14DOPE  C217 1753   6.896   3.575  15.238 -0.2704  0.2847  0.4846
   14DOPE  H17R 1754   6.976   3.650  15.256 -0.5553  0.3594  1.5510
   14DOPE  H17S 1755   6.891   3.574  15.127 -1.5239  3.1856  0.4392
   14DOPE  C218 1756   6.928   3.430  15.287 -0.7531  0.1144  0.0212
   14DOPE  H18R 1757   6.934   3.401  15.394 -3.4415 -0.8156 -0.0136
   14DOPE  H18S 1758   7.030   3.403  15.251 -0.3468 -0.3063  1.4153
   14DOPE  H18T 1759   6.849   3.363  15.247 -1.1702  0.3495  0.4397
   14DOPE   C33 1760   6.618   5.159  16.177  0.0690  0.6530  0.0434
   14DOPE   H3X 1761   6.608   5.248  16.243  0.0826  0.4112  0.3761
   14DOPE   H3Y 1762   6.560   5.083  16.232  2.2053 -0.8771  0.3176
   14DOPE   C34 1763   6.565   5.182  16.033  0.2731 -0.3127  0.2203
   14DOPE   H4X 1764   6.480   5.247  16.060  0.2445  0.4589 -1.6103
   14DOPE   H4Y 1765   6.635   5.243  15.973 -0.3823 -0.6767 -0.9340
   14DOPE   C35 1766   6.539   5.047  15.959 -0.1586  0.4245  0.7276
   14DOPE   H5X 1767   6.483   4.982  16.030  2.3580 -1.2327  1.3351
   14DOPE   H5Y 1768   6.638   5.002  15.934  1.1593  2.3199  2.1825
   14DOPE   C36 1769   6.457   5.072  15.836 -0.4610 -0.1184  0.1294
   14DOPE   H6X 1770   6.503   5.159  15.786 -2.5044 -0.7220 -3.1243
   14DOPE   H6Y 1771   6.350   5.080  15.868 -0.7280  0.4129 -0.8664
   14DOPE   C37 1772   6.467   4.954  15.741 -0.6583 -0.3829 -0.3291
   14DOPE   H7X 1773   6.570   4.914  15.728 -0.6703 -1.2555  1.8964
   14DOPE   H7Y 1774   6.408   4.868  15.778 -2.6230  0.1361 -2.0519
   14DOPE   C38 1775   6.416   4.983  15.599  0.8370  0.1204  0.0586
   14DOPE   H8X 1776   6.443   5.083  15.558  0.8060 -0.4711 -1.4680
   14DOPE   H8Y 1777   6.310   5.010  15.620  0.6354 -0.2446 -0.4600
   14DOPE   C39 1778   6.413   4.879  15.490 -0.6291  1.1697 -0.3266
   14DOPE   H9X 1779   6.516   4.876  15.454 -0.5454  1.0648 -0.0838
   14DOPE  C310 1780   6.313   4.809  15.428  0.6163  0.7374 -0.1554
   14DOPE  H10X 1781   6.331   4.733  15.351  0.3792  0.7217 -0.1936
   14DOPE  C311 1782   6.166   4.830  15.471 -0.6940  0.0934  0.6883
   14DOPE  H11X 1783   6.099   4.756  15.423  1.1212 -0.1949 -1.5686
   14DOPE  H11Y 1784   6.159   4.818  15.581 -0.3095  1.5613  0.9016
   14DOPE  C312 1785   6.111   4.966  15.419 -0.3640  0.1746 -0.0706
   14DOPE  H12X 1786   6.089   4.946  15.312  0.2531 -0.5490 -0.0707
   14DOPE  H12Y 1787   6.171   5.058  15.430  0.6038 -0.5472  0.8935
   14DOPE  C313 1788   5.984   5.014  15.484  0.2380  0.4328  0.0233
   14DOPE  H13X 1789   5.935   5.093  15.422  0.2598 -1.5165 -2.6834
   14DOPE  H13Y 1790   5.921   4.922  15.487  1.1988 -0.2294  0.3396
   14DOPE  C314 1791   5.991   5.033  15.636  0.0510  0.4566  0.4201
   14DOPE  H14X 1792   6.065   5.114  15.647 -0.9609  1.6931 -1.4212
   14DOPE  H14Y 1793   6.042   4.953  15.694  0.8225  1.3640  1.0138
   14DOPE  C315 1794   5.854   5.076  15.705 -0.3276 -0.3416  0.2191
   14DOPE  H15X 1795   5.818   5.175  15.669 -1.2278 -0.0019  1.9702
   14DOPE  H15Y 1796   5.883   5.096  15.810  0.4148  0.0232 -0.0403
   14DOPE  C316 1797   5.737   4.978  15.694 -0.9688  0.6987 -0.0183
   14DOPE  H16X 1798   5.712   4.963  15.587 -2.7629  1.4307  0.2677
   14DOPE  H16Y 1799   5.663   5.024  15.762 -1.2957  1.8048 -1.1034
   14DOPE  C317 1800   5.760   4.835  15.752  0.6135 -0.3276  0.0778
   14DOPE  H17X 1801   5.799   4.772  15.669  2.7978  0.3224  0.5483
   14DOPE  H17Y 1802   5.850   4.847  15.816 -0.3064 -0.2613  1.3982
   14DOPE  C318 1803   5.635   4.780  15.818  0.2859  0.0485  0.8882
   14DOPE  H18X 1804   5.605   4.831  15.912 -1.7877  2.5312 -0.9895
   14DOPE  H18Y 1805   5.544   4.789  15.756  0.8210 -2.6455 -0.4823
   14DOPE  H18Z 1806   5.640   4.671  15.839  2.4699  0.6070  3.9245
   15DOPE     N 1807   0.117   3.098  16.802  0.4672 -0.3742  0.6437
   15DOPE   HN1 1808   0.053   3.052  16.870  0.5013  0.8930  1.5568
   15DOPE   HN2 1809   0.127   3.200  16.816 -0.5545 -0.0372 -0.7569
   15DOPE   HN3 1810   0.073   3.089  16.707 -1.8814  0.5312  1.5612
   15DOPE   C12 1811   0.251   3.026  16.819  0.3413 -0.3302 -0.8812
   15DOPE  H12A 1812   0.296   3.060  16.915 -1.7851  1.2378 -0.3420
   15DOPE  H12B 1813   0.316   3.049  16.731  0.5468 -1.6730 -1.1037
   15DOPE   C11 1814   0.233   2.877  16.818  0.5028  0.0431 -0.6787
   15DOPE  H11A 1815   0.149   2.855  16.749 -0.3657  1.6253 -0.1685
   15DOPE  H11B 1816   0.196   2.844  16.917 -0.1921 -1.8497 -1.5204
   15DOPE     P 1817   0.453   2.760  16.892 -0.0954 -0.0089 -0.2891
   15DOPE   O13 1818   0.418   2.621  16.927  0.5613 -0.2742  0.3368
   15DOPE   O14 1819   0.467   2.852  17.003 -0.0474 -0.2376 -0.1370
   15DOPE   O11 1820   0.600   2.741  16.828  0.2029  0.2836 -0.1205
   15DOPE   O12 1821   0.359   2.813  16.789 -0.5287  0.2376  0.6069
   15DOPE    C1 1822   0.666   2.850  16.762  0.5555  0.1786  0.2606
   15DOPE    HA 1823   0.771   2.854  16.796  1.2498  1.5911 -1.9294
   15DOPE    HB 1824   0.621   2.951  16.772 -1.8599 -0.9038  1.3017
   15DOPE    C2 1825   0.682   2.822  16.606  0.6526 -0.2126 -0.4370
   15DOPE    HS 1826   0.776   2.871  16.573  0.1841 -0.9069 -3.0179
   15DOPE   O21 1827   0.562   2.879  16.552  0.2710  0.1306  0.1009
   15DOPE   C21 1828   0.565   3.003  16.500 -0.0142  0.0108 -0.5574
   15DOPE   O22 1829   0.656   3.079  16.523  0.1726 -0.7671 -0.2063
   15DOPE   C22 1830   0.440   3.036  16.430 -0.6732  0.3274 -0.7486
   15DOPE   H2R 1831   0.389   3.114  16.491  0.0633  1.9437 -2.1286
   15DOPE   H2S 1832   0.377   2.944  16.425 -0.8590  0.2231  1.8000
   15DOPE    C3 1833   0.698   2.672  16.573  0.9029 -0.2385 -0.5803
   15DOPE    HX 1834   0.610   2.613  16.607  0.6254  1.5237  2.0329
   15DOPE    HY 1835   0.779   2.636  16.639  0.7156 -0.1495 -0.2963
   15DOPE   O31 1836   0.727   2.639  16.437  0.6705 -0.7342  0.6012
   15DOPE   C31 1837   0.630   2.629  16.349 -0.3901 -1.0848  0.1719
   15DOPE   O32 1838   0.509   2.615  16.372  0.7752  0.3412  0.0891
   15DOPE   C32 1839   0.699   2.668  16.213  0.9870  0.2545  0.0628
   15DOPE   H2X 1840   0.640   2.749  16.165  0.0048 -0.1445  0.5593
   15DOPE   H2Y 1841   0.803   2.707  16.224  0.6867  1.0322  0.1871
   15DOPE   C23 1842   0.477   3.096  16.297 -0.4007 -0.9080 -0.0363
   15DOPE   H3R 1843   0.537   3.189  16.308  2.4874 -2.7503  0.8260
   15DOPE   H3S 1844   0.381   3.132  16.254  0.4499 -1.1420 -2.2351
   15DOPE   C24 1845   0.538   2.998  16.192  0.1516  0.4487 -0.0006
   15DOPE   H4R 1846   0.452   2.931  16.169  0.5068  0.7514 -2.5256
   15DOPE   H4S 1847   0.622   2.949  16.244  0.4583  0.9587 -0.0016
   15DOPE   C25 1848   0.600   3.071  16.078 -0.1091  0.3758  0.0086
   15DOPE   H5R 1849   0.700   3.110  16.108 -0.5248  1.1670  0.3687
   15DOPE   H5S 1850   0.543   3.161  16.047  0.7325  1.2252  0.8577
   15DOPE   C26 1851   0.609   2.987  15.951 -0.2060 -0.4450 -0.0039
   15DOPE   H6R 1852   0.517   2.929  15.929  0.0276 -0.3696 -1.2596
   15DOPE   H6S 1853   0.690   2.910  15.950 -0.0468 -0.2773 -0.9404
   15DOPE   C27 1854   0.639   3.083  15.836  0.0795  0.1497 -0.5066
   15DOPE   H7R 1855   0.741   3.127  15.843 -0.4135  1.3585 -0.6744
   15DOPE   H7S 1856   0.577   3.175  15.833  1.7294  1.2955 -0.9564
   15DOPE   C28 1857   0.639   3.008  15.703 -0.4082  0.3895 -0.3010
   15DOPE   H8R 1858   0.693   2.913  15.724 -1.4890  0.1064  1.3961
   15DOPE   H8S 1859   0.689   3.072  15.627  0.0130 -1.4844 -1.6575
   15DOPE   C29 1860   0.501   2.977  15.641  0.4772  0.1167 -0.6122
   15DOPE   H9R 1861   0.419   3.044  15.672  1.9220  1.0725  1.3837
   15DOPE  C210 1862   0.483   2.877  15.551  0.5195  0.3266  0.7594
   15DOPE  H10R 1863   0.381   2.857  15.515  0.2314  0.5950  1.4031
   15DOPE  C211 1864   0.587   2.781  15.489  0.6730  0.3392 -0.1608
   15DOPE  H11R 1865   0.601   2.688  15.548  2.9554  0.4746 -0.3662
   15DOPE  H11S 1866   0.687   2.830  15.478  1.7434 -1.7928 -0.3529
   15DOPE  C212 1867   0.525   2.743  15.347 -0.3807 -0.1767 -0.2964
   15DOPE  H12R 1868   0.450   2.818  15.313 -1.2568 -0.4582  0.9223
   15DOPE  H12S 1869   0.478   2.642  15.341 -0.7648  0.0710 -2.1693
   15DOPE  C213 1870   0.637   2.730  15.236 -0.7583  0.2194 -0.1694
   15DOPE  H13R 1871   0.722   2.670  15.275 -0.1164  0.4767 -1.1062
   15DOPE  H13S 1872   0.677   2.825  15.193 -4.2113  0.4273 -3.4057
   15DOPE  C214 1873   0.587   2.655  15.112  0.6194  0.2864  0.1380
   15DOPE  H14R 1874   0.504   2.702  15.055  1.8961  1.5882 -0.7010
   15DOPE  H14S 1875   0.559   2.553  15.146 -0.0387  0.6277  0.6443
   15DOPE  C215 1876   0.687   2.632  14.993  0.1805  0.0049 -0.2146
   15DOPE  H15R 1877   0.633   2.580  14.911  1.4247 -1.1014 -0.3694
   15DOPE  H15S 1878   0.762   2.565  15.040  0.5495 -0.5883 -1.5699
   15DOPE  C216 1879   0.750   2.755  14.936  0.1272  0.3153 -0.2690
   15DOPE  H16R 1880   0.828   2.798  15.004  0.5881  0.5290 -0.9198
   15DOPE  H16S 1881   0.670   2.831  14.927  1.2440  1.8515  1.7902
   15DOPE  C217 1882   0.807   2.728  14.798  0.6349 -0.1397 -0.3198
   15DOPE  H17R 1883   0.855   2.821  14.761 -0.3123  0.7117  0.5344
   15DOPE  H17S 1884   0.722   2.702  14.731  1.1926 -1.7326 -0.4346
   15DOPE  C218 1885   0.907   2.614  14.791 -0.0477  0.3680 -0.1640
   15DOPE  H18R 1886   0.976   2.620  14.878 -1.4250 -0.1613  1.0196
   15DOPE  H18S 1887   0.971   2.606  14.701 -0.7412 -3.0228 -0.4620
   15DOPE  H18T 1888   0.854   2.518  14.810  1.7199 -0.4500  0.8881
   15DOPE   C33 1889   0.704   2.539  16.122  0.3072  0.6998  0.3176
   15DOPE   H3X 1890   0.613   2.478  16.145 -0.4859  1.5323 -0.5526
   15DOPE   H3Y 1891   0.795   2.485  16.156 -1.4381 -1.2310  2.3308
   15DOPE   C34 1892   0.704   2.562  15.969 -0.0476 -0.3087  0.0666
   15DOPE   H4X 1893   0.638   2.651  15.953  2.5237  1.4140 -1.7424
   15DOPE   H4Y 1894   0.805   2.584  15.928  0.1016  0.0726  0.6352
   15DOPE   C35 1895   0.656   2.443  15.890  0.0772 -0.3178 -0.3251
   15DOPE   H5X 1896   0.552   2.420  15.923  0.6313  0.4058  2.0932
   15DOPE   H5Y 1897   0.710   2.348  15.912 -1.6828 -1.1413  0.7385
   15DOPE   C36 1898   0.649   2.467  15.741 -0.6260  0.0358 -0.1968
   15DOPE   H6X 1899   0.757   2.457  15.718 -0.6992 -0.1281 -0.4748
   15DOPE   H6Y 1900   0.622   2.575  15.738 -1.4514 -0.1036  1.1604
   15DOPE   C37 1901   0.563   2.363  15.668  0.0689  0.2758  0.3349
   15DOPE   H7X 1902   0.606   2.265  15.699 -1.0223 -0.4017 -0.2298
   15DOPE   H7Y 1903   0.460   2.364  15.708 -0.0894  2.6546 -0.0187
   15DOPE   C38 1904   0.555   2.375  15.516 -0.0156  0.0305 -0.8087
   15DOPE   H8X 1905   0.486   2.459  15.491 -1.7841 -1.4690 -1.1616
   15DOPE   H8Y 1906   0.505   2.282  15.483 -2.1242  0.7615  0.1650
   15DOPE   C39 1907   0.686   2.400  15.450  0.6260  0.2300  0.1786
   15DOPE   H9X 1908   0.706   2.503  15.418  1.0774  0.1440  0.1857
   15DOPE  C310 1909   0.773   2.308  15.411 -0.0052 -0.4840  0.8988
   15DOPE  H10X 1910   0.870   2.353  15.386 -0.5965  2.0733  2.8610
   15DOPE  C311 1911   0.760   2.161  15.415  0.5176  0.0099  0.2337
   15DOPE  H11X 1912   0.832   2.127  15.493  0.0478 -1.9053 -0.1192
   15DOPE  H11Y 1913   0.660   2.120  15.441  0.6545 -1.7374 -1.7759
   15DOPE  C312 1914   0.789   2.094  15.285 -0.4193 -0.3244  0.0885
   15DOPE  H12X 1915   0.790   1.986  15.312  0.4124 -0.4151 -0.2544
   15DOPE  H12Y 1916   0.888   2.122  15.242 -1.1970  2.3946 -0.0921
   15DOPE  C313 1917   0.689   2.130  15.179 -0.3182 -0.3312  0.2824
   15DOPE  H13X 1918   0.591   2.110  15.228  0.4752 -1.5157  1.4363
   15DOPE  H13Y 1919   0.703   2.237  15.153  0.3775 -0.5808 -0.4069
   15DOPE  C314 1920   0.709   2.042  15.062  0.0787  0.2379  1.5247
   15DOPE  H14X 1921   0.676   1.940  15.090 -1.4383  0.4344  0.5379
   15DOPE  H14Y 1922   0.813   2.033  15.022 -0.5697 -0.3046 -0.1286
   15DOPE  C315 1923   0.622   2.076  14.941 -0.3003 -0.1964  0.3092
   15DOPE  H15X 1924   0.516   2.084  14.971 -0.4559  1.4508 -0.5450
   15DOPE  H15Y 1925   0.626   1.990  14.871 -1.3996 -0.9315  1.1313
   15DOPE  C316 1926   0.658   2.201  14.861  0.2708 -0.0159 -0.1062
   15DOPE  H16X 1927   0.752   2.175  14.808 -0.9395  0.3488 -2.6022
   15DOPE  H16Y 1928   0.682   2.293  14.918  2.6227  1.2431 -2.8990
   15DOPE  C317 1929   0.544   2.227  14.760 -0.1110 -0.4647 -0.6181
   15DOPE  H17X 1930   0.553   2.150  14.680  1.2009 -1.0072  0.0075
   15DOPE  H17Y 1931   0.448   2.217  14.816 -0.6034 -0.2163 -1.4047
   15DOPE  C318 1932   0.549   2.370  14.704  0.1663  1.0466 -0.1871
   15DOPE  H18X 1933   0.535   2.447  14.782  0.3538  0.0755  0.8269
   15DOPE  H18Y 1934   0.646   2.377  14.651  1.0017 -3.7302  0.2427
   15DOPE  H18Z 1935   0.475   2.390  14.623  0.3823  0.6562 -0.4882
   16DOPE     N 1936   7.055   3.940  16.987  0.1554  0.3512 -0.0518
   16DOPE   HN1 1937   7.131   3.870  16.992 -0.1475  0.0519  0.5056
   16DOPE   HN2 1938   7.076   4.041  16.968 -1.7465  1.5380  3.3043
   16DOPE   HN3 1939   7.009   3.936  17.080 -2.3046 -2.4027 -1.2283
   16DOPE   C12 1940   6.945   3.889  16.891  0.5247  0.8189 -0.3952
   16DOPE  H12A 1941   6.859   3.955  16.914  0.5670  1.1504 -1.1501
   16DOPE  H12B 1942   6.909   3.789  16.923 -2.0087  1.8612  0.2396
   16DOPE   C11 1943   6.978   3.893  16.740 -0.5824  0.2965 -0.2319
   16DOPE  H11A 1944   6.962   3.998  16.706 -0.0378 -0.1169 -1.8195
   16DOPE  H11B 1945   6.905   3.823  16.693 -0.2233  0.2380 -0.7076
   16DOPE     P 1946   7.157   3.697  16.700  0.5514  0.0822  0.2958
   16DOPE   O13 1947   7.139   3.644  16.831 -0.2305  0.5765  0.5390
   16DOPE   O14 1948   7.296   3.693  16.666 -0.6585  0.1638 -0.2698
   16DOPE   O11 1949   7.052   3.629  16.604 -0.7660 -0.0846  0.0810
   16DOPE   O12 1950   7.112   3.852  16.709 -0.1748 -0.3082 -0.0925
   16DOPE    C1 1951   7.048   3.494  16.554 -0.1771 -0.7218 -0.2953
   16DOPE    HA 1952   6.950   3.452  16.584  0.1044 -0.0697  1.7075
   16DOPE    HB 1953   7.131   3.436  16.600  1.3294  1.2628 -0.3631
   16DOPE    C2 1954   7.061   3.492  16.402 -0.3823 -0.3226  0.3144
   16DOPE    HS 1955   7.032   3.392  16.365  2.4779 -0.2351 -2.6398
   16DOPE   O21 1956   7.183   3.534  16.342  0.0283  0.1870  0.1580
   16DOPE   C21 1957   7.288   3.461  16.379 -0.1484  0.1263  0.1661
   16DOPE   O22 1958   7.283   3.361  16.444  0.1830 -0.2958 -0.2760
   16DOPE   C22 1959   7.418   3.519  16.322 -0.2092 -0.3964 -0.0257
   16DOPE   H2R 1960   7.439   3.611  16.381  0.2547 -0.7139  0.3088
   16DOPE   H2S 1961   7.390   3.562  16.224 -0.7495 -0.3397  0.1506
   16DOPE    C3 1962   6.952   3.592  16.347  0.1068  0.0006  0.2945
   16DOPE    HX 1963   6.992   3.693  16.370 -1.9844  0.5063  2.1131
   16DOPE    HY 1964   6.864   3.569  16.411 -0.4113 -1.3246 -0.8291
   16DOPE   O31 1965   6.932   3.583  16.202 -0.1737 -0.6038  0.2954
   16DOPE   C31 1966   6.906   3.701  16.148 -0.2864 -0.0770 -0.5607
   16DOPE   O32 1967   6.869   3.805  16.204  0.1109 -0.0716  0.2145
   16DOPE   C32 1968   6.938   3.691  16.002 -0.0445 -0.3340 -0.6124
   16DOPE   H2X 1969   6.965   3.586  15.977  1.4986  0.0078 -0.4932
   16DOPE   H2Y 1970   6.852   3.727  15.941  1.6639  1.0445 -2.3287
   16DOPE   C23 1971   7.534   3.416  16.309  0.4725  0.7661  0.0203
   16DOPE   H3R 1972   7.493   3.340  16.238 -0.5123  1.8571 -0.6131
   16DOPE   H3S 1973   7.546   3.364  16.407 -1.7870  1.0314  0.4847
   16DOPE   C24 1974   7.663   3.470  16.271 -0.6189 -0.0265  0.0051
   16DOPE   H4R 1975   7.735   3.385  16.268  0.0604  0.4837  1.3195
   16DOPE   H4S 1976   7.705   3.541  16.345 -0.8003 -0.1762  0.2546
   16DOPE   C25 1977   7.663   3.529  16.125  0.0933 -0.2834  0.1965
   16DOPE   H5R 1978   7.607   3.624  16.141 -1.6717 -1.1502 -0.5368
   16DOPE   H5S 1979   7.598   3.469  16.059  0.1687 -0.3682  0.1998
   16DOPE   C26 1980   7.795   3.571  16.079 -0.4844  0.3074 -0.5977
   16DOPE   H6R 1981   7.853   3.478  16.097 -1.9371 -0.3527  0.9061
   16DOPE   H6S 1982   7.845   3.652  16.136 -0.6446 -1.0081  1.5318
   16DOPE   C27 1983   7.783   3.618  15.933 -0.4065 -0.2885 -0.5612
   16DOPE   H7R 1984   7.708   3.701  15.933 -0.5617 -0.4169  0.2099
   16DOPE   H7S 1985   7.748   3.534  15.870  3.1085 -0.7231 -2.1298
   16DOPE   C28 1986   7.916   3.677  15.884 -0.6068  0.5844 -1.0403
   16DOPE   H8R 1987   7.989   3.594  15.888  0.2135  1.3131 -0.5354
   16DOPE   H8S 1988   7.950   3.747  15.963 -0.1085 -0.6200 -0.1474
   16DOPE   C29 1989   7.908   3.740  15.753 -0.2466  0.3275 -0.0501
   16DOPE   H9R 1990   7.882   3.669  15.674  1.2504 -0.3473  0.0214
   16DOPE  C210 1991   7.889   3.872  15.736 -0.3053  0.3385  0.0450
   16DOPE  H10R 1992   7.899   3.921  15.638  1.5214 -2.2876 -1.1967
   16DOPE  C211 1993   7.876   3.969  15.852 -0.1078 -0.3978  0.9116
   16DOPE  H11R 1994   7.971   3.998  15.902 -0.0625  2.5961 -0.6837
   16DOPE  H11S 1995   7.814   3.930  15.935 -0.9912 -0.5785  0.1782
   16DOPE  C212 1996   7.809   4.105  15.810  1.3983  0.0618  0.5581
   16DOPE  H12R 1997   7.771   4.149  15.904 -0.1209 -0.8004  0.3891
   16DOPE  H12S 1998   7.717   4.102  15.747  2.3018  0.4651 -0.8310
   16DOPE  C213 1999   7.904   4.198  15.745 -0.0755  0.6437  0.4743
   16DOPE  H13R 2000   7.896   4.150  15.645 -1.8331  0.0784  0.8544
   16DOPE  H13S 2001   8.011   4.195  15.774  0.2710  0.7919 -0.7257
   16DOPE  C214 2002   7.853   4.346  15.740  0.6064 -0.5076  0.9381
   16DOPE  H14R 2003   7.754   4.365  15.693  1.7211  0.9841 -0.9797
   16DOPE  H14S 2004   7.916   4.399  15.665  0.1286  0.2948  1.0954
   16DOPE  C215 2005   7.865   4.418  15.874 -0.3501 -0.1974  0.1312
   16DOPE  H15R 2006   7.972   4.413  15.904 -0.2347  1.5799  0.0921
   16DOPE  H15S 2007   7.796   4.371  15.948  0.8448 -1.3673  0.5477
   16DOPE  C216 2008   7.824   4.568  15.868 -0.1222  0.0687 -0.0085
   16DOPE  H16R 2009   7.714   4.567  15.882 -0.0972 -1.2311  0.2483
   16DOPE  H16S 2010   7.845   4.616  15.770  0.5569  2.6960  1.3215
   16DOPE  C217 2011   7.881   4.656  15.983 -0.6302  0.0413  0.1749
   16DOPE  H17R 2012   7.848   4.760  15.964 -0.5836  0.2807  1.3470
   16DOPE  H17S 2013   7.992   4.663  15.983 -0.5882  0.6141  2.8867
   16DOPE  C218 2014   7.847   4.612  16.121 -0.2984  0.2494 -0.1404
   16DOPE  H18R 2015   7.867   4.504  16.139  0.3812  0.0232 -2.0793
   16DOPE  H18S 2016   7.739   4.623  16.142 -0.2859  0.4359 -0.1778
   16DOPE  H18T 2017   7.903   4.675  16.194  0.6801  1.3180 -1.7550
   16DOPE   C33 2018   7.066   3.769  15.973  0.4621 -0.4475  0.2291
   16DOPE   H3X 2019   7.140   3.758  16.055 -0.6217  1.7681  1.5983
   16DOPE   H3Y 2020   7.036   3.876  15.968  1.8145 -0.0265  0.7433
   16DOPE   C34 2021   7.140   3.727  15.845 -0.0627 -0.3371 -0.1376
   16DOPE   H4X 2022   7.170   3.620  15.851  0.9991 -0.1518 -1.6334
   16DOPE   H4Y 2023   7.088   3.734  15.747 -0.1169 -1.3684 -0.1914
   16DOPE   C35 2024   7.270   3.801  15.831 -0.2594  0.2883 -0.0776
   16DOPE   H5X 2025   7.350   3.773  15.903 -1.2000 -3.3822 -0.2737
   16DOPE   H5Y 2026   7.248   3.910  15.842 -1.2861  0.0660  0.0825
   16DOPE   C36 2027   7.335   3.795  15.685  0.2212 -0.0420  0.4276
   16DOPE   H6X 2028   7.271   3.852  15.615  0.9815  2.2665  1.5078
   16DOPE   H6Y 2029   7.343   3.687  15.662 -0.8160 -0.7613  3.0436
   16DOPE   C37 2030   7.472   3.867  15.679  0.1696 -0.2764 -0.1839
   16DOPE   H7X 2031   7.455   3.973  15.709 -0.4226  0.7804 -3.7428
   16DOPE   H7Y 2032   7.553   3.836  15.747  1.4860 -0.3253 -1.7228
   16DOPE   C38 2033   7.521   3.872  15.533  0.0301  0.7122  0.6579
   16DOPE   H8X 2034   7.597   3.953  15.539 -0.9006  1.5773  0.9546
   16DOPE   H8Y 2035   7.448   3.906  15.456 -0.9651 -1.9019  0.3497
   16DOPE   C39 2036   7.591   3.749  15.487  0.4645  0.1531  0.1371
   16DOPE   H9X 2037   7.560   3.650  15.525  0.9231  0.0069  0.1320
   16DOPE  C310 2038   7.706   3.745  15.413 -0.9885 -0.3563  0.0342
   16DOPE  H10X 2039   7.753   3.652  15.379 -1.8594 -1.0382  0.6635
   16DOPE  C311 2040   7.791   3.862  15.357  0.4062  0.3365  0.1419
   16DOPE  H11X 2041   7.768   3.884  15.251 -0.4614  0.5904  0.3683
   16DOPE  H11Y 2042   7.769   3.959  15.408 -1.5937  0.9849 -1.7866
   16DOPE  C312 2043   7.943   3.834  15.359  0.2552 -0.1252  0.2010
   16DOPE  H12X 2044   7.969   3.804  15.463  0.6628  0.4508  0.2754
   16DOPE  H12Y 2045   7.988   3.935  15.348 -1.4865  0.9562  2.2845
   16DOPE  C313 2046   8.000   3.732  15.252 -0.8971 -0.7774 -0.6669
   16DOPE  H13X 2047   7.932   3.645  15.240 -0.7905 -1.3931  2.3451
   16DOPE  H13Y 2048   8.005   3.774  15.149 -0.1289  0.5415 -0.1079
   16DOPE  C314 2049   8.148   3.701  15.283  0.2719 -0.0170  0.3496
   16DOPE  H14X 2050   8.165   3.661  15.385  1.7573  0.0425  0.1502
   16DOPE  H14Y 2051   8.200   3.797  15.262 -1.7882  0.7158 -1.8817
   16DOPE  C315 2052   8.203   3.596  15.180  0.5757  0.1313  0.2781
   16DOPE  H15X 2053   8.189   3.640  15.079 -1.3383 -2.6303 -0.7635
   16DOPE  H15Y 2054   8.132   3.511  15.186 -2.8586  2.8602  2.4067
   16DOPE  C316 2055   8.346   3.549  15.198 -0.1370 -0.2123  0.3492
   16DOPE  H16X 2056   8.380   3.478  15.121 -1.7591 -1.1702  0.4737
   16DOPE  H16Y 2057   8.357   3.497  15.296 -2.6001 -1.1538  0.1939
   16DOPE  C317 2058   8.447   3.660  15.220 -0.0209 -0.2285  0.2407
   16DOPE  H17X 2059   8.540   3.630  15.169 -0.6100  0.4371 -1.3012
   16DOPE  H17Y 2060   8.417   3.743  15.153 -0.6260 -0.4053  0.2849
   16DOPE  C318 2061   8.479   3.726  15.357  0.1530 -0.5292 -0.5504
   16DOPE  H18X 2062   8.587   3.752  15.352 -0.1054  1.1986  1.4913
   16DOPE  H18Y 2063   8.430   3.826  15.354  1.4520  0.1441 -0.1478
   16DOPE  H18Z 2064   8.455   3.669  15.449 -1.0079 -1.5879 -1.4665
   17DOPE     N 2065   2.102   7.292  16.978 -0.0153  0.2481  0.0083
   17DOPE   HN1 2066   2.170   7.250  16.911 -0.2024 -1.9663  1.1006
   17DOPE   HN2 2067   2.126   7.390  16.999 -1.6711  1.2825 -2.4423
   17DOPE   HN3 2068   2.116   7.229  17.060 -0.7067 -0.2466 -0.2414
   17DOPE   C12 2069   1.963   7.285  16.930 -0.8830 -0.3882  0.5640
   17DOPE  H12A 2070   1.951   7.372  16.862 -2.4889  0.5222  1.9281
   17DOPE  H12B 2071   1.890   7.302  17.013 -1.6628 -0.1181 -0.1618
   17DOPE   C11 2072   1.919   7.148  16.871  0.7524  0.5632  0.2100
   17DOPE  H11A 2073   1.964   7.132  16.770  1.2999 -2.1706  0.7935
   17DOPE  H11B 2074   1.808   7.159  16.861  0.7012  0.7322  0.9447
   17DOPE     P 2075   2.046   6.924  16.925 -0.0772 -0.2148 -0.2614
   17DOPE   O13 2076   2.023   6.821  17.024 -0.0390  0.3729 -0.4846
   17DOPE   O14 2077   2.186   6.973  16.902  0.1027  0.2465 -0.0929
   17DOPE   O11 2078   1.984   6.884  16.783 -0.0613  0.6672 -0.5497
   17DOPE   O12 2079   1.949   7.044  16.961  0.1919 -0.1757 -0.0607
   17DOPE    C1 2080   2.051   6.804  16.680 -0.5614  0.6828 -0.5261
   17DOPE    HA 2081   1.973   6.732  16.651 -2.9939  2.9424  0.0062
   17DOPE    HB 2082   2.134   6.748  16.729 -0.3128  4.4892  4.2904
   17DOPE    C2 2083   2.102   6.893  16.572  0.2654  0.5748  0.0060
   17DOPE    HS 2084   2.146   6.982  16.623 -0.0841  1.1591 -0.6994
   17DOPE   O21 2085   1.990   6.922  16.494 -0.2463  0.5608 -0.1918
   17DOPE   C21 2086   1.978   7.050  16.445  0.4771 -0.8310  0.0267
   17DOPE   O22 2087   2.054   7.140  16.470 -0.2405 -0.4337  0.0705
   17DOPE   C22 2088   1.850   7.054  16.364 -0.2065  0.9095 -0.1228
   17DOPE   H2R 2089   1.795   7.149  16.378 -0.3839  1.2105 -2.4481
   17DOPE   H2S 2090   1.790   6.969  16.404 -0.8349  1.8338  0.9529
   17DOPE    C3 2091   2.199   6.825  16.486 -0.9592 -0.1550  0.0836
   17DOPE    HX 2092   2.146   6.737  16.446 -3.0605  0.4296  1.4771
   17DOPE    HY 2093   2.283   6.785  16.547 -0.2542  0.4547 -0.4461
   17DOPE   O31 2094   2.242   6.902  16.370  0.2390 -0.0826 -0.0469
   17DOPE   C31 2095   2.336   6.988  16.395  0.2167  0.0049 -0.5203
   17DOPE   O32 2096   2.376   7.014  16.509 -0.0015  0.1940  0.2998
   17DOPE   C32 2097   2.400   7.026  16.259  0.6985 -0.8888 -0.7047
   17DOPE   H2X 2098   2.482   6.956  16.233 -0.8577 -2.4453 -1.6726
   17DOPE   H2Y 2099   2.327   6.995  16.181  1.1400  0.5170 -1.7113
   17DOPE   C23 2100   1.868   7.014  16.211 -0.7301  0.1985  0.3212
   17DOPE   H3R 2101   1.769   6.992  16.165 -0.8703  1.6406 -0.1236
   17DOPE   H3S 2102   1.923   6.917  16.206 -0.8291  0.1706 -0.3035
   17DOPE   C24 2103   1.938   7.119  16.122 -0.8787 -0.7866 -0.5295
   17DOPE   H4R 2104   2.047   7.128  16.139 -1.0111 -0.7206  0.3312
   17DOPE   H4S 2105   1.908   7.226  16.133  0.3998 -0.2581 -1.8831
   17DOPE   C25 2106   1.918   7.091  15.973 -0.4705  0.7782 -0.6002
   17DOPE   H5R 2107   1.817   7.117  15.934  0.0766  1.8055 -1.3661
   17DOPE   H5S 2108   1.933   6.981  15.966 -2.5660  0.3822  0.3521
   17DOPE   C26 2109   2.029   7.165  15.886  0.1333 -0.5900  0.2872
   17DOPE   H6R 2110   2.002   7.120  15.788 -0.2936 -1.0939  0.6327
   17DOPE   H6S 2111   2.125   7.122  15.922  0.1105 -1.8141 -1.0413
   17DOPE   C27 2112   2.023   7.322  15.890 -0.1968 -0.2654 -0.1460
   17DOPE   H7R 2113   2.046   7.351  15.995 -1.4119  1.3693 -0.2967
   17DOPE   H7S 2114   1.918   7.352  15.870  0.1933  1.6440  0.4921
   17DOPE   C28 2115   2.121   7.384  15.796 -0.2990  0.2267 -0.7509
   17DOPE   H8R 2116   2.136   7.309  15.716 -1.0727 -1.4370  0.6113
   17DOPE   H8S 2117   2.226   7.389  15.832  0.4371 -1.8283 -2.4364
   17DOPE   C29 2118   2.073   7.511  15.727  0.1592  0.1480 -0.3584
   17DOPE   H9R 2119   2.022   7.579  15.797  2.1078  0.9656  0.3523
   17DOPE  C210 2120   2.066   7.530  15.593 -0.9181  0.8041  0.3642
   17DOPE  H10R 2121   2.022   7.626  15.563  0.1373  1.3974  0.6513
   17DOPE  C211 2122   2.101   7.427  15.479  0.3638 -0.4021  0.6636
   17DOPE  H11R 2123   2.058   7.464  15.384  2.4046  2.1001  0.5860
   17DOPE  H11S 2124   2.050   7.332  15.504 -0.2878  0.0312  1.0230
   17DOPE  C212 2125   2.252   7.405  15.461 -1.0486  0.4532 -0.3385
   17DOPE  H12R 2126   2.298   7.369  15.555 -2.8115  0.4065  0.5522
   17DOPE  H12S 2127   2.307   7.501  15.449  0.1629  0.1612  2.1707
   17DOPE  C213 2128   2.285   7.298  15.355  0.2025  0.0322 -0.2612
   17DOPE  H13R 2129   2.236   7.338  15.263  0.0800  0.7631  0.1126
   17DOPE  H13S 2130   2.243   7.200  15.384 -0.6758 -0.0009 -1.5157
   17DOPE  C214 2131   2.438   7.285  15.330 -0.4090  0.0573 -0.2558
   17DOPE  H14R 2132   2.482   7.282  15.432  1.4729 -0.8326 -1.0404
   17DOPE  H14S 2133   2.464   7.378  15.275 -1.2498  0.3791 -0.1221
   17DOPE  C215 2134   2.484   7.156  15.270  0.9054 -0.2751  0.0366
   17DOPE  H15R 2135   2.422   7.151  15.178 -0.1992  1.2155  0.6742
   17DOPE  H15S 2136   2.444   7.069  15.326 -0.0393  0.4584  0.5179
   17DOPE  C216 2137   2.637   7.149  15.252  0.2604 -0.2906 -0.0044
   17DOPE  H16R 2138   2.703   7.168  15.340  1.3486  2.0445 -1.2462
   17DOPE  H16S 2139   2.665   7.236  15.188 -4.2465  2.2492  1.0301
   17DOPE  C217 2140   2.672   7.014  15.184 -0.1745  0.6267  0.1428
   17DOPE  H17R 2141   2.764   7.022  15.123  0.8822  0.8383  1.6945
   17DOPE  H17S 2142   2.588   6.968  15.128  0.3055  1.9189 -1.7417
   17DOPE  C218 2143   2.716   6.913  15.292  0.8220 -0.1155  0.7588
   17DOPE  H18R 2144   2.820   6.943  15.319  0.3938  2.0039  0.2280
   17DOPE  H18S 2145   2.713   6.813  15.244  1.5769 -0.1933  0.8583
   17DOPE  H18T 2146   2.650   6.924  15.380 -2.3072  0.3261 -1.4912
   17DOPE   C33 2147   2.419   7.179  16.240  0.0257 -1.0727  0.0559
   17DOPE   H3X 2148   2.472   7.227  16.325 -1.7368  2.6073 -0.7356
   17DOPE   H3Y 2149   2.326   7.233  16.210 -0.0573  0.0374  2.1572
   17DOPE   C34 2150   2.514   7.189  16.119 -0.3058 -0.1381  0.0745
   17DOPE   H4X 2151   2.545   7.295  16.105  1.3083 -0.5338  0.4039
   17DOPE   H4Y 2152   2.610   7.147  16.156  0.4936  1.8657  0.3865
   17DOPE   C35 2153   2.463   7.128  15.984  0.3199 -0.8330 -0.2328
   17DOPE   H5X 2154   2.377   7.194  15.961  0.9132  0.5878  1.3964
   17DOPE   H5Y 2155   2.429   7.022  15.988 -3.0823  0.1289 -0.4087
   17DOPE   C36 2156   2.562   7.138  15.867 -0.2670 -0.1872  0.2798
   17DOPE   H6X 2157   2.577   7.246  15.844 -2.3807  0.2242  0.5688
   17DOPE   H6Y 2158   2.519   7.100  15.771  2.1711 -0.2306 -0.8785
   17DOPE   C37 2159   2.685   7.054  15.880  0.7087 -0.2360  0.0239
   17DOPE   H7X 2160   2.741   7.103  15.962  0.9682 -0.6394  0.0880
   17DOPE   H7Y 2161   2.658   6.949  15.904  2.3848 -0.3998  1.3439
   17DOPE   C38 2162   2.776   7.061  15.756  0.1255  0.3231  0.6048
   17DOPE   H8X 2163   2.740   7.000  15.670 -1.6616  1.7314  0.3012
   17DOPE   H8Y 2164   2.872   7.012  15.784  1.1012  1.9331  0.2110
   17DOPE   C39 2165   2.816   7.200  15.722  0.2831  0.2005  0.4371
   17DOPE   H9X 2166   2.745   7.245  15.651  1.0958  1.9971  0.6991
   17DOPE  C310 2167   2.913   7.282  15.782  0.1715  0.1694 -0.1309
   17DOPE  H10X 2168   2.930   7.386  15.752  2.1223 -0.2075 -0.4786
   17DOPE  C311 2169   2.997   7.244  15.904 -0.4568  0.4031 -0.2525
   17DOPE  H11X 2170   2.968   7.140  15.931 -0.0995  0.4048  0.1522
   17DOPE  H11Y 2171   3.102   7.236  15.870 -0.3689 -0.7371  0.2254
   17DOPE  C312 2172   2.976   7.339  16.022  0.4030 -0.3257 -0.6121
   17DOPE  H12X 2173   3.048   7.315  16.103  0.1788  0.1045 -0.2798
   17DOPE  H12Y 2174   2.884   7.319  16.080 -0.4596  1.2051 -1.3865
   17DOPE  C313 2175   2.998   7.491  15.994  0.2323 -0.5148 -0.3645
   17DOPE  H13X 2176   3.082   7.517  15.927  0.5139  0.8087  0.4659
   17DOPE  H13Y 2177   2.905   7.530  15.949 -0.9247 -0.0287  2.2439
   17DOPE  C314 2178   3.018   7.570  16.124  0.1606  0.3953  0.8055
   17DOPE  H14X 2179   3.076   7.664  16.112  2.5760 -1.1180 -0.0973
   17DOPE  H14Y 2180   3.082   7.510  16.191 -0.6108  0.6866  1.8228
   17DOPE  C315 2181   2.893   7.605  16.201 -0.1630  0.1504 -0.7446
   17DOPE  H15X 2182   2.831   7.515  16.222 -0.4383  0.7014  0.9598
   17DOPE  H15Y 2183   2.823   7.666  16.139 -0.4898 -0.6886 -1.2190
   17DOPE  C316 2184   2.928   7.676  16.337  0.2997  0.4526 -0.4056
   17DOPE  H16X 2185   2.981   7.767  16.301 -0.8111  0.4134 -2.3196
   17DOPE  H16Y 2186   2.996   7.613  16.398  0.3326  0.3771 -0.5219
   17DOPE  C317 2187   2.807   7.703  16.423 -0.4203  0.7135 -0.2588
   17DOPE  H17X 2188   2.736   7.774  16.375  0.8166  2.6629  0.6499
   17DOPE  H17Y 2189   2.755   7.610  16.451  1.4812 -1.5253 -3.4567
   17DOPE  C318 2190   2.853   7.780  16.550  0.0089  0.2861 -0.0597
   17DOPE  H18X 2191   2.866   7.723  16.644  2.3297  2.9938  1.4217
   17DOPE  H18Y 2192   2.951   7.827  16.527 -0.2749  0.8638 -0.1146
   17DOPE  H18Z 2193   2.773   7.856  16.564 -0.2319  0.1760 -0.7799
   18DOPE     N 2194   6.235   4.712  16.580 -0.1247 -0.8027 -0.0161
   18DOPE   HN1 2195   6.316   4.717  16.646  0.1217 -0.4436 -0.3382
   18DOPE   HN2 2196   6.267   4.723  16.482 -0.3565  1.9185  0.1266
   18DOPE   HN3 2197   6.171   4.794  16.589  0.2204 -0.5208 -0.0608
   18DOPE   C12 2198   6.158   4.587  16.598  0.0819 -0.8049 -0.5714
   18DOPE  H12A 2199   6.200   4.507  16.533  1.0854 -0.1517 -0.7640
   18DOPE  H12B 2200   6.058   4.616  16.560 -0.0608 -0.5830 -0.0292
   18DOPE   C11 2201   6.141   4.560  16.753 -0.2680 -0.2621  0.2975
   18DOPE  H11A 2202   6.238   4.521  16.791 -0.4195 -0.3505  0.5960
   18DOPE  H11B 2203   6.066   4.479  16.762 -1.4584  0.6536 -0.8577
   18DOPE     P 2204   6.004   4.705  16.947 -0.3907 -0.2922 -0.0883
   18DOPE   O13 2205   6.027   4.845  16.987 -0.3420  0.0408  0.4375
   18DOPE   O14 2206   6.029   4.601  17.047  0.3477 -0.3159  0.9682
   18DOPE   O11 2207   5.848   4.686  16.914  0.5005  0.1077  0.0426
   18DOPE   O12 2208   6.088   4.674  16.817 -0.4170 -0.2173  0.0023
   18DOPE    C1 2209   5.794   4.741  16.790 -0.0016 -0.0565 -0.4881
   18DOPE    HA 2210   5.846   4.834  16.758 -1.5217  1.0689  0.1529
   18DOPE    HB 2211   5.694   4.784  16.814 -0.5998 -1.4024 -0.4815
   18DOPE    C2 2212   5.786   4.637  16.680  0.0221  0.2800 -0.4110
   18DOPE    HS 2213   5.881   4.580  16.685  0.6574  1.2690 -0.9912
   18DOPE   O21 2214   5.759   4.707  16.562 -0.3951  0.3403 -0.3810
   18DOPE   C21 2215   5.780   4.650  16.444  0.3746  0.6179 -0.7435
   18DOPE   O22 2216   5.843   4.544  16.428  0.0885 -0.4888 -0.2405
   18DOPE   C22 2217   5.718   4.716  16.331 -0.1204 -0.3474  0.1320
   18DOPE   H2R 2218   5.698   4.822  16.355 -0.3331 -0.0874 -1.1372
   18DOPE   H2S 2219   5.619   4.669  16.316 -0.4823  0.3617  0.2522
   18DOPE    C3 2220   5.680   4.525  16.710 -0.4480  0.2240  0.3505
   18DOPE    HX 2221   5.577   4.565  16.697 -0.7944 -0.5206  0.7073
   18DOPE    HY 2222   5.678   4.501  16.818  0.9873 -0.0868  0.3233
   18DOPE   O31 2223   5.709   4.398  16.643  0.1304 -0.2645 -0.3086
   18DOPE   C31 2224   5.620   4.356  16.549  0.4845 -0.3529 -0.5255
   18DOPE   O32 2225   5.521   4.419  16.518 -0.0194 -0.1663 -0.1389
   18DOPE   C32 2226   5.651   4.211  16.505 -0.0081 -0.3174  0.0127
   18DOPE   H2X 2227   5.738   4.169  16.559 -0.3274 -2.4823 -1.0490
   18DOPE   H2Y 2228   5.564   4.149  16.536  2.1132 -3.9881 -0.7269
   18DOPE   C23 2229   5.793   4.690  16.195 -0.7510  0.1720  0.5700
   18DOPE   H3R 2230   5.738   4.728  16.106  0.2021  1.2516  0.4166
   18DOPE   H3S 2231   5.809   4.582  16.178  0.0693  0.5705 -1.5751
   18DOPE   C24 2232   5.932   4.749  16.183 -0.0179 -0.8856 -0.1570
   18DOPE   H4R 2233   5.967   4.716  16.084  0.4480 -1.6042  0.2448
   18DOPE   H4S 2234   5.997   4.711  16.264  0.1947 -0.9930 -0.3783
   18DOPE   C25 2235   5.940   4.905  16.198  0.4780 -0.3707  0.3821
   18DOPE   H5R 2236   5.926   4.930  16.305  3.1383  2.8764  0.1453
   18DOPE   H5S 2237   5.859   4.960  16.145  0.1213 -1.0044  0.2490
   18DOPE   C26 2238   6.073   4.967  16.152  0.0444  0.5315 -0.8826
   18DOPE   H6R 2239   6.084   4.955  16.042 -1.9541 -1.5091 -0.9329
   18DOPE   H6S 2240   6.148   4.917  16.218 -0.8983  0.8936  0.4888
   18DOPE   C27 2241   6.097   5.116  16.181 -0.2636 -0.4673 -0.5550
   18DOPE   H7R 2242   6.207   5.129  16.175 -0.3171  0.0117 -0.5730
   18DOPE   H7S 2243   6.064   5.139  16.285 -0.3006 -0.8123 -0.4886
   18DOPE   C28 2244   6.034   5.204  16.074  0.6958 -0.3784  0.1886
   18DOPE   H8R 2245   5.926   5.181  16.081  0.2200  1.7065  0.4128
   18DOPE   H8S 2246   6.069   5.173  15.973 -0.6034 -3.0938  0.4996
   18DOPE   C29 2247   6.054   5.348  16.105  0.4640 -0.1050  0.7638
   18DOPE   H9R 2248   6.001   5.385  16.194  0.0332 -0.9704  0.8780
   18DOPE  C210 2249   6.134   5.432  16.038  0.4571 -0.1544  0.8206
   18DOPE  H10R 2250   6.152   5.538  16.063  0.3289  0.3696 -1.1092
   18DOPE  C211 2251   6.212   5.392  15.918 -0.4028 -0.6406 -0.0299
   18DOPE  H11R 2252   6.247   5.288  15.935 -0.5868 -0.6848  0.0702
   18DOPE  H11S 2253   6.294   5.461  15.889  0.1414 -2.1019 -2.2938
   18DOPE  C212 2254   6.122   5.408  15.793  0.0169  0.3542 -0.0865
   18DOPE  H12R 2255   6.089   5.514  15.788  0.3629  0.4265 -1.0359
   18DOPE  H12S 2256   6.032   5.342  15.797 -0.1646  0.6471  2.1222
   18DOPE  C213 2257   6.193   5.367  15.660  0.0442 -0.6754  0.1649
   18DOPE  H13R 2258   6.225   5.260  15.660 -1.0188 -1.0238  1.3378
   18DOPE  H13S 2259   6.290   5.421  15.661 -0.3068 -0.0329  1.6852
   18DOPE  C214 2260   6.130   5.394  15.528  0.1007  0.1402  0.1224
   18DOPE  H14R 2261   6.099   5.500  15.518 -0.3230  0.0080 -0.0163
   18DOPE  H14S 2262   6.035   5.337  15.524 -0.0871  0.3977  0.8105
   18DOPE  C215 2263   6.220   5.346  15.413 -0.2911  0.1963  0.2929
   18DOPE  H15R 2264   6.263   5.245  15.430 -2.2037 -1.0788 -1.9139
   18DOPE  H15S 2265   6.300   5.423  15.406  2.4966 -2.3408  2.0366
   18DOPE  C216 2266   6.144   5.326  15.280  0.0001 -0.2950  0.2372
   18DOPE  H16R 2267   6.090   5.416  15.244 -1.4727 -0.9558  0.6906
   18DOPE  H16S 2268   6.070   5.244  15.295 -1.1897  0.6623 -0.2139
   18DOPE  C217 2269   6.238   5.285  15.157 -0.3396 -0.5499 -0.0189
   18DOPE  H17R 2270   6.327   5.350  15.164 -0.1944 -0.9041  2.5730
   18DOPE  H17S 2271   6.183   5.299  15.062  0.8616  1.0980 -0.5068
   18DOPE  C218 2272   6.296   5.145  15.174  1.0529 -0.2281  0.2831
   18DOPE  H18R 2273   6.326   5.125  15.279 -0.5143 -0.7982  0.6500
   18DOPE  H18S 2274   6.375   5.115  15.102  0.9851  0.4033 -0.0692
   18DOPE  H18T 2275   6.213   5.072  15.162  1.3915 -0.1140 -5.2160
   18DOPE   C33 2276   5.670   4.190  16.357 -0.0643  0.6362  0.8094
   18DOPE   H3X 2277   5.586   4.243  16.306 -1.6417 -0.4451  2.1855
   18DOPE   H3Y 2278   5.658   4.082  16.336  1.7762  0.3986  0.8001
   18DOPE   C34 2279   5.808   4.222  16.299 -0.0569 -0.7891  0.9556
   18DOPE   H4X 2280   5.833   4.327  16.324 -0.2266 -0.0709 -1.6456
   18DOPE   H4Y 2281   5.889   4.168  16.352  1.3934 -0.9553 -1.2845
   18DOPE   C35 2282   5.828   4.194  16.143 -0.0690 -0.8066 -0.2177
   18DOPE   H5X 2283   5.814   4.086  16.120 -1.7967 -0.4051 -1.1800
   18DOPE   H5Y 2284   5.936   4.220  16.147 -0.4030  0.7409 -0.6175
   18DOPE   C36 2285   5.749   4.280  16.051 -0.0107 -0.1704 -0.0817
   18DOPE   H6X 2286   5.754   4.389  16.076  1.4228  0.3385 -2.2977
   18DOPE   H6Y 2287   5.643   4.248  16.064  0.2906 -0.8475  0.7525
   18DOPE   C37 2288   5.796   4.265  15.901  0.7012  0.1090 -0.3406
   18DOPE   H7X 2289   5.771   4.162  15.870 -1.0801  0.4235 -0.0165
   18DOPE   H7Y 2290   5.744   4.335  15.832  2.1951 -0.3402 -1.9971
   18DOPE   C38 2291   5.949   4.279  15.879 -0.4063  0.2257  0.5040
   18DOPE   H8X 2292   5.969   4.269  15.771 -1.2852 -1.0543  0.4454
   18DOPE   H8Y 2293   5.993   4.183  15.912 -0.7446 -0.5868 -1.3206
   18DOPE   C39 2294   6.013   4.399  15.941  0.0954 -0.1743 -0.0570
   18DOPE   H9X 2295   6.020   4.399  16.051 -2.4521 -1.0059  0.1596
   18DOPE  C310 2296   6.030   4.514  15.868 -0.0824  0.5609  0.2454
   18DOPE  H10X 2297   6.065   4.605  15.920  0.6041  1.9010 -2.3781
   18DOPE  C311 2298   5.994   4.534  15.722 -0.0036  0.1469 -0.6438
   18DOPE  H11X 2299   5.894   4.485  15.716 -0.4683  0.5177  2.4141
   18DOPE  H11Y 2300   5.984   4.640  15.691 -0.0749 -0.4865 -2.9858
   18DOPE  C312 2301   6.075   4.462  15.606  0.2794  0.5558 -0.2288
   18DOPE  H12X 2302   6.086   4.356  15.638 -0.5852  0.3254 -0.6659
   18DOPE  H12Y 2303   6.173   4.512  15.592  0.1169  1.1015  0.5269
   18DOPE  C313 2304   5.991   4.480  15.476 -0.7204 -0.1107 -0.7135
   18DOPE  H13X 2305   5.898   4.421  15.492 -0.4866 -0.2803  0.0936
   18DOPE  H13Y 2306   5.965   4.587  15.461  0.7633  0.2201 -1.0025
   18DOPE  C314 2307   6.064   4.426  15.344  0.4056 -0.6433 -0.6235
   18DOPE  H14X 2308   6.068   4.316  15.360  0.8578 -0.5195  0.1563
   18DOPE  H14Y 2309   6.171   4.453  15.335  0.5260 -1.4092 -1.6700
   18DOPE  C315 2310   5.995   4.447  15.208 -0.1286 -0.1479 -0.1000
   18DOPE  H15X 2311   5.887   4.426  15.225 -0.0274 -0.5135  0.0924
   18DOPE  H15Y 2312   6.027   4.367  15.138 -0.6712 -0.4874  0.0303
   18DOPE  C316 2313   6.023   4.588  15.141 -0.4448  0.6359  0.5711
   18DOPE  H16X 2314   6.005   4.666  15.219  1.1917 -0.3103  1.9711
   18DOPE  H16Y 2315   5.952   4.617  15.061  1.7963  0.7644 -1.4744
   18DOPE  C317 2316   6.165   4.595  15.076 -0.0529  0.1039  0.1454
   18DOPE  H17X 2317   6.162   4.685  15.011  1.4911 -0.8782 -1.3830
   18DOPE  H17Y 2318   6.237   4.609  15.160 -0.9820  1.8407  0.7007
   18DOPE  C318 2319   6.201   4.478  14.990 -0.2274  0.2926 -0.2847
   18DOPE  H18X 2320   6.114   4.432  14.938 -0.4174 -0.0361  0.3213
   18DOPE  H18Y 2321   6.268   4.527  14.916 -0.2147 -0.3339 -0.6988
   18DOPE  H18Z 2322   6.249   4.397  15.048 -1.2552 -0.0927  0.0639
   19DOPE     N 2323   7.318   4.314  16.883  0.4816 -0.8358  0.1078
   19DOPE   HN1 2324   7.257   4.336  16.965 -1.4283 -0.9988 -1.1981
   19DOPE   HN2 2325   7.308   4.213  16.864 -2.1883 -0.3662 -1.5601
   19DOPE   HN3 2326   7.415   4.350  16.894  0.5649 -1.0212 -0.0272
   19DOPE   C12 2327   7.255   4.389  16.763 -0.0114 -0.1221 -0.3620
   19DOPE  H12A 2328   7.328   4.383  16.680  0.0298  1.2333 -0.4380
   19DOPE  H12B 2329   7.247   4.497  16.787  1.2157  0.1878 -1.2494
   19DOPE   C11 2330   7.113   4.348  16.720  0.0042 -0.0902 -0.7868
   19DOPE  H11A 2331   7.114   4.238  16.705 -1.9864 -0.4791  1.3020
   19DOPE  H11B 2332   7.099   4.386  16.617 -0.2119 -0.1803 -0.7903
   19DOPE     P 2333   6.946   4.291  16.915 -0.4304 -0.1845 -0.0609
   19DOPE   O13 2334   6.853   4.359  17.007  0.1724 -0.0446 -0.0383
   19DOPE   O14 2335   7.049   4.209  16.980 -0.4851  0.2295  0.3499
   19DOPE   O11 2336   6.866   4.199  16.819 -0.0355 -0.1542  0.4953
   19DOPE   O12 2337   7.015   4.390  16.809  0.2683 -0.6891 -0.4652
   19DOPE    C1 2338   6.750   4.265  16.762 -0.2698 -0.1721 -0.0986
   19DOPE    HA 2339   6.776   4.355  16.702  0.9913  0.4828  1.3440
   19DOPE    HB 2340   6.679   4.289  16.844  0.3846 -0.0215  0.4392
   19DOPE    C2 2341   6.675   4.172  16.666 -0.5516  0.0836 -0.3067
   19DOPE    HS 2342   6.575   4.221  16.664  0.0630  1.6058  1.9439
   19DOPE   O21 2343   6.675   4.035  16.724  0.0843  0.0721  0.0179
   19DOPE   C21 2344   6.564   3.971  16.698  0.9767  0.1160 -0.1475
   19DOPE   O22 2345   6.464   4.012  16.647  0.1587  0.3502  0.9222
   19DOPE   C22 2346   6.565   3.825  16.751  0.0847  0.4606  0.1599
   19DOPE   H2R 2347   6.542   3.827  16.859 -4.0199 -0.2376 -0.5459
   19DOPE   H2S 2348   6.670   3.789  16.745 -0.8992 -2.5145 -0.9450
   19DOPE    C3 2349   6.747   4.167  16.524  0.3356 -0.0767 -0.2095
   19DOPE    HX 2350   6.855   4.153  16.544  0.6014  0.0204 -1.4830
   19DOPE    HY 2351   6.735   4.261  16.467 -0.2021 -0.4183 -0.6737
   19DOPE   O31 2352   6.695   4.050  16.447 -0.2213 -0.1213 -0.0371
   19DOPE   C31 2353   6.594   4.078  16.360 -0.0486  0.0165  0.6176
   19DOPE   O32 2354   6.563   4.190  16.321  0.0878 -0.1491 -0.0629
   19DOPE   C32 2355   6.537   3.947  16.307 -0.1180  0.3373 -0.6046
   19DOPE   H2X 2356   6.619   3.874  16.290 -1.3236 -0.9383 -1.0675
   19DOPE   H2Y 2357   6.461   3.913  16.381  1.9572 -0.4268  1.3174
   19DOPE   C23 2358   6.469   3.730  16.680  0.4808  0.4738  0.7981
   19DOPE   H3R 2359   6.437   3.765  16.579 -4.9386  0.8560  2.3107
   19DOPE   H3S 2360   6.378   3.743  16.743 -0.0359  1.9015 -0.1835
   19DOPE   C24 2361   6.513   3.582  16.685 -0.5874  0.3232  0.0883
   19DOPE   H4R 2362   6.423   3.516  16.693 -3.1341  3.4647 -0.7449
   19DOPE   H4S 2363   6.577   3.581  16.776  0.6071  3.6928 -0.5927
   19DOPE   C25 2364   6.600   3.535  16.560  0.6127 -0.0254 -0.4008
   19DOPE   H5R 2365   6.699   3.584  16.555  1.1867 -1.1171  0.0005
   19DOPE   H5S 2366   6.545   3.560  16.467  1.5512  1.6581 -0.5442
   19DOPE   C26 2367   6.635   3.386  16.553  0.6169  0.3638 -0.3826
   19DOPE   H6R 2368   6.689   3.327  16.631 -0.9966 -1.3728 -0.5121
   19DOPE   H6S 2369   6.700   3.378  16.464 -0.2617 -1.2843 -0.9256
   19DOPE   C27 2370   6.511   3.301  16.508 -0.3231  0.1441 -0.0551
   19DOPE   H7R 2371   6.470   3.352  16.418  0.1697  1.5037  0.4597
   19DOPE   H7S 2372   6.438   3.307  16.592  1.4275 -0.3935  1.5561
   19DOPE   C28 2373   6.534   3.153  16.485 -0.3603  0.5746 -0.0084
   19DOPE   H8R 2374   6.581   3.126  16.582 -0.0502  0.6135 -0.1469
   19DOPE   H8S 2375   6.613   3.148  16.406 -0.3589  1.5584 -0.0832
   19DOPE   C29 2376   6.411   3.069  16.459 -0.4187  0.1178 -0.1243
   19DOPE   H9R 2377   6.342   3.069  16.544 -1.4885 -0.8902 -0.9545
   19DOPE  C210 2378   6.371   3.007  16.341 -0.5958  0.5672 -0.0987
   19DOPE  H10R 2379   6.282   2.942  16.341  0.7318 -1.3125  0.5278
   19DOPE  C211 2380   6.448   3.012  16.206 -0.2947 -0.4485  0.3034
   19DOPE  H11R 2381   6.508   3.105  16.206 -0.4494 -0.2109 -3.1086
   19DOPE  H11S 2382   6.375   3.027  16.124 -0.6219  0.7895  0.8108
   19DOPE  C212 2383   6.549   2.897  16.176  0.3695  0.2941  0.6992
   19DOPE  H12R 2384   6.491   2.803  16.164 -0.2444  0.6098  1.1040
   19DOPE  H12S 2385   6.606   2.886  16.271  0.0706  0.3109  0.8833
   19DOPE  C213 2386   6.627   2.913  16.044  0.0897  0.4124 -0.7977
   19DOPE  H13R 2387   6.679   3.010  16.028  1.5265  0.0332  1.1486
   19DOPE  H13S 2388   6.562   2.909  15.954  1.6036  2.0499 -2.0268
   19DOPE  C214 2389   6.744   2.815  16.034  1.0416  0.3927 -0.5701
   19DOPE  H14R 2390   6.708   2.710  16.037 -3.2650  1.6545 -1.5391
   19DOPE  H14S 2391   6.811   2.814  16.123  0.4726  0.2282 -0.1398
   19DOPE  C215 2392   6.826   2.830  15.909 -0.8364 -0.3768 -0.1942
   19DOPE  H15R 2393   6.910   2.757  15.915 -2.2147 -2.4824 -3.6450
   19DOPE  H15S 2394   6.875   2.929  15.902 -1.0014 -0.2645  0.1836
   19DOPE  C216 2395   6.746   2.798  15.781 -0.2892 -0.3890  0.5761
   19DOPE  H16R 2396   6.673   2.877  15.753 -0.8499 -0.3918  1.9729
   19DOPE  H16S 2397   6.685   2.707  15.799 -0.4080 -0.9351 -2.2362
   19DOPE  C217 2398   6.831   2.765  15.657  0.6517  0.7416 -0.4485
   19DOPE  H17R 2399   6.902   2.844  15.625  1.3578  0.1552 -0.3618
   19DOPE  H17S 2400   6.750   2.755  15.581 -1.5250 -3.0852  1.9988
   19DOPE  C218 2401   6.909   2.633  15.667  0.3915  0.0696  0.1106
   19DOPE  H18R 2402   6.959   2.620  15.568  2.2471  1.0020  0.8813
   19DOPE  H18S 2403   6.844   2.546  15.692  0.6504 -0.2849 -0.4214
   19DOPE  H18T 2404   6.985   2.649  15.746  0.6467  0.7360 -0.2598
   19DOPE   C33 2405   6.472   3.949  16.175  0.5259 -0.1638 -0.4562
   19DOPE   H3X 2406   6.392   4.027  16.172  2.4443  1.9910  0.8071
   19DOPE   H3Y 2407   6.426   3.852  16.147  0.3055  0.1082 -1.0554
   19DOPE   C34 2408   6.570   3.997  16.060 -0.6792  0.1478 -0.5417
   19DOPE   H4X 2409   6.596   4.105  16.071  2.7914 -0.2726 -3.0727
   19DOPE   H4Y 2410   6.665   3.941  16.066 -2.6742 -3.3855  0.8325
   19DOPE   C35 2411   6.508   3.984  15.924  0.0267  0.6159  0.6122
   19DOPE   H5X 2412   6.425   4.054  15.904 -0.5971 -0.7097 -1.7961
   19DOPE   H5Y 2413   6.476   3.879  15.905 -1.0165  0.7534  1.5207
   19DOPE   C36 2414   6.625   3.997  15.827 -0.1577 -0.5909 -0.4309
   19DOPE   H6X 2415   6.692   3.911  15.848 -0.9148 -1.4705 -1.4803
   19DOPE   H6Y 2416   6.677   4.095  15.838  0.6992 -1.1889  1.0812
   19DOPE   C37 2417   6.591   3.981  15.676 -0.1599 -0.4501  0.5291
   19DOPE   H7X 2418   6.686   3.990  15.620 -1.0680 -1.8913 -1.4146
   19DOPE   H7Y 2419   6.542   3.887  15.641 -1.7100  0.9719 -1.3828
   19DOPE   C38 2420   6.502   4.097  15.623  0.2382 -0.2381 -0.4931
   19DOPE   H8X 2421   6.521   4.117  15.515  0.5788 -2.2658 -0.8513
   19DOPE   H8Y 2422   6.528   4.189  15.679  0.6418 -0.3434 -0.5088
   19DOPE   C39 2423   6.355   4.056  15.631  0.0715 -0.5972  0.3888
   19DOPE   H9X 2424   6.311   4.066  15.731 -0.8933  0.4122 -0.1184
   19DOPE  C310 2425   6.281   4.003  15.534 -0.2799  0.6082 -0.2099
   19DOPE  H10X 2426   6.176   3.990  15.565 -0.3210  0.9597 -0.1935
   19DOPE  C311 2427   6.323   3.964  15.389  0.4965  0.6940 -0.1849
   19DOPE  H11X 2428   6.429   3.995  15.393  0.0750  2.1828  3.1697
   19DOPE  H11Y 2429   6.322   3.854  15.371  0.9791  0.6526  0.0147
   19DOPE  C312 2430   6.245   4.033  15.282 -0.0368  0.3553  0.5374
   19DOPE  H12X 2431   6.299   4.036  15.185  0.2153 -0.6389  0.6360
   19DOPE  H12Y 2432   6.224   4.139  15.305 -1.4962  0.2708 -0.3027
   19DOPE  C313 2433   6.109   3.960  15.248 -0.5002  0.5784  0.9633
   19DOPE  H13X 2434   6.109   3.938  15.139 -0.3785 -0.5076  1.1718
   19DOPE  H13Y 2435   6.115   3.867  15.308  1.0692  1.2496  1.8934
   19DOPE  C314 2436   5.989   4.041  15.299 -0.0592  0.2437 -0.1654
   19DOPE  H14X 2437   5.989   4.141  15.250 -0.5905  0.4271  0.2012
   19DOPE  H14Y 2438   5.999   4.052  15.409  1.5360 -0.7523 -0.1818
   19DOPE  C315 2439   5.861   3.967  15.269 -0.2153  0.3805  0.2832
   19DOPE  H15X 2440   5.859   3.872  15.327 -0.1316 -1.0679 -1.9376
   19DOPE  H15Y 2441   5.863   3.932  15.164 -0.8948  1.7125 -0.1967
   19DOPE  C316 2442   5.730   4.042  15.290 -0.2442 -0.3786  0.2532
   19DOPE  H16X 2443   5.717   4.089  15.390  1.3732  2.5844 -0.7991
   19DOPE  H16Y 2444   5.648   3.968  15.279  0.0376 -0.6835  0.1944
   19DOPE  C317 2445   5.702   4.155  15.187  0.5926  0.6752  0.2845
   19DOPE  H17X 2446   5.612   4.210  15.222 -0.0953  1.4285 -2.4201
   19DOPE  H17Y 2447   5.787   4.225  15.198  1.8718 -0.9565  1.2657
   19DOPE  C318 2448   5.683   4.112  15.034 -0.3154  0.0307 -0.0829
   19DOPE  H18X 2449   5.778   4.065  15.002 -0.1137 -0.1382  0.7369
   19DOPE  H18Y 2450   5.587   4.059  15.022 -1.2933  1.5990  0.4418
   19DOPE  H18Z 2451   5.674   4.200  14.966 -1.3677 -0.7623 -0.9861
   20DOPE     N 2452   5.104   7.024  17.111 -0.0427  0.0669  0.7092
   20DOPE   HN1 2453   5.030   6.955  17.088 -1.2137  2.0071 -1.8352
   20DOPE   HN2 2454   5.197   6.980  17.125  0.8630  1.9718  1.0744
   20DOPE   HN3 2455   5.081   7.057  17.207  0.1122 -0.3159  0.8804
   20DOPE   C12 2456   5.107   7.142  17.015  0.6801 -0.0218 -0.6923
   20DOPE  H12A 2457   5.160   7.227  17.062  0.6715 -0.1323 -0.4840
   20DOPE  H12B 2458   5.001   7.169  16.995  0.0867 -0.6506  1.3520
   20DOPE   C11 2459   5.176   7.099  16.885  0.1824  0.6937  0.0407
   20DOPE  H11A 2460   5.190   7.176  16.805  2.7700  1.1309  0.8313
   20DOPE  H11B 2461   5.105   7.024  16.845 -0.6528  0.0646  2.5579
   20DOPE     P 2462   5.438   7.081  16.858  0.0602 -0.4668  0.0093
   20DOPE   O13 2463   5.518   6.956  16.875 -0.0135 -0.2481  0.2646
   20DOPE   O14 2464   5.484   7.211  16.927 -0.0691  0.1786 -0.1872
   20DOPE   O11 2465   5.414   7.100  16.703 -0.5193  0.1698 -0.5856
   20DOPE   O12 2466   5.297   7.038  16.915 -0.3324 -0.5919  0.3844
   20DOPE    C1 2467   5.518   7.083  16.616  0.2688 -0.0913 -0.0517
   20DOPE    HA 2468   5.493   7.004  16.542  0.2258  0.2720 -0.4254
   20DOPE    HB 2469   5.621   7.069  16.656 -0.1069  0.1698  1.0562
   20DOPE    C2 2470   5.544   7.218  16.537  0.4239  0.6153  0.0493
   20DOPE    HS 2471   5.574   7.299  16.607  0.5283  1.1721 -0.6305
   20DOPE   O21 2472   5.430   7.252  16.461 -0.3647  0.3454  0.0979
   20DOPE   C21 2473   5.345   7.330  16.521 -1.0953  0.1946 -0.0485
   20DOPE   O22 2474   5.349   7.368  16.637  0.3771 -0.1770  0.2948
   20DOPE   C22 2475   5.241   7.373  16.415 -0.3181 -0.1552 -0.0941
   20DOPE   H2R 2476   5.140   7.330  16.434  0.4264 -2.5830 -1.1083
   20DOPE   H2S 2477   5.271   7.338  16.314 -0.6946  0.8773 -0.5720
   20DOPE    C3 2478   5.664   7.201  16.437  0.0401  0.2106 -0.1611
   20DOPE    HX 2479   5.647   7.116  16.367 -0.9119  0.4214 -0.1908
   20DOPE    HY 2480   5.752   7.191  16.503  0.3569  1.7154 -0.3136
   20DOPE   O31 2481   5.685   7.325  16.367 -0.2874  0.8046  0.7161
   20DOPE   C31 2482   5.798   7.309  16.294  0.4552  0.2334  0.3501
   20DOPE   O32 2483   5.865   7.207  16.285  0.1723 -0.3362  0.0275
   20DOPE   C32 2484   5.798   7.421  16.190 -0.4050  0.0944 -0.3765
   20DOPE   H2X 2485   5.859   7.392  16.101 -1.0761  1.0896 -1.1807
   20DOPE   H2Y 2486   5.690   7.425  16.165 -0.2615 -1.1595 -1.2823
   20DOPE   C23 2487   5.230   7.524  16.423 -0.6844 -0.4096  0.2206
   20DOPE   H3R 2488   5.216   7.558  16.528 -3.4096 -0.0120 -0.1965
   20DOPE   H3S 2489   5.142   7.556  16.364 -0.5097 -0.1507  0.1003
   20DOPE   C24 2490   5.359   7.591  16.363  0.2145  0.3995 -0.2465
   20DOPE   H4R 2491   5.447   7.552  16.419 -2.1382 -0.7730  2.9053
   20DOPE   H4S 2492   5.360   7.701  16.375  0.0554  0.3637  0.1051
   20DOPE   C25 2493   5.396   7.545  16.219  0.0850 -0.3152 -0.1724
   20DOPE   H5R 2494   5.299   7.546  16.163  0.5416  1.4793 -1.0133
   20DOPE   H5S 2495   5.437   7.442  16.217 -0.3439 -0.5071  0.4912
   20DOPE   C26 2496   5.477   7.648  16.140  0.3442  0.2062 -0.3575
   20DOPE   H6R 2497   5.578   7.662  16.182  0.4835 -0.7846 -0.3575
   20DOPE   H6S 2498   5.433   7.749  16.160 -0.1880  0.0891 -0.8943
   20DOPE   C27 2499   5.474   7.622  15.987 -0.0970  0.0618  0.2498
   20DOPE   H7R 2500   5.367   7.634  15.958 -0.5104 -1.6960  0.9327
   20DOPE   H7S 2501   5.496   7.514  15.973 -2.7164 -0.6771  1.3453
   20DOPE   C28 2502   5.568   7.712  15.905  0.4766  0.6580 -0.7798
   20DOPE   H8R 2503   5.663   7.704  15.962  0.3732 -1.6928 -0.8350
   20DOPE   H8S 2504   5.521   7.812  15.911 -0.1590  0.3307 -0.1941
   20DOPE   C29 2505   5.576   7.655  15.765  0.2866 -0.7757  0.5854
   20DOPE   H9R 2506   5.496   7.692  15.699  1.2354  0.6601  0.1980
   20DOPE  C210 2507   5.671   7.577  15.727 -0.1528  0.1097  0.3452
   20DOPE  H10R 2508   5.658   7.537  15.625 -0.0837  0.2406  0.2843
   20DOPE  C211 2509   5.792   7.526  15.808 -0.3202  0.0397 -0.5251
   20DOPE  H11R 2510   5.810   7.418  15.785 -1.0374 -0.4671  1.2039
   20DOPE  H11S 2511   5.775   7.519  15.917 -0.7925  0.2463 -0.5819
   20DOPE  C212 2512   5.911   7.613  15.773  0.1699 -0.5814 -0.1932
   20DOPE  H12R 2513   5.904   7.711  15.823  0.8226 -0.9560  0.6678
   20DOPE  H12S 2514   5.920   7.641  15.666 -0.5666 -0.1748 -0.1494
   20DOPE  C213 2515   6.040   7.543  15.821  0.0996  0.1015  0.1340
   20DOPE  H13R 2516   6.034   7.434  15.802  1.1757 -0.0055  0.3280
   20DOPE  H13S 2517   6.049   7.556  15.931 -0.6471  1.4544  0.0615
   20DOPE  C214 2518   6.160   7.595  15.737 -0.2041 -0.1857 -0.0535
   20DOPE  H14R 2519   6.185   7.700  15.763 -0.8399 -0.4414  1.7094
   20DOPE  H14S 2520   6.134   7.593  15.629 -2.0381  1.1061  0.3324
   20DOPE  C215 2521   6.292   7.507  15.734  0.6278 -0.4493 -0.0227
   20DOPE  H15R 2522   6.272   7.416  15.674 -1.4925 -0.0219 -0.0164
   20DOPE  H15S 2523   6.308   7.482  15.841  0.2959 -0.3589  0.0493
   20DOPE  C216 2524   6.415   7.589  15.689 -0.1435  1.1893 -0.0017
   20DOPE  H16R 2525   6.406   7.690  15.736 -1.0591  1.1896 -0.1552
   20DOPE  H16S 2526   6.405   7.614  15.581 -1.5444  1.7276  0.2344
   20DOPE  C217 2527   6.549   7.516  15.707 -0.2559  0.2445 -0.4187
   20DOPE  H17R 2528   6.619   7.561  15.634 -0.0969  1.1309  0.2742
   20DOPE  H17S 2529   6.558   7.408  15.681  1.7717  0.4763 -0.8447
   20DOPE  C218 2530   6.592   7.512  15.848 -0.6154  0.2352 -1.1343
   20DOPE  H18R 2531   6.627   7.609  15.890  1.6389 -1.4420  1.1607
   20DOPE  H18S 2532   6.683   7.448  15.858  1.2623  2.9082  0.3232
   20DOPE  H18T 2533   6.516   7.474  15.919  0.6345 -0.4385 -0.1087
   20DOPE   C33 2534   5.853   7.554  16.252  0.1250 -0.0995 -0.2203
   20DOPE   H3X 2535   5.805   7.574  16.350 -2.4793  1.2085 -1.6673
   20DOPE   H3Y 2536   5.817   7.634  16.183  0.0288  1.0519  1.1052
   20DOPE   C34 2537   6.001   7.563  16.260 -0.3046  0.7986  0.1977
   20DOPE   H4X 2538   6.050   7.491  16.329 -1.4891 -1.0142 -0.7626
   20DOPE   H4Y 2539   6.041   7.541  16.159 -0.8071  0.0801  0.1455
   20DOPE   C35 2540   6.038   7.707  16.306 -0.1134 -0.6762  0.1835
   20DOPE   H5X 2541   5.995   7.730  16.406 -0.6205  1.0537 -0.4019
   20DOPE   H5Y 2542   5.988   7.771  16.231 -1.0197 -1.4352  0.1247
   20DOPE   C36 2543   6.193   7.737  16.325 -0.4179 -0.3702 -0.2559
   20DOPE   H6X 2544   6.237   7.674  16.405  1.1435  0.1267 -0.7022
   20DOPE   H6Y 2545   6.210   7.842  16.358  2.0829  0.1926 -2.9857
   20DOPE   C37 2546   6.271   7.709  16.190  0.3505 -0.1103 -1.1061
   20DOPE   H7X 2547   6.377   7.728  16.214 -0.1235  0.4106  0.7144
   20DOPE   H7Y 2548   6.253   7.603  16.162  2.0476  0.2108 -3.8165
   20DOPE   C38 2549   6.239   7.803  16.079  0.3437 -0.0449 -0.3641
   20DOPE   H8X 2550   6.140   7.773  16.040  1.8580 -2.1553 -2.9486
   20DOPE   H8Y 2551   6.307   7.784  15.993 -0.6170  1.7538 -1.5866
   20DOPE   C39 2552   6.257   7.948  16.111  0.1719 -0.7703  0.0977
   20DOPE   H9X 2553   6.171   7.997  16.159  1.5819  0.5182  1.3948
   20DOPE  C310 2554   6.375   8.022  16.094  0.4021 -0.3117 -0.2055
   20DOPE  H10X 2555   6.376   8.127  16.126 -2.1182 -0.1434 -0.4576
   20DOPE  C311 2556   6.504   7.973  16.039 -0.0264 -0.6982  0.0237
   20DOPE  H11X 2557   6.582   8.033  16.092 -2.2481  0.7001  1.9007
   20DOPE  H11Y 2558   6.521   7.872  16.081 -0.2585 -1.3125 -1.3354
   20DOPE  C312 2559   6.516   7.972  15.884  0.0089 -0.3401 -0.0391
   20DOPE  H12X 2560   6.507   8.077  15.848 -0.2777 -0.7032 -1.0599
   20DOPE  H12Y 2561   6.431   7.922  15.833  0.7432 -0.7617 -0.8648
   20DOPE  C313 2562   6.648   7.917  15.836 -0.2507  0.2544  0.7237
   20DOPE  H13X 2563   6.737   7.965  15.880 -0.0549 -0.3132  0.9595
   20DOPE  H13Y 2564   6.640   7.811  15.868 -1.2945 -0.2775 -1.1330
   20DOPE  C314 2565   6.665   7.928  15.687 -0.5254 -0.4687  0.5751
   20DOPE  H14X 2566   6.683   8.036  15.669  0.8800 -0.4780  1.7572
   20DOPE  H14Y 2567   6.570   7.890  15.643 -0.1529  0.5101 -1.1550
   20DOPE  C315 2568   6.782   7.840  15.630  0.5084 -0.5247  0.6758
   20DOPE  H15X 2569   6.765   7.731  15.650 -0.2621 -0.2758  1.4776
   20DOPE  H15Y 2570   6.878   7.864  15.681  0.5154  0.2782  0.2862
   20DOPE  C316 2571   6.797   7.843  15.477 -0.7172 -0.2502  0.0264
   20DOPE  H16X 2572   6.699   7.847  15.425 -0.5800  0.7728 -0.1762
   20DOPE  H16Y 2573   6.852   7.748  15.459  2.8403  1.4623  0.8559
   20DOPE  C317 2574   6.886   7.957  15.425  0.7074  0.0790  0.2528
   20DOPE  H17X 2575   6.860   8.058  15.463  1.7227  0.4040  0.1307
   20DOPE  H17Y 2576   6.988   7.935  15.462  1.2243 -0.2178 -1.2780
   20DOPE  C318 2577   6.899   7.970  15.270 -0.4142  0.3333  0.1217
   20DOPE  H18X 2578   6.804   8.002  15.224 -1.4690 -0.3971  1.7126
   20DOPE  H18Y 2579   6.991   8.027  15.243  1.2503 -2.1170  0.1986
   20DOPE  H18Z 2580   6.908   7.868  15.227 -0.5042  0.2843  0.2192
   21DOPE     N 2581   3.035   0.005  16.897 -0.0743 -0.0407  0.7038
   21DOPE   HN1 2582   3.095   0.001  16.983 -1.5091 -1.3190  1.6936
   21DOPE   HN2 2583   3.059  -0.062  16.822 -0.3576 -1.5364  1.8989
   21DOPE   HN3 2584   3.035   0.101  16.858 -0.8110 -0.6734 -0.8996
   21DOPE   C12 2585   2.894  -0.030  16.945 -0.3876  0.5265  0.7729
   21DOPE  H12A 2586   2.916  -0.125  16.997  1.3435  0.4372 -0.0314
   21DOPE  H12B 2587   2.841  -0.032  16.847  0.9186  1.5395  0.0065
   21DOPE   C11 2588   2.834   0.082  17.031 -0.2147 -0.5628  0.1090
   21DOPE  H11A 2589   2.904   0.111  17.112  2.5962 -0.0305 -2.3677
   21DOPE  H11B 2590   2.742   0.045  17.082 -0.9262  0.0744 -0.6904
   21DOPE     P 2591   2.680   0.248  16.901 -0.1829  0.3905 -0.0006
   21DOPE   O13 2592   2.637   0.339  17.012 -0.0836 -0.0944  0.3208
   21DOPE   O14 2593   2.588   0.136  16.869  0.2520 -0.3232  0.3249
   21DOPE   O11 2594   2.708   0.329  16.771  0.6400 -0.5108 -0.9902
   21DOPE   O12 2595   2.826   0.191  16.941 -0.0392 -0.3395 -0.4970
   21DOPE    C1 2596   2.825   0.412  16.754  0.2152  0.2389  0.4178
   21DOPE    HA 2597   2.919   0.355  16.771  1.0700  1.5680  0.3322
   21DOPE    HB 2598   2.828   0.504  16.817 -3.3811  0.6479  0.1663
   21DOPE    C2 2599   2.828   0.454  16.604 -1.1391  0.1068 -0.2742
   21DOPE    HS 2600   2.817   0.368  16.534 -1.9738  1.2203 -1.5652
   21DOPE   O21 2601   2.946   0.530  16.568 -0.0053  0.0323 -0.2793
   21DOPE   C21 2602   3.057   0.461  16.545  0.2391 -0.0468 -0.3810
   21DOPE   O22 2603   3.071   0.342  16.559  0.5004 -0.6571 -0.5429
   21DOPE   C22 2604   3.161   0.555  16.497  0.1529 -0.5404 -0.0799
   21DOPE   H2R 2605   3.253   0.533  16.555 -0.3575 -1.6773  0.3294
   21DOPE   H2S 2606   3.134   0.662  16.510 -2.5888 -1.0473 -0.9388
   21DOPE    C3 2607   2.705   0.538  16.564 -0.4407  0.0673 -0.5137
   21DOPE    HX 2608   2.707   0.629  16.627 -1.0763 -0.1070 -0.2287
   21DOPE    HY 2609   2.611   0.485  16.592  0.2312 -1.4054 -0.9511
   21DOPE   O31 2610   2.696   0.566  16.420 -0.1167  0.0720  0.5631
   21DOPE   C31 2611   2.657   0.461  16.346 -0.3407 -0.7137 -0.1862
   21DOPE   O32 2612   2.612   0.360  16.389 -0.0106  0.0170 -0.4620
   21DOPE   C32 2613   2.651   0.506  16.202 -0.3704 -0.6370  0.4410
   21DOPE   H2X 2614   2.565   0.575  16.197  0.8231  0.8246 -2.9186
   21DOPE   H2Y 2615   2.748   0.544  16.163 -1.2192  0.6522 -0.4603
   21DOPE   C23 2616   3.202   0.524  16.355  0.1159 -0.1381  0.1154
   21DOPE   H3R 2617   3.246   0.423  16.336 -1.1992 -0.4967 -1.2767
   21DOPE   H3S 2618   3.273   0.605  16.331  0.1150 -0.1754 -0.0175
   21DOPE   C24 2619   3.098   0.523  16.247  0.1202  0.3070  0.2413
   21DOPE   H4R 2620   3.082   0.626  16.209  0.4567 -0.4752 -2.1882
   21DOPE   H4S 2621   2.998   0.490  16.285 -1.8553  1.9286 -3.0381
   21DOPE   C25 2622   3.130   0.440  16.122  0.0691 -0.0772  0.0398
   21DOPE   H5R 2623   3.135   0.333  16.152 -0.3265 -0.2888 -0.6248
   21DOPE   H5S 2624   3.234   0.469  16.096  0.7848 -0.2073  2.5533
   21DOPE   C26 2625   3.043   0.470  15.993 -0.2092 -0.3428 -0.1535
   21DOPE   H6R 2626   3.055   0.577  15.962  2.0164 -0.8375 -1.2157
   21DOPE   H6S 2627   2.938   0.445  16.017 -0.6086  1.1702 -0.2011
   21DOPE   C27 2628   3.094   0.395  15.875 -1.3161 -0.9219 -0.0923
   21DOPE   H7R 2629   3.202   0.420  15.865 -1.9709  1.7542 -1.0497
   21DOPE   H7S 2630   3.050   0.444  15.786  0.0673 -3.0400 -2.0685
   21DOPE   C28 2631   3.060   0.242  15.882  0.1671 -0.5746  0.4404
   21DOPE   H8R 2632   2.952   0.225  15.898  0.2128 -0.4602  0.9103
   21DOPE   H8S 2633   3.099   0.200  15.978 -0.1793  0.7927  1.2071
   21DOPE   C29 2634   3.123   0.161  15.767  0.0213 -0.4689  0.0610
   21DOPE   H9R 2635   3.233   0.170  15.769 -0.1495  3.1077 -0.7433
   21DOPE  C210 2636   3.064   0.085  15.668 -0.3494 -0.4538  0.0984
   21DOPE  H10R 2637   3.123   0.041  15.587 -1.8362 -0.9105 -0.7646
   21DOPE  C211 2638   2.916   0.059  15.657  0.2243 -0.1072 -0.1859
   21DOPE  H11R 2639   2.849   0.109  15.730 -1.1337 -2.4701  0.3147
   21DOPE  H11S 2640   2.898  -0.051  15.657  1.8055 -0.3929 -0.6863
   21DOPE  C212 2641   2.875   0.114  15.525 -0.3792  0.0566  0.6346
   21DOPE  H12R 2642   2.916   0.216  15.513 -0.6173  0.1656  0.7400
   21DOPE  H12S 2643   2.764   0.127  15.517 -0.5079 -1.7455 -1.7883
   21DOPE  C213 2644   2.899   0.016  15.411  0.2765  0.5170  0.6714
   21DOPE  H13R 2645   2.914  -0.089  15.443 -0.5719 -0.2358 -1.2085
   21DOPE  H13S 2646   2.991   0.055  15.361  0.6083  0.2824  1.1001
   21DOPE  C214 2647   2.797   0.021  15.293  0.4080 -0.2196  0.2632
   21DOPE  H14R 2648   2.690   0.024  15.322 -0.3752  0.5056 -2.3732
   21DOPE  H14S 2649   2.814  -0.073  15.236  0.5965 -0.7722  1.2148
   21DOPE  C215 2650   2.829   0.143  15.200  0.1801  0.9473 -0.2796
   21DOPE  H15R 2651   2.928   0.140  15.151  0.2929  1.1933 -0.0689
   21DOPE  H15S 2652   2.810   0.238  15.254 -1.9656  1.3317 -1.5638
   21DOPE  C216 2653   2.723   0.140  15.085  0.4422  0.2118 -0.2446
   21DOPE  H16R 2654   2.628   0.116  15.137  1.3489 -1.1906  0.8477
   21DOPE  H16S 2655   2.748   0.059  15.014  0.9266 -0.7155  0.9472
   21DOPE  C217 2656   2.711   0.269  15.004  0.1370 -0.9447 -0.0085
   21DOPE  H17R 2657   2.649   0.247  14.915  1.8077 -0.2571 -1.3783
   21DOPE  H17S 2658   2.802   0.308  14.955 -0.2121 -0.2145 -0.0845
   21DOPE  C218 2659   2.637   0.384  15.069  0.0259 -0.1383  0.4202
   21DOPE  H18R 2660   2.552   0.337  15.124  0.3440 -1.0948  0.1049
   21DOPE  H18S 2661   2.597   0.455  14.993 -2.7402 -1.1682  0.8069
   21DOPE  H18T 2662   2.701   0.447  15.135 -0.1878  0.9079 -0.3494
   21DOPE   C33 2663   2.610   0.388  16.109 -0.6029  0.1101  0.1501
   21DOPE   H3X 2664   2.527   0.326  16.149 -0.7114 -1.0955 -1.8371
   21DOPE   H3Y 2665   2.695   0.317  16.112 -0.1471  0.5751 -1.1777
   21DOPE   C34 2666   2.572   0.418  15.965 -0.0928 -0.5502 -0.4708
   21DOPE   H4X 2667   2.488   0.356  15.927 -0.4416 -0.9950  0.9616
   21DOPE   H4Y 2668   2.523   0.518  15.970 -1.7018 -1.3730  2.5534
   21DOPE   C35 2669   2.689   0.415  15.862 -0.4268 -0.3065  0.0854
   21DOPE   H5X 2670   2.730   0.312  15.860  1.9108  0.5547  0.0789
   21DOPE   H5Y 2671   2.767   0.481  15.905 -1.9986  1.1510  0.7895
   21DOPE   C36 2672   2.661   0.471  15.719  0.5386  0.3064 -0.3082
   21DOPE   H6X 2673   2.624   0.576  15.726  0.0557  0.1305 -0.1798
   21DOPE   H6Y 2674   2.571   0.413  15.688  0.0936  0.7525  0.1221
   21DOPE   C37 2675   2.787   0.475  15.638 -0.7884 -0.2618 -0.0228
   21DOPE   H7X 2676   2.854   0.557  15.672 -1.1983 -0.2055  0.6801
   21DOPE   H7Y 2677   2.854   0.387  15.650  1.2083  0.9095 -1.8400
   21DOPE   C38 2678   2.757   0.498  15.487 -0.2374 -0.1247 -0.2048
   21DOPE   H8X 2679   2.681   0.422  15.460 -0.7316  0.3046 -0.0355
   21DOPE   H8Y 2680   2.857   0.480  15.443  0.3086  1.7927  0.1458
   21DOPE   C39 2681   2.703   0.635  15.450 -0.2619 -0.6117  0.3026
   21DOPE   H9X 2682   2.778   0.712  15.428  0.7184 -2.1353 -2.0421
   21DOPE  C310 2683   2.574   0.681  15.443  0.0673  0.2719 -0.1043
   21DOPE  H10X 2684   2.566   0.787  15.415  0.1644 -0.0750 -1.4696
   21DOPE  C311 2685   2.443   0.609  15.466 -0.0395  0.0098 -0.4162
   21DOPE  H11X 2686   2.457   0.537  15.549  1.9182 -0.7042 -1.3011
   21DOPE  H11Y 2687   2.379   0.694  15.498 -0.2095 -0.4951  0.6119
   21DOPE  C312 2688   2.396   0.534  15.349  0.1865  0.0015  0.5741
   21DOPE  H12X 2689   2.294   0.499  15.374  0.4722 -0.4514  1.1176
   21DOPE  H12Y 2690   2.448   0.436  15.343  0.0852  0.0169 -0.7542
   21DOPE  C313 2691   2.387   0.609  15.212 -0.2325  0.8961  0.1219
   21DOPE  H13X 2692   2.345   0.711  15.223  0.0187  0.9562  0.5508
   21DOPE  H13Y 2693   2.488   0.629  15.170 -0.3197 -0.2410 -0.6738
   21DOPE  C314 2694   2.313   0.522  15.106 -0.4102  0.4680  0.2515
   21DOPE  H14X 2695   2.333   0.413  15.122 -0.3020  0.3276 -0.7662
   21DOPE  H14Y 2696   2.362   0.545  15.009  0.5941  1.4498  0.9710
   21DOPE  C315 2697   2.160   0.548  15.111 -0.3076  0.2016 -0.1970
   21DOPE  H15X 2698   2.148   0.659  15.111 -3.0267 -0.0175  0.5490
   21DOPE  H15Y 2699   2.130   0.512  15.212 -1.3273  1.7236  0.0912
   21DOPE  C316 2700   2.075   0.488  15.002 -0.5637 -0.1891 -0.3017
   21DOPE  H16X 2701   2.111   0.384  14.984 -2.2948 -0.7134 -0.8834
   21DOPE  H16Y 2702   2.090   0.549  14.911 -0.5442 -0.2677 -0.3518
   21DOPE  C317 2703   1.930   0.480  15.039  0.9210 -0.1290  0.7131
   21DOPE  H17X 2704   1.914   0.423  15.133  0.1730  1.9846  1.9305
   21DOPE  H17Y 2705   1.906   0.580  15.081 -0.8711  0.3464 -1.2869
   21DOPE  C318 2706   1.845   0.436  14.918 -0.4674 -0.3245  0.0742
   21DOPE  H18X 2707   1.744   0.481  14.931 -0.6474 -0.7897  0.3185
   21DOPE  H18Y 2708   1.872   0.470  14.815 -2.0093  1.8734  0.3301
   21DOPE  H18Z 2709   1.834   0.326  14.921  0.4387 -0.4024  0.6424
   22DOPE     N 2710   6.940   5.447  16.676 -0.7579 -0.4510 -0.5491
   22DOPE   HN1 2711   6.973   5.353  16.646  0.0865 -0.1544 -0.5774
   22DOPE   HN2 2712   6.844   5.448  16.636 -0.8911 -1.8274 -0.2970
   22DOPE   HN3 2713   7.006   5.518  16.638 -0.3264 -0.5674 -0.0461
   22DOPE   C12 2714   6.928   5.459  16.828 -0.2183  0.6855  0.4110
   22DOPE  H12A 2715   7.030   5.447  16.871 -0.6304 -1.7394  0.8761
   22DOPE  H12B 2716   6.861   5.378  16.863  1.1197 -0.7835 -0.3029
   22DOPE   C11 2717   6.869   5.598  16.858 -0.4905 -0.4246  0.3117
   22DOPE  H11A 2718   6.850   5.619  16.966 -0.2452  1.4218  0.0278
   22DOPE  H11B 2719   6.782   5.617  16.791  0.0040  2.0143  0.2493
   22DOPE     P 2720   7.111   5.714  16.894  0.3754 -0.0245 -0.2151
   22DOPE   O13 2721   7.191   5.588  16.895  0.5852 -0.3244  0.0307
   22DOPE   O14 2722   7.083   5.769  17.030 -0.2352 -0.5507 -0.1568
   22DOPE   O11 2723   7.184   5.819  16.806 -0.0264  0.2584 -0.8109
   22DOPE   O12 2724   6.976   5.691  16.821 -0.4187  0.3265 -0.3069
   22DOPE    C1 2725   7.136   5.877  16.688  0.6963  0.1652 -0.3071
   22DOPE    HA 2726   7.104   5.982  16.700 -0.8516 -0.2209 -0.8482
   22DOPE    HB 2727   7.040   5.829  16.658 -0.5793  0.0197  3.4964
   22DOPE    C2 2728   7.233   5.862  16.569  0.2582 -1.1653 -0.0351
   22DOPE    HS 2729   7.181   5.887  16.473 -0.0137  0.3740  0.4880
   22DOPE   O21 2730   7.291   5.733  16.553 -0.7424 -0.4573  0.5053
   22DOPE   C21 2731   7.219   5.625  16.534  0.2742 -0.9208  0.7621
   22DOPE   O22 2732   7.102   5.617  16.520 -0.0679 -0.6655  0.4482
   22DOPE   C22 2733   7.311   5.507  16.566  0.1407  0.3961 -0.6556
   22DOPE   H2R 2734   7.337   5.510  16.674 -0.5027 -1.2498 -0.4243
   22DOPE   H2S 2735   7.405   5.530  16.512  0.3242  1.3399  0.0490
   22DOPE    C3 2736   7.339   5.970  16.592 -0.0629  0.1049 -0.4212
   22DOPE    HX 2737   7.379   5.940  16.692 -1.0020  0.7413  0.1640
   22DOPE    HY 2738   7.294   6.070  16.608 -0.8626 -0.1603 -0.9611
   22DOPE   O31 2739   7.427   5.977  16.478  0.3148  0.1914 -0.1726
   22DOPE   C31 2740   7.562   5.962  16.507  0.2359 -0.4586 -0.6562
   22DOPE   O32 2741   7.611   5.976  16.615 -0.2452 -0.0586 -0.0163
   22DOPE   C32 2742   7.640   5.917  16.388 -0.1895 -0.4984  0.2722
   22DOPE   H2X 2743   7.579   5.927  16.296  0.0089  2.4821  0.3846
   22DOPE   H2Y 2744   7.733   5.977  16.382 -0.3226 -0.3788 -0.7153
   22DOPE   C23 2745   7.257   5.366  16.529  0.1947 -0.7762  0.0104
   22DOPE   H3R 2746   7.161   5.359  16.583  0.1470 -1.3323 -0.1416
   22DOPE   H3S 2747   7.329   5.289  16.564  0.7805 -0.3395 -0.2065
   22DOPE   C24 2748   7.233   5.345  16.380 -0.3067 -0.4670  0.1868
   22DOPE   H4R 2749   7.322   5.340  16.315 -1.3436 -0.5125 -1.2889
   22DOPE   H4S 2750   7.182   5.437  16.343  0.8269  0.8151  1.6825
   22DOPE   C25 2751   7.147   5.217  16.357 -0.4089 -0.7345  0.6038
   22DOPE   H5R 2752   7.043   5.232  16.392 -0.5871 -0.8043  0.1098
   22DOPE   H5S 2753   7.186   5.135  16.421  1.0074  0.4292  1.2845
   22DOPE   C26 2754   7.135   5.183  16.203  0.3456 -0.3707 -0.0097
   22DOPE   H6R 2755   7.051   5.110  16.200  0.6763 -0.8233  1.1451
   22DOPE   H6S 2756   7.231   5.132  16.181  1.5464  1.7257  0.1161
   22DOPE   C27 2757   7.108   5.305  16.116 -0.1666  0.8523 -0.5467
   22DOPE   H7R 2758   7.207   5.355  16.118  0.2714 -0.0175  0.0163
   22DOPE   H7S 2759   7.035   5.376  16.158 -0.6630  0.8251 -1.3441
   22DOPE   C28 2760   7.063   5.281  15.972  0.0349 -0.4511  0.2610
   22DOPE   H8R 2761   7.070   5.380  15.922 -1.3342  1.1845  3.0174
   22DOPE   H8S 2762   6.954   5.258  15.978 -0.5477  1.9792  0.1749
   22DOPE   C29 2763   7.138   5.179  15.895  0.2394  0.4315 -0.8898
   22DOPE   H9R 2764   7.079   5.101  15.845  2.2338 -1.1566 -0.9101
   22DOPE  C210 2765   7.258   5.179  15.854  0.3177 -0.4348 -0.0029
   22DOPE  H10R 2766   7.287   5.091  15.795 -4.2729 -0.7458 -2.2513
   22DOPE  C211 2767   7.368   5.284  15.874  0.3927 -0.0631  0.4542
   22DOPE  H11R 2768   7.464   5.246  15.916  0.0224 -0.5810  0.8382
   22DOPE  H11S 2769   7.355   5.359  15.955  0.6401 -1.9720  2.3434
   22DOPE  C212 2770   7.394   5.363  15.739  0.2333  0.4724 -0.1570
   22DOPE  H12R 2771   7.400   5.287  15.659  3.7559 -2.3687  2.4555
   22DOPE  H12S 2772   7.489   5.421  15.748  1.2799 -1.3361  1.1698
   22DOPE  C213 2773   7.291   5.473  15.698 -0.4587 -0.2116  0.5349
   22DOPE  H13R 2774   7.338   5.554  15.638 -1.9019 -1.6718 -2.8249
   22DOPE  H13S 2775   7.235   5.516  15.784 -1.3230 -0.4373  0.0989
   22DOPE  C214 2776   7.178   5.414  15.612  0.1008 -0.6315 -0.1712
   22DOPE  H14R 2777   7.109   5.498  15.591  0.2579 -0.3062  0.5888
   22DOPE  H14S 2778   7.117   5.347  15.676 -0.1378 -0.4886 -0.2497
   22DOPE  C215 2779   7.227   5.356  15.477  0.5078  0.6704  0.0972
   22DOPE  H15R 2780   7.273   5.257  15.496  0.9449  0.0268 -3.6181
   22DOPE  H15S 2781   7.309   5.423  15.444  1.8695 -0.8401  0.3045
   22DOPE  C216 2782   7.115   5.331  15.378  0.1908 -0.1558  0.2496
   22DOPE  H16R 2783   7.041   5.273  15.438  1.6806 -1.4587  0.9040
   22DOPE  H16S 2784   7.140   5.254  15.301 -0.0977 -1.6532  1.5941
   22DOPE  C217 2785   7.068   5.458  15.306  0.0275  0.4829  0.0682
   22DOPE  H17R 2786   7.152   5.515  15.260  1.2116 -0.8082  0.5540
   22DOPE  H17S 2787   7.023   5.522  15.385  2.9644  1.4771  1.0712
   22DOPE  C218 2788   6.977   5.426  15.191 -0.1198 -0.6421  0.1170
   22DOPE  H18R 2789   6.932   5.507  15.131 -3.7336 -2.7389 -0.3088
   22DOPE  H18S 2790   6.892   5.361  15.222 -1.3577  0.4049 -0.9800
   22DOPE  H18T 2791   7.038   5.361  15.123 -1.5931 -2.3415  0.3382
   22DOPE   C33 2792   7.693   5.774  16.408 -0.0413  0.9081 -0.5009
   22DOPE   H3X 2793   7.604   5.711  16.424 -0.9255  2.3879  0.5880
   22DOPE   H3Y 2794   7.764   5.768  16.493 -1.3265 -0.8418  0.5026
   22DOPE   C34 2795   7.765   5.723  16.279  0.2049 -0.3491 -0.6513
   22DOPE   H4X 2796   7.717   5.767  16.188 -3.3518  0.2791  1.3229
   22DOPE   H4Y 2797   7.872   5.750  16.272  0.0904  0.2154 -0.2784
   22DOPE   C35 2798   7.756   5.573  16.281 -0.1975  0.1917  0.0292
   22DOPE   H5X 2799   7.653   5.535  16.294  0.0215 -0.5706 -0.3719
   22DOPE   H5Y 2800   7.826   5.538  16.360 -0.9079 -1.5257 -0.0619
   22DOPE   C36 2801   7.804   5.503  16.145  0.3271 -0.6249  0.8777
   22DOPE   H6X 2802   7.915   5.510  16.140  0.3484 -0.8136  1.0488
   22DOPE   H6Y 2803   7.754   5.553  16.059  2.5029 -0.8227 -0.5723
   22DOPE   C37 2804   7.751   5.360  16.141 -0.5272 -0.9938 -0.6005
   22DOPE   H7X 2805   7.747   5.309  16.240 -1.4662  2.3054  1.2147
   22DOPE   H7Y 2806   7.647   5.366  16.102 -0.7125  0.0203  0.0155
   22DOPE   C38 2807   7.833   5.260  16.063  0.8798  0.2825  0.2230
   22DOPE   H8X 2808   7.822   5.154  16.097  1.1079 -0.6770 -2.4329
   22DOPE   H8Y 2809   7.937   5.297  16.076  0.3942  1.4571  0.8173
   22DOPE   C39 2810   7.796   5.261  15.912 -0.2869  0.0171  0.2811
   22DOPE   H9X 2811   7.730   5.342  15.878 -2.1097 -1.7385 -0.5748
   22DOPE  C310 2812   7.838   5.173  15.817  0.0646  0.6577 -0.9011
   22DOPE  H10X 2813   7.782   5.174  15.722 -1.8001 -0.1293  0.1378
   22DOPE  C311 2814   7.932   5.059  15.841  0.6415 -0.4407  0.7946
   22DOPE  H11X 2815   7.925   5.033  15.949  0.5523 -0.0049  0.8942
   22DOPE  H11Y 2816   7.899   4.969  15.784  3.9014 -0.4734 -1.2949
   22DOPE  C312 2817   8.076   5.091  15.801 -0.0543 -0.2325  0.6964
   22DOPE  H12X 2818   8.119   5.170  15.867  0.4976 -1.0306  1.3139
   22DOPE  H12Y 2819   8.083   5.123  15.695  1.1477 -0.2400  0.7573
   22DOPE  C313 2820   8.164   4.972  15.823  0.0429  0.0725  0.0112
   22DOPE  H13X 2821   8.268   5.011  15.828  0.2334 -0.1473 -1.6352
   22DOPE  H13Y 2822   8.150   4.935  15.926 -0.5123  0.9490  0.2579
   22DOPE  C314 2823   8.148   4.862  15.718 -0.5945  0.6137 -0.3125
   22DOPE  H14X 2824   8.189   4.891  15.619  0.9206  0.8746  0.3570
   22DOPE  H14Y 2825   8.040   4.842  15.700 -0.4401 -0.0647 -0.5094
   22DOPE  C315 2826   8.210   4.738  15.778 -0.5271  0.7185  0.0414
   22DOPE  H15X 2827   8.155   4.733  15.874 -1.7988  0.6661 -0.6677
   22DOPE  H15Y 2828   8.318   4.754  15.797 -0.3121 -0.5107 -0.1010
   22DOPE  C316 2829   8.207   4.610  15.685  0.2294 -0.2320  0.3516
   22DOPE  H16X 2830   8.268   4.626  15.594  1.0674 -0.5320  0.8518
   22DOPE  H16Y 2831   8.101   4.592  15.657 -0.0593  1.3264  0.3611
   22DOPE  C317 2832   8.252   4.487  15.752  0.0341  0.5529  1.1482
   22DOPE  H17X 2833   8.214   4.496  15.856 -0.2150  0.9690  1.0225
   22DOPE  H17Y 2834   8.206   4.394  15.711  0.6564  0.5696  0.3806
   22DOPE  C318 2835   8.407   4.481  15.745 -0.1038 -0.5309 -0.0689
   22DOPE  H18X 2836   8.443   4.415  15.827 -0.2167  1.0663  1.3025
   22DOPE  H18Y 2837   8.449   4.449  15.647  2.0145  0.5005  0.4302
   22DOPE  H18Z 2838   8.442   4.582  15.774 -1.4810  0.3946 -1.5020
   23DOPE     N 2839   3.806   7.489  17.120  0.1281  0.4524  0.0817
   23DOPE   HN1 2840   3.902   7.511  17.152  0.6979  1.8518 -2.3083
   23DOPE   HN2 2841   3.754   7.473  17.208 -0.2139  1.4633  0.0792
   23DOPE   HN3 2842   3.802   7.406  17.058  0.5902 -0.4125  1.1787
   23DOPE   C12 2843   3.753   7.606  17.040  0.3851  0.1223  0.1571
   23DOPE  H12A 2844   3.760   7.696  17.105 -1.3351 -0.4627  1.2339
   23DOPE  H12B 2845   3.649   7.582  17.009 -0.5736  0.9817  2.4476
   23DOPE   C11 2846   3.828   7.626  16.915  0.2606 -0.3204  0.0867
   23DOPE  H11A 2847   3.776   7.708  16.861 -1.2196 -1.7789 -0.7909
   23DOPE  H11B 2848   3.817   7.532  16.857 -1.0941 -1.7543  2.4872
   23DOPE     P 2849   4.027   7.790  16.924  0.2460 -0.3318  0.0759
   23DOPE   O13 2850   4.177   7.767  16.926  0.0968  0.3490  0.1560
   23DOPE   O14 2851   3.966   7.890  17.016  0.0453 -0.0744 -0.1100
   23DOPE   O11 2852   3.980   7.818  16.775  0.5084  0.1551 -0.1165
   23DOPE   O12 2853   3.966   7.648  16.954  0.3684  0.7987  0.5100
   23DOPE    C1 2854   3.957   7.954  16.742  0.5686  0.0405 -0.0128
   23DOPE    HA 2855   4.055   8.006  16.731  0.8402 -0.1639  1.3015
   23DOPE    HB 2856   3.903   8.007  16.823  0.3631 -2.4722  1.5818
   23DOPE    C2 2857   3.877   7.973  16.612 -0.5272  0.0306  0.1181
   23DOPE    HS 2858   3.793   7.900  16.615  0.0150 -0.5889  1.6368
   23DOPE   O21 2859   3.961   7.928  16.506 -0.6646 -0.3885 -0.2920
   23DOPE   C21 2860   3.908   7.930  16.387  0.2215 -0.3525 -0.7739
   23DOPE   O22 2861   3.787   7.926  16.361  0.4297  0.1213  0.4624
   23DOPE   C22 2862   4.020   7.921  16.286  0.6880 -0.3072  0.3877
   23DOPE   H2R 2863   4.077   7.828  16.306 -1.1193 -1.0706  2.2559
   23DOPE   H2S 2864   4.077   8.016  16.288 -1.4838  1.0560  0.3826
   23DOPE    C3 2865   3.828   8.119  16.606 -0.0350 -0.1469  0.3383
   23DOPE    HX 2866   3.760   8.138  16.692 -1.5533 -2.5556 -0.1936
   23DOPE    HY 2867   3.771   8.149  16.515 -0.9582  1.9509  1.5341
   23DOPE   O31 2868   3.947   8.188  16.624 -0.3767 -0.3210 -0.2505
   23DOPE   C31 2869   4.007   8.237  16.518  0.5710  0.4488 -0.5924
   23DOPE   O32 2870   3.974   8.209  16.404  0.5325 -0.6442  0.0410
   23DOPE   C32 2871   4.141   8.317  16.549 -0.8567  0.0882  0.0220
   23DOPE   H2X 2872   4.110   8.422  16.570 -0.1890  1.1633 -3.7670
   23DOPE   H2Y 2873   4.185   8.278  16.644 -0.0941 -0.6442 -0.6117
   23DOPE   C23 2874   3.958   7.901  16.137  0.2833 -0.0565 -0.2267
   23DOPE   H3R 2875   3.912   7.997  16.106  1.1802  1.0224  1.6112
   23DOPE   H3S 2876   3.875   7.829  16.150 -0.6951  0.6001 -2.4587
   23DOPE   C24 2877   4.061   7.837  16.043 -0.2079 -0.4245  0.0873
   23DOPE   H4R 2878   4.011   7.772  15.968 -2.8375  3.5774 -2.0110
   23DOPE   H4S 2879   4.133   7.776  16.102 -2.4111 -1.4926  1.8569
   23DOPE   C25 2880   4.130   7.943  15.955 -0.3682  0.2070  1.1479
   23DOPE   H5R 2881   4.172   8.020  16.023 -0.0923  1.5878 -0.5244
   23DOPE   H5S 2882   4.055   7.993  15.890  1.9485 -1.1953 -2.9947
   23DOPE   C26 2883   4.247   7.885  15.885  0.3058  0.1690  0.7693
   23DOPE   H6R 2884   4.220   7.798  15.822 -1.0216  0.6850  0.6009
   23DOPE   H6S 2885   4.323   7.857  15.961  1.2279 -2.0182 -0.8421
   23DOPE   C27 2886   4.307   7.984  15.791  0.5280  0.3199 -0.5351
   23DOPE   H7R 2887   4.244   8.004  15.702 -0.9686  0.5751  0.5531
   23DOPE   H7S 2888   4.401   7.932  15.763  0.5737 -0.4383  0.9295
   23DOPE   C28 2889   4.343   8.121  15.860  0.3992  0.1479 -0.8062
   23DOPE   H8R 2890   4.397   8.103  15.955 -1.8638  0.8593  0.7151
   23DOPE   H8S 2891   4.253   8.174  15.899  1.1184  0.0305  1.1257
   23DOPE   C29 2892   4.418   8.202  15.757  0.4406 -0.3058 -0.3245
   23DOPE   H9R 2893   4.445   8.153  15.662  3.0613  1.7009 -0.7282
   23DOPE  C210 2894   4.436   8.333  15.765 -0.2852 -0.9953 -0.1053
   23DOPE  H10R 2895   4.482   8.391  15.684  2.5417 -1.0195  1.3637
   23DOPE  C211 2896   4.392   8.424  15.875  0.4659 -0.3196  0.0129
   23DOPE  H11R 2897   4.472   8.476  15.932 -2.0214  1.3418  2.2687
   23DOPE  H11S 2898   4.331   8.379  15.956 -1.1360 -3.4721 -2.7113
   23DOPE  C212 2899   4.320   8.550  15.816  0.3884  0.2513 -0.0785
   23DOPE  H12R 2900   4.239   8.508  15.752  1.2886 -2.6266  0.5344
   23DOPE  H12S 2901   4.398   8.598  15.753  0.5945 -1.3853 -1.1298
   23DOPE  C213 2902   4.271   8.655  15.913  0.5799 -0.6153  0.0202
   23DOPE  H13R 2903   4.234   8.737  15.848 -0.0823 -1.0567 -0.1727
   23DOPE  H13S 2904   4.348   8.698  15.980  0.8259 -0.7529 -0.1745
   23DOPE  C214 2905   4.161   8.602  16.003 -0.3802 -0.0687  0.1554
   23DOPE  H14R 2906   4.197   8.505  16.046  0.7418 -0.3487 -1.3294
   23DOPE  H14S 2907   4.070   8.569  15.950 -0.8276 -0.4570  1.1318
   23DOPE  C215 2908   4.127   8.699  16.116 -0.1410 -0.0536 -0.3726
   23DOPE  H15R 2909   4.073   8.781  16.064 -2.2168 -0.7632  0.5416
   23DOPE  H15S 2910   4.227   8.732  16.152 -0.5773  2.6466 -1.3934
   23DOPE  C216 2911   4.035   8.639  16.224 -0.2624 -0.5023  0.2720
   23DOPE  H16R 2912   4.075   8.540  16.254 -0.7188 -0.6872  0.2843
   23DOPE  H16S 2913   3.934   8.620  16.182 -0.1104 -1.8079  0.4328
   23DOPE  C217 2914   4.043   8.729  16.347 -0.0769  0.6249 -0.1652
   23DOPE  H17R 2915   4.012   8.833  16.326 -1.1129  0.7517  1.8122
   23DOPE  H17S 2916   4.150   8.731  16.379  0.5539 -0.4288 -2.0524
   23DOPE  C218 2917   3.953   8.682  16.456  0.0147 -0.4094 -0.2632
   23DOPE  H18R 2918   3.957   8.744  16.548  2.6655 -1.0282  0.1256
   23DOPE  H18S 2919   3.964   8.575  16.487 -2.1626 -1.0125 -1.3619
   23DOPE  H18T 2920   3.848   8.666  16.424 -1.0798  0.3349  2.6461
   23DOPE   C33 2921   4.250   8.311  16.437 -0.7495  0.1825  0.1086
   23DOPE   H3X 2922   4.317   8.399  16.443 -0.7367  0.2941 -1.4252
   23DOPE   H3Y 2923   4.199   8.320  16.339  0.0815 -1.7747 -0.5539
   23DOPE   C34 2924   4.333   8.176  16.442 -0.0814 -0.1269 -0.5140
   23DOPE   H4X 2925   4.416   8.196  16.514 -1.2427 -1.8741  1.4353
   23DOPE   H4Y 2926   4.282   8.089  16.488  3.1984 -2.2024 -0.4793
   23DOPE   C35 2927   4.360   8.123  16.297  0.3304 -0.4026  0.5074
   23DOPE   H5X 2928   4.415   8.201  16.240  0.4867  0.3925  1.7144
   23DOPE   H5Y 2929   4.267   8.118  16.237  0.0122  1.8246  0.7103
   23DOPE   C36 2930   4.441   7.996  16.290 -0.1443 -0.3063  0.2881
   23DOPE   H6X 2931   4.505   8.004  16.381 -1.6944  2.4297  1.2426
   23DOPE   H6Y 2932   4.518   7.989  16.210 -1.1653 -0.0580 -0.7393
   23DOPE   C37 2933   4.354   7.875  16.310  0.5404 -0.1216 -0.0749
   23DOPE   H7X 2934   4.294   7.884  16.403 -0.1538  0.5425 -0.5703
   23DOPE   H7Y 2935   4.274   7.874  16.233 -1.0233  0.1225  1.4937
   23DOPE   C38 2936   4.432   7.744  16.284 -0.4604 -0.2227  0.2595
   23DOPE   H8X 2937   4.497   7.729  16.372  2.1043 -1.6859 -1.7285
   23DOPE   H8Y 2938   4.501   7.752  16.197 -0.5409  0.3994  0.2477
   23DOPE   C39 2939   4.328   7.633  16.260 -0.2463 -0.3904 -0.3439
   23DOPE   H9X 2940   4.232   7.667  16.303  1.1773  1.1024  1.9069
   23DOPE  C310 2941   4.341   7.522  16.189  0.2980 -0.1343  0.2412
   23DOPE  H10X 2942   4.250   7.464  16.171  0.7478 -0.8296  0.1791
   23DOPE  C311 2943   4.459   7.471  16.109  0.2353  0.3675  0.5871
   23DOPE  H11X 2944   4.543   7.543  16.108 -0.4426  1.2272  1.8503
   23DOPE  H11Y 2945   4.498   7.374  16.147  0.0019 -0.4676 -1.2075
   23DOPE  C312 2946   4.402   7.448  15.967  0.1591 -0.2806 -0.5119
   23DOPE  H12X 2947   4.352   7.540  15.932 -2.1676 -1.1142  0.4001
   23DOPE  H12Y 2948   4.340   7.355  15.974 -0.3080  0.1495  1.8919
   23DOPE  C313 2949   4.509   7.431  15.856 -0.7966  0.0719 -0.6434
   23DOPE  H13X 2950   4.577   7.519  15.851 -2.2404  1.2565 -0.0403
   23DOPE  H13Y 2951   4.572   7.345  15.887 -0.5170  0.9568  1.4473
   23DOPE  C314 2952   4.436   7.404  15.727 -0.1762 -0.3832  0.6757
   23DOPE  H14X 2953   4.371   7.314  15.737  0.5790 -0.7706  2.6908
   23DOPE  H14Y 2954   4.511   7.373  15.652 -1.4515 -0.8404 -0.4391
   23DOPE  C315 2955   4.361   7.518  15.652  0.4388 -0.1609  0.7061
   23DOPE  H15X 2956   4.442   7.591  15.629  0.1286  0.5360  1.7631
   23DOPE  H15Y 2957   4.279   7.562  15.713 -1.0410  0.2689 -1.4862
   23DOPE  C316 2958   4.305   7.467  15.522  0.4677  0.0337  0.0530
   23DOPE  H16X 2959   4.229   7.388  15.543  0.0747  0.5896  0.7565
   23DOPE  H16Y 2960   4.386   7.429  15.456 -0.0621 -0.5808 -0.2623
   23DOPE  C317 2961   4.224   7.574  15.453 -0.0705 -0.0270  0.1564
   23DOPE  H17X 2962   4.153   7.609  15.532  0.8124 -2.9000  2.3932
   23DOPE  H17Y 2963   4.292   7.656  15.420  0.1367  0.3099  1.3559
   23DOPE  C318 2964   4.137   7.532  15.334  0.0009 -0.0730  0.4541
   23DOPE  H18X 2965   4.193   7.482  15.252 -0.5789  0.9723 -0.6127
   23DOPE  H18Y 2966   4.054   7.471  15.375  0.2896  0.0241  1.2095
   23DOPE  H18Z 2967   4.097   7.625  15.290  0.7949  0.0592 -0.0064
   24DOPE     N 2968   6.581   5.869  16.987 -0.0001  0.0258  0.2195
   24DOPE   HN1 2969   6.682   5.892  16.985  0.1416 -0.5954  0.2297
   24DOPE   HN2 2970   6.538   5.927  17.062  0.8149 -1.5819  2.0169
   24DOPE   HN3 2971   6.568   5.771  17.017 -0.3321 -0.3129 -0.9576
   24DOPE   C12 2972   6.523   5.898  16.851  0.4333  0.7543  0.0075
   24DOPE  H12A 2973   6.412   5.903  16.858  0.2700  0.0269 -1.6190
   24DOPE  H12B 2974   6.557   5.809  16.794  1.5840  0.0976  1.6431
   24DOPE   C11 2975   6.576   6.021  16.788 -0.4245  0.4509  0.2559
   24DOPE  H11A 2976   6.527   6.029  16.688 -1.9699  3.9931  1.1184
   24DOPE  H11B 2977   6.685   6.027  16.771 -0.4515 -2.8745 -2.0704
   24DOPE     P 2978   6.571   6.271  16.845 -0.0235  0.3490 -0.1500
   24DOPE   O13 2979   6.709   6.272  16.803 -0.2125 -0.1200  0.6978
   24DOPE   O14 2980   6.546   6.337  16.971 -0.6199 -0.6148  0.1352
   24DOPE   O11 2981   6.485   6.338  16.732  0.2598 -0.1838  0.5014
   24DOPE   O12 2982   6.518   6.125  16.859  0.4852  0.6896  0.5149
   24DOPE    C1 2983   6.346   6.308  16.712  0.6812 -0.3687 -0.3560
   24DOPE    HA 2984   6.282   6.379  16.769 -0.5865 -0.7672 -1.2535
   24DOPE    HB 2985   6.312   6.210  16.752 -0.4830  0.1096 -0.1285
   24DOPE    C2 2986   6.305   6.315  16.564  0.2122 -0.1362  0.3625
   24DOPE    HS 2987   6.194   6.317  16.565  0.1668  2.9767  2.2703
   24DOPE   O21 2988   6.366   6.215  16.493 -0.0326 -0.0356  0.2802
   24DOPE   C21 2989   6.298   6.168  16.393  0.3389  0.5949 -0.0186
   24DOPE   O22 2990   6.178   6.182  16.374 -0.0588  0.1483  0.1790
   24DOPE   C22 2991   6.383   6.073  16.301  0.0652 -0.3609 -0.2402
   24DOPE   H2R 2992   6.415   5.994  16.372  1.8191  0.1640 -0.3905
   24DOPE   H2S 2993   6.473   6.119  16.255 -0.5383 -1.5392 -2.7418
   24DOPE    C3 2994   6.354   6.446  16.509 -0.3392 -0.2937  0.0225
   24DOPE    HX 2995   6.463   6.460  16.526 -0.8779  2.4095  1.9595
   24DOPE    HY 2996   6.305   6.531  16.561 -2.9906 -0.9185 -1.3026
   24DOPE   O31 2997   6.333   6.458  16.370  0.0304  0.0090 -0.9703
   24DOPE   C31 2998   6.210   6.497  16.328  0.0450 -0.1978  0.2117
   24DOPE   O32 2999   6.118   6.525  16.402 -0.0545  0.0338  0.3623
   24DOPE   C32 3000   6.198   6.519  16.178 -0.1716 -0.5371  0.9352
   24DOPE   H2X 3001   6.294   6.481  16.136 -0.3007  0.1836 -0.0280
   24DOPE   H2Y 3002   6.122   6.449  16.138  2.0642 -1.2877 -2.4076
   24DOPE   C23 3003   6.297   6.022  16.190 -0.0863  0.7035  0.3374
   24DOPE   H3R 3004   6.253   6.107  16.134 -2.5980  0.6174  2.0207
   24DOPE   H3S 3005   6.203   5.975  16.226 -2.2782  2.6703 -2.3588
   24DOPE   C24 3006   6.370   5.922  16.100 -0.3229 -0.6377 -0.3579
   24DOPE   H4R 3007   6.433   5.849  16.155  0.5640  0.1724 -0.2749
   24DOPE   H4S 3008   6.443   5.968  16.030 -2.0257  0.8513 -1.2595
   24DOPE   C25 3009   6.263   5.849  16.010 -0.3026 -0.1805 -0.3284
   24DOPE   H5R 3010   6.195   5.920  15.958  0.6325 -0.7871 -2.4566
   24DOPE   H5S 3011   6.201   5.793  16.084  2.7012 -2.3071  0.7702
   24DOPE   C26 3012   6.326   5.763  15.901 -0.3674 -0.5351 -0.9106
   24DOPE   H6R 3013   6.244   5.694  15.873 -0.5102 -0.3110 -1.0480
   24DOPE   H6S 3014   6.410   5.702  15.939 -0.8303  0.1966  1.4346
   24DOPE   C27 3015   6.377   5.839  15.778  0.7242 -0.3492  0.1279
   24DOPE   H7R 3016   6.479   5.877  15.799  0.7056 -0.0788 -0.2506
   24DOPE   H7S 3017   6.306   5.921  15.750  0.3493 -1.5418 -2.8628
   24DOPE   C28 3018   6.389   5.737  15.655 -0.1748 -0.2140 -0.9190
   24DOPE   H8R 3019   6.288   5.693  15.644 -0.2595  0.1179 -1.5029
   24DOPE   H8S 3020   6.453   5.656  15.696  1.3664  0.5644 -1.7300
   24DOPE   C29 3021   6.435   5.794  15.523  0.5888 -0.1440 -0.2523
   24DOPE   H9R 3022   6.362   5.793  15.441 -0.5783 -0.6645  0.7604
   24DOPE  C210 3023   6.563   5.815  15.491 -0.2492  0.1269 -0.1237
   24DOPE  H10R 3024   6.586   5.870  15.399  0.1605 -0.0183 -0.1103
   24DOPE  C211 3025   6.691   5.795  15.574 -0.0672 -0.1960  0.1183
   24DOPE  H11R 3026   6.664   5.772  15.679  0.4625 -0.3289  0.2320
   24DOPE  H11S 3027   6.753   5.887  15.574 -0.8470  0.3402 -0.5930
   24DOPE  C212 3028   6.767   5.671  15.532  0.4909  0.1607 -0.1241
   24DOPE  H12R 3029   6.870   5.670  15.574 -0.2115  0.4849  1.6820
   24DOPE  H12S 3030   6.776   5.632  15.428  1.2397  1.4561 -0.5686
   24DOPE  C213 3031   6.701   5.549  15.597  0.0971 -0.4806 -0.3225
   24DOPE  H13R 3032   6.596   5.546  15.562 -0.2255  0.8055  0.4605
   24DOPE  H13S 3033   6.712   5.561  15.707 -1.8032 -0.9439 -0.0448
   24DOPE  C214 3034   6.763   5.413  15.568 -0.0537  0.3618  0.4414
   24DOPE  H14R 3035   6.867   5.426  15.605  0.1641  0.5106 -0.2128
   24DOPE  H14S 3036   6.769   5.387  15.460  1.3720 -2.2597  1.0550
   24DOPE  C215 3037   6.682   5.296  15.627 -0.0612  0.1094  0.2553
   24DOPE  H15R 3038   6.577   5.318  15.598  0.3120  0.9261 -0.5539
   24DOPE  H15S 3039   6.694   5.302  15.737 -0.7969 -0.7217  0.3857
   24DOPE  C216 3040   6.737   5.159  15.596 -0.4299  0.1242  1.7606
   24DOPE  H16R 3041   6.692   5.080  15.660 -0.4817 -0.3039  1.2068
   24DOPE  H16S 3042   6.840   5.172  15.636 -0.3490  0.7141  1.3716
   24DOPE  C217 3043   6.743   5.115  15.447 -1.4058 -0.2163 -0.9312
   24DOPE  H17R 3044   6.814   5.169  15.382 -0.2409 -0.1734  0.3319
   24DOPE  H17S 3045   6.643   5.131  15.401 -0.8322  2.7463 -1.3299
   24DOPE  C218 3046   6.783   4.972  15.437 -0.0582  0.5946 -0.5381
   24DOPE  H18R 3047   6.768   4.946  15.330 -0.5946 -0.9403 -0.1138
   24DOPE  H18S 3048   6.713   4.902  15.488  0.0994  0.8066 -0.0318
   24DOPE  H18T 3049   6.886   4.951  15.472  0.1602  1.3875 -0.6976
   24DOPE   C33 3050   6.186   6.669  16.138  0.1445  0.1468 -0.2009
   24DOPE   H3X 3051   6.253   6.738  16.196  0.5886 -0.4397 -0.0072
   24DOPE   H3Y 3052   6.087   6.710  16.165  0.6322  1.4323 -0.2778
   24DOPE   C34 3053   6.217   6.692  15.997 -0.7636  0.0690 -0.1316
   24DOPE   H4X 3054   6.228   6.800  15.974 -0.3806 -0.0628 -0.5723
   24DOPE   H4Y 3055   6.315   6.640  15.994 -0.1958  1.0771  0.2797
   24DOPE   C35 3056   6.133   6.621  15.893 -0.2049 -0.0205 -0.4768
   24DOPE   H5X 3057   6.028   6.647  15.920 -0.6182  1.0596 -2.8349
   24DOPE   H5Y 3058   6.149   6.511  15.892  1.2676  0.1296  1.4417
   24DOPE   C36 3059   6.162   6.667  15.754  0.3876 -0.0611 -0.1023
   24DOPE   H6X 3060   6.124   6.770  15.735 -1.5649 -0.4221  1.5457
   24DOPE   H6Y 3061   6.104   6.603  15.685  0.8481 -0.4836 -0.1065
   24DOPE   C37 3062   6.302   6.649  15.709 -0.8082 -0.6092 -0.2173
   24DOPE   H7X 3063   6.368   6.711  15.773 -1.3483 -0.5040  0.2463
   24DOPE   H7Y 3064   6.336   6.544  15.718 -0.5218 -0.4714  0.3671
   24DOPE   C38 3065   6.323   6.696  15.566 -0.8098 -0.3857  0.3696
   24DOPE   H8X 3066   6.433   6.685  15.552 -1.0119 -1.0284 -0.8230
   24DOPE   H8Y 3067   6.322   6.807  15.575  1.6821 -0.2871  0.2640
   24DOPE   C39 3068   6.246   6.628  15.460  0.0742 -0.9336 -0.0916
   24DOPE   H9X 3069   6.282   6.525  15.445  2.2046 -0.2292 -0.1986
   24DOPE  C310 3070   6.141   6.675  15.383  0.8664  0.4746 -0.2754
   24DOPE  H10X 3071   6.089   6.605  15.316  0.1596  0.8351 -0.1078
   24DOPE  C311 3072   6.085   6.810  15.396 -0.4657 -0.0595 -0.4817
   24DOPE  H11X 3073   5.975   6.802  15.384 -0.4624 -2.1813  0.4265
   24DOPE  H11Y 3074   6.106   6.851  15.497 -0.6334 -0.2708 -0.3587
   24DOPE  C312 3075   6.157   6.900  15.294  0.1682 -0.2380  0.2429
   24DOPE  H12X 3076   6.266   6.880  15.283 -0.0145 -0.8089 -0.6590
   24DOPE  H12Y 3077   6.128   6.999  15.335 -0.0525 -0.7358  1.3211
   24DOPE  C313 3078   6.100   6.883  15.156  0.4665  0.5548  0.3156
   24DOPE  H13X 3079   6.135   6.793  15.101 -0.4581 -0.4289  1.2716
   24DOPE  H13Y 3080   5.992   6.862  15.172  0.8539 -1.2029  0.8902
   24DOPE  C314 3081   6.132   6.994  15.066  0.4583 -1.1415 -1.1823
   24DOPE  H14X 3082   6.236   7.008  15.031  0.8109  2.4597  0.8692
   24DOPE  H14Y 3083   6.105   7.091  15.114 -1.4879 -1.9568 -0.5092
   24DOPE  C315 3084   6.040   6.986  14.944 -0.5025  0.0368  0.1140
   24DOPE  H15X 3085   6.030   7.093  14.913 -0.2993  0.0501  0.0918
   24DOPE  H15Y 3086   5.940   6.945  14.969 -0.4207 -1.9718 -2.4268
   24DOPE  C316 3087   6.099   6.903  14.835 -0.0167 -0.1135  0.0227
   24DOPE  H16X 3088   6.061   6.802  14.863 -0.1823 -0.0013  0.2009
   24DOPE  H16Y 3089   6.210   6.912  14.842 -0.0891  3.2434 -1.5461
   24DOPE  C317 3090   6.042   6.939  14.697  0.1444  0.3881 -0.2289
   24DOPE  H17X 3091   5.933   6.922  14.705  0.1600 -1.0878 -2.2401
   24DOPE  H17Y 3092   6.064   7.043  14.666  0.8505  0.1305 -0.6210
   24DOPE  C318 3093   6.103   6.844  14.593 -0.6464  0.8850 -0.2294
   24DOPE  H18X 3094   6.213   6.858  14.586 -0.3624 -0.5118  1.0187
   24DOPE  H18Y 3095   6.084   6.739  14.623 -0.2553  0.6184 -0.8906
   24DOPE  H18Z 3096   6.058   6.852  14.491 -1.2238  3.0212  0.1480
   25DOPE     N 3097   0.360   6.948  17.131  0.1519  0.7238 -0.3781
   25DOPE   HN1 3098   0.302   6.957  17.217 -1.8879  0.8159 -1.6846
   25DOPE   HN2 3099   0.418   6.862  17.141 -0.5271  0.1560 -1.0834
   25DOPE   HN3 3100   0.421   7.030  17.115  0.0985  0.6984 -0.7217
   25DOPE   C12 3101   0.269   6.914  17.017  0.1712 -0.0219  0.2150
   25DOPE  H12A 3102   0.200   6.838  17.058 -0.8338  1.2693  1.0009
   25DOPE  H12B 3103   0.335   6.872  16.938  0.1044 -1.9498  1.1420
   25DOPE   C11 3104   0.192   7.040  16.985 -0.1837 -0.0032 -0.1937
   25DOPE  H11A 3105   0.147   7.039  16.883  0.5656  2.0720 -0.5935
   25DOPE  H11B 3106   0.256   7.130  16.985  0.4192 -0.3928  1.5327
   25DOPE     P 3107  -0.054   7.056  17.076 -0.3588  0.1857 -0.2705
   25DOPE   O13 3108  -0.116   7.151  17.161  0.0958  0.0518 -0.4924
   25DOPE   O14 3109  -0.091   6.915  17.090  0.0824  0.0959  0.4650
   25DOPE   O11 3110  -0.076   7.095  16.921 -0.7093 -0.3300  0.3093
   25DOPE   O12 3111   0.109   7.066  17.092 -0.3284 -0.7282  0.1751
   25DOPE    C1 3112  -0.211   7.093  16.875  0.1132 -0.1590  0.4554
   25DOPE    HA 3113  -0.249   7.197  16.866 -0.4859 -0.2541  1.6973
   25DOPE    HB 3114  -0.278   7.036  16.943 -1.7562  0.8575 -0.4488
   25DOPE    C2 3115  -0.238   7.031  16.734  1.1504  0.1923 -0.7326
   25DOPE    HS 3116  -0.246   6.921  16.742  2.5141  0.1330  0.3616
   25DOPE   O21 3117  -0.130   7.077  16.655  0.0081 -0.3458  0.1003
   25DOPE   C21 3118  -0.036   6.984  16.638  0.8203 -0.9494  0.2671
   25DOPE   O22 3119  -0.019   6.875  16.689 -0.1911 -0.1593 -0.0031
   25DOPE   C22 3120   0.060   7.043  16.536  0.3406  0.3132  0.0287
   25DOPE   H2R 3121   0.147   6.974  16.528  0.4954  0.2597  1.8154
   25DOPE   H2S 3122   0.102   7.136  16.578  0.0867  0.2199  0.4968
   25DOPE    C3 3123  -0.374   7.070  16.670 -0.2136 -0.4001  0.0351
   25DOPE    HX 3124  -0.375   7.181  16.659 -1.4136 -0.4185 -0.1707
   25DOPE    HY 3125  -0.460   7.052  16.738 -0.1058  1.0594  0.5921
   25DOPE   O31 3126  -0.387   7.013  16.541  0.0173  1.1216 -0.0376
   25DOPE   C31 3127  -0.446   6.893  16.525  0.8259  0.3897 -0.0800
   25DOPE   O32 3128  -0.451   6.815  16.617  0.8618  0.3776 -0.0984
   25DOPE   C32 3129  -0.481   6.861  16.380  0.3339 -1.1118 -0.2999
   25DOPE   H2X 3130  -0.529   6.946  16.326  0.3850 -0.5545  0.5181
   25DOPE   H2Y 3131  -0.386   6.835  16.329  0.9259 -0.1635  0.2981
   25DOPE   C23 3132  -0.011   7.077  16.403 -0.2921  0.1229  0.0373
   25DOPE   H3R 3133   0.056   7.142  16.342  0.3079  1.1034  1.6738
   25DOPE   H3S 3134  -0.101   7.136  16.428 -0.2559  0.0129  0.4200
   25DOPE   C24 3135  -0.041   6.955  16.324 -0.3143  0.5566 -0.1317
   25DOPE   H4R 3136  -0.097   6.883  16.388  0.4830 -0.2912 -0.3708
   25DOPE   H4S 3137   0.052   6.897  16.308  0.3879  1.7269 -0.3803
   25DOPE   C25 3138  -0.111   6.977  16.187  0.7297 -0.4216  0.4838
   25DOPE   H5R 3139  -0.040   7.023  16.114  1.6013 -0.3225  1.3825
   25DOPE   H5S 3140  -0.192   7.052  16.199 -1.5605 -2.1077 -2.8282
   25DOPE   C26 3141  -0.163   6.844  16.127 -0.1628 -0.1225  0.0739
   25DOPE   H6R 3142  -0.233   6.796  16.198  0.7109 -0.8183  0.4779
   25DOPE   H6S 3143  -0.083   6.773  16.096  0.1214  0.4798 -0.6253
   25DOPE   C27 3144  -0.232   6.866  15.985  0.3007  0.3422  0.0122
   25DOPE   H7R 3145  -0.155   6.924  15.930  2.3165 -0.9385  1.3535
   25DOPE   H7S 3146  -0.318   6.936  15.990 -0.8177 -0.9184 -0.7802
   25DOPE   C28 3147  -0.278   6.735  15.924  0.3619 -0.1454 -0.1666
   25DOPE   H8R 3148  -0.361   6.715  15.995  0.5729  1.0208  0.4289
   25DOPE   H8S 3149  -0.204   6.652  15.932 -0.4385 -0.7628  1.1445
   25DOPE   C29 3150  -0.327   6.750  15.789  0.6901 -0.4035 -0.0415
   25DOPE   H9R 3151  -0.307   6.846  15.740 -2.2465  0.3519  0.0332
   25DOPE  C210 3152  -0.399   6.653  15.718  0.5163  0.5238 -0.2703
   25DOPE  H10R 3153  -0.427   6.670  15.613  0.5258 -1.2431 -0.5947
   25DOPE  C211 3154  -0.439   6.521  15.768  0.4947 -0.1628  0.0496
   25DOPE  H11R 3155  -0.546   6.500  15.748  0.3805  0.1730  0.2978
   25DOPE  H11S 3156  -0.448   6.518  15.879 -1.6620 -2.4333 -0.0948
   25DOPE  C212 3157  -0.348   6.413  15.719 -0.7216  0.5737  0.6414
   25DOPE  H12R 3158  -0.356   6.324  15.785 -0.5779  0.4981  0.5559
   25DOPE  H12S 3159  -0.242   6.445  15.728 -0.5519  0.0356  0.5702
   25DOPE  C213 3160  -0.383   6.372  15.577  0.4807 -0.5618 -1.0379
   25DOPE  H13R 3161  -0.383   6.462  15.511 -1.6928 -0.7315 -1.3417
   25DOPE  H13S 3162  -0.484   6.325  15.578  1.1853 -2.1649  0.8155
   25DOPE  C214 3163  -0.285   6.287  15.497  0.0345  0.2630 -0.5897
   25DOPE  H14R 3164  -0.315   6.286  15.390  1.7779 -1.0323 -1.1099
   25DOPE  H14S 3165  -0.280   6.183  15.534 -0.7484  0.5511  0.3780
   25DOPE  C215 3166  -0.141   6.345  15.486  0.4531  0.1955 -0.3011
   25DOPE  H15R 3167  -0.088   6.332  15.583  0.7744 -2.2073 -0.7264
   25DOPE  H15S 3168  -0.139   6.454  15.466 -0.0393  0.2838  0.1063
   25DOPE  C216 3169  -0.060   6.269  15.384 -0.2091 -0.1630 -0.1024
   25DOPE  H16R 3170  -0.126   6.232  15.303  0.5804 -0.7412 -0.4925
   25DOPE  H16S 3171  -0.010   6.189  15.442 -0.4705  0.7857  1.4917
   25DOPE  C217 3172   0.038   6.363  15.306  0.1200  0.0250 -0.5611
   25DOPE  H17R 3173  -0.018   6.444  15.254 -2.0814  0.5092  2.2616
   25DOPE  H17S 3174   0.093   6.304  15.230  1.4608  0.1687  0.2668
   25DOPE  C218 3175   0.145   6.426  15.402 -0.1924  0.5367 -0.2388
   25DOPE  H18R 3176   0.146   6.532  15.370 -0.5652  0.8746  0.8290
   25DOPE  H18S 3177   0.242   6.372  15.396 -0.1442  0.7576 -1.7297
   25DOPE  H18T 3178   0.106   6.428  15.506 -1.5815  2.1248 -0.7463
   25DOPE   C33 3179  -0.584   6.740  16.373  0.4368 -0.3469  0.0887
   25DOPE   H3X 3180  -0.689   6.765  16.398  0.6789 -0.7971  1.6830
   25DOPE   H3Y 3181  -0.540   6.664  16.441  1.8366  1.2250  1.0306
   25DOPE   C34 3182  -0.600   6.675  16.230 -0.0040  0.6459  0.6595
   25DOPE   H4X 3183  -0.501   6.646  16.190 -0.5230 -0.9844  0.4716
   25DOPE   H4Y 3184  -0.665   6.586  16.244 -2.1225  1.8889 -0.6693
   25DOPE   C35 3185  -0.665   6.772  16.125  0.8552  0.3421 -0.7094
   25DOPE   H5X 3186  -0.596   6.858  16.108  1.1602  0.2161 -0.1655
   25DOPE   H5Y 3187  -0.767   6.790  16.163  0.8391 -0.4306 -0.3722
   25DOPE   C36 3188  -0.683   6.697  15.991 -0.0778  0.1087 -0.5401
   25DOPE   H6X 3189  -0.676   6.589  16.017  2.6984  0.2271 -0.5164
   25DOPE   H6Y 3190  -0.598   6.717  15.923 -1.2329  0.2190 -1.9990
   25DOPE   C37 3191  -0.811   6.730  15.908  0.0550  0.2507 -0.1386
   25DOPE   H7X 3192  -0.900   6.720  15.974  2.7138  1.2022  3.9562
   25DOPE   H7Y 3193  -0.808   6.838  15.880 -1.3722  0.3267 -0.1144
   25DOPE   C38 3194  -0.813   6.635  15.785  0.2718 -0.3279 -1.0812
   25DOPE   H8X 3195  -0.839   6.530  15.814 -1.5743 -0.2483 -2.2435
   25DOPE   H8Y 3196  -0.713   6.646  15.739  0.6358 -0.4382 -0.3413
   25DOPE   C39 3197  -0.913   6.677  15.683 -0.0096  0.0576  0.6028
   25DOPE   H9X 3198  -1.015   6.682  15.724 -0.4006 -1.7608 -0.0537
   25DOPE  C310 3199  -0.893   6.715  15.552 -0.4476  0.7675  0.6742
   25DOPE  H10X 3200  -0.975   6.769  15.501  1.4007  2.0854 -1.0220
   25DOPE  C311 3201  -0.767   6.718  15.483 -0.1266  0.2521 -0.4717
   25DOPE  H11X 3202  -0.679   6.707  15.550  1.5808  0.7982 -2.4953
   25DOPE  H11Y 3203  -0.773   6.636  15.409 -1.8253 -1.4252  1.4044
   25DOPE  C312 3204  -0.736   6.847  15.399 -0.2758  0.6030  0.2050
   25DOPE  H12X 3205  -0.728   6.943  15.455  0.4116 -0.4368  1.9829
   25DOPE  H12Y 3206  -0.817   6.848  15.323  0.3507  2.1888 -0.4960
   25DOPE  C313 3207  -0.607   6.830  15.321 -0.5632  0.3975  0.3091
   25DOPE  H13X 3208  -0.528   6.802  15.394  0.9587  1.2353 -0.9694
   25DOPE  H13Y 3209  -0.609   6.750  15.245  1.0657 -1.7528  2.3670
   25DOPE  C314 3210  -0.570   6.961  15.247  0.6592 -0.3231 -0.9422
   25DOPE  H14X 3211  -0.466   6.967  15.209  1.0789 -0.3216  0.1714
   25DOPE  H14Y 3212  -0.570   7.047  15.318 -0.7367  0.5034 -1.9020
   25DOPE  C315 3213  -0.662   6.997  15.132  0.2138 -0.1138  0.6134
   25DOPE  H15X 3214  -0.767   6.991  15.165  0.4935 -0.8419  1.4106
   25DOPE  H15Y 3215  -0.643   6.919  15.055 -0.2826  0.4451 -0.0835
   25DOPE  C316 3216  -0.631   7.136  15.078 -0.5559 -0.6416  0.1089
   25DOPE  H16X 3217  -0.528   7.131  15.037 -0.4856 -1.7620  0.3985
   25DOPE  H16Y 3218  -0.643   7.218  15.152  0.6105  1.6621 -2.0597
   25DOPE  C317 3219  -0.724   7.183  14.959 -0.2409 -0.7708 -0.7760
   25DOPE  H17X 3220  -0.730   7.097  14.890 -1.9903  0.4737 -2.2862
   25DOPE  H17Y 3221  -0.826   7.199  15.000  0.4100  0.2746  0.5225
   25DOPE  C318 3222  -0.684   7.304  14.875  0.8058  0.7341 -0.3161
   25DOPE  H18X 3223  -0.634   7.369  14.949  0.5654  2.8633 -1.9182
   25DOPE  H18Y 3224  -0.612   7.265  14.800  1.7700  0.9333  0.4934
   25DOPE  H18Z 3225  -0.779   7.337  14.828  0.5341  0.1999 -0.1450
   26DOPE     N 3226   1.071   7.076  17.158  0.2530  0.3971 -0.7413
   26DOPE   HN1 3227   1.084   7.129  17.246  1.1453 -2.6411  1.1282
   26DOPE   HN2 3228   1.000   7.000  17.154  1.7382 -1.0721 -0.5853
   26DOPE   HN3 3229   1.166   7.035  17.145 -0.3243 -0.5102 -2.4465
   26DOPE   C12 3230   1.043   7.185  17.067  0.7984 -0.0538  0.4484
   26DOPE  H12A 3231   1.133   7.226  17.015 -1.1267  3.7258 -0.2300
   26DOPE  H12B 3232   0.994   7.263  17.129  1.3859  1.3122 -0.7431
   26DOPE   C11 3233   0.928   7.134  16.981  0.3114 -0.3798  0.1555
   26DOPE  H11A 3234   0.965   7.043  16.929  0.8390  0.0538 -0.2416
   26DOPE  H11B 3235   0.919   7.207  16.898  0.2562 -0.4895  0.0642
   26DOPE     P 3236   0.683   7.201  17.052  0.0528 -0.3379 -0.0142
   26DOPE   O13 3237   0.721   7.332  17.108  0.8138  0.1134  0.2618
   26DOPE   O14 3238   0.564   7.130  17.114  0.0342 -0.1525  0.3192
   26DOPE   O11 3239   0.681   7.212  16.890 -0.0007  0.1101 -0.1741
   26DOPE   O12 3240   0.806   7.108  17.059 -0.4551 -0.2475 -0.6786
   26DOPE    C1 3241   0.567   7.284  16.832  1.0590  0.1195  0.4699
   26DOPE    HA 3242   0.574   7.391  16.860  0.8765 -0.5439  3.4163
   26DOPE    HB 3243   0.471   7.234  16.859 -1.2831  2.7566 -2.2367
   26DOPE    C2 3244   0.566   7.281  16.676  0.1839 -0.6740  0.1207
   26DOPE    HS 3245   0.467   7.312  16.637  0.7670 -0.1143 -0.9576
   26DOPE   O21 3246   0.595   7.150  16.623 -0.2878  0.1855  0.0193
   26DOPE   C21 3247   0.492   7.063  16.637 -0.1599 -0.0631 -0.2302
   26DOPE   O22 3248   0.380   7.096  16.683  0.0850 -0.2883 -0.1513
   26DOPE   C22 3249   0.539   6.919  16.611 -0.6579  0.3362 -0.1143
   26DOPE   H2R 3250   0.576   6.879  16.708 -1.5915  1.4660  0.7469
   26DOPE   H2S 3251   0.629   6.912  16.547 -0.3499 -2.1719  0.5162
   26DOPE    C3 3252   0.667   7.386  16.630  0.1191 -0.0416 -0.3742
   26DOPE    HX 3253   0.769   7.354  16.661  0.1838  1.2206  0.8088
   26DOPE    HY 3254   0.657   7.489  16.668  3.2710  0.1680  0.1920
   26DOPE   O31 3255   0.665   7.393  16.487  0.0720  0.0362 -0.1486
   26DOPE   C31 3256   0.566   7.453  16.421 -0.3381  0.1335  0.8275
   26DOPE   O32 3257   0.470   7.506  16.469 -0.0746 -0.0383 -0.6050
   26DOPE   C32 3258   0.583   7.418  16.279 -0.8033  0.0455  0.0942
   26DOPE   H2X 3259   0.666   7.485  16.247 -1.0706  1.9930  3.0319
   26DOPE   H2Y 3260   0.626   7.315  16.284  0.0300  0.4281  1.3693
   26DOPE   C23 3261   0.441   6.816  16.545  0.4435 -0.1962 -0.2993
   26DOPE   H3R 3262   0.346   6.806  16.602 -0.4406 -0.8692 -1.8557
   26DOPE   H3S 3263   0.495   6.719  16.551  0.3530 -0.2185  0.2201
   26DOPE   C24 3264   0.418   6.847  16.398  0.2256  0.9769  0.4776
   26DOPE   H4R 3265   0.513   6.856  16.341  0.4056  2.9218  1.0148
   26DOPE   H4S 3266   0.377   6.950  16.395  0.8513  1.2135 -0.4517
   26DOPE   C25 3267   0.342   6.745  16.312  0.2959  0.0921  0.5291
   26DOPE   H5R 3268   0.244   6.720  16.358  1.0845  0.3780  2.4824
   26DOPE   H5S 3269   0.408   6.656  16.308 -0.1833 -0.2324 -0.1378
   26DOPE   C26 3270   0.314   6.799  16.174  0.0293 -0.5456  0.2389
   26DOPE   H6R 3271   0.404   6.823  16.113 -1.5729  1.8641 -1.3490
   26DOPE   H6S 3272   0.269   6.899  16.193  1.0946 -0.1934  1.0043
   26DOPE   C27 3273   0.214   6.714  16.093  0.0325 -0.0257  0.1721
   26DOPE   H7R 3274   0.151   6.789  16.040  0.6355 -1.3805 -2.6417
   26DOPE   H7S 3275   0.150   6.657  16.164 -1.5615  0.5730 -0.7345
   26DOPE   C28 3276   0.281   6.634  15.978 -0.0116 -0.3829 -0.2839
   26DOPE   H8R 3277   0.351   6.568  16.033 -0.4166 -1.9360 -1.5774
   26DOPE   H8S 3278   0.346   6.696  15.913  1.0847 -0.8469  0.3447
   26DOPE   C29 3279   0.178   6.561  15.896 -0.0737  0.2063 -0.9948
   26DOPE   H9R 3280   0.075   6.597  15.896 -0.4923 -0.8421  0.9566
   26DOPE  C210 3281   0.201   6.443  15.837  0.6816  0.2287 -0.3277
   26DOPE  H10R 3282   0.132   6.411  15.757  0.7666 -1.4432  0.2235
   26DOPE  C211 3283   0.331   6.373  15.844 -0.6307 -0.3505  0.6063
   26DOPE  H11R 3284   0.336   6.293  15.921 -1.7239 -2.1633 -1.1179
   26DOPE  H11S 3285   0.414   6.441  15.875 -0.8602  0.6297 -0.8098
   26DOPE  C212 3286   0.374   6.309  15.709  0.0757  0.2217  0.1897
   26DOPE  H12R 3287   0.475   6.263  15.722  0.2467  1.4289  4.6012
   26DOPE  H12S 3288   0.375   6.382  15.625  1.4842  0.3827  0.3234
   26DOPE  C213 3289   0.294   6.181  15.668  0.3831 -0.1330  0.1083
   26DOPE  H13R 3290   0.189   6.205  15.639  0.5583 -1.7218 -2.0821
   26DOPE  H13S 3291   0.290   6.105  15.748  1.0842 -1.5403 -1.1376
   26DOPE  C214 3292   0.357   6.121  15.543  0.7474  0.8255 -0.0600
   26DOPE  H14R 3293   0.455   6.082  15.578  1.2463  2.9544  1.0722
   26DOPE  H14S 3294   0.378   6.201  15.468  0.4139  1.2609  0.3058
   26DOPE  C215 3295   0.276   6.016  15.474 -0.7394  0.5338 -0.2649
   26DOPE  H15R 3296   0.176   6.056  15.448 -0.5188  1.1450 -0.1955
   26DOPE  H15S 3297   0.264   5.933  15.546 -1.1735 -0.1076 -1.0596
   26DOPE  C216 3298   0.351   5.952  15.362 -0.1155  0.0923 -0.3563
   26DOPE  H16R 3299   0.441   5.903  15.406 -0.5567  0.0324  0.4879
   26DOPE  H16S 3300   0.383   6.034  15.294  0.2989 -2.2496 -3.1639
   26DOPE  C217 3301   0.258   5.865  15.284  0.1165  0.1652  0.3431
   26DOPE  H17R 3302   0.175   5.923  15.239 -1.1759 -2.2956 -0.6238
   26DOPE  H17S 3303   0.203   5.804  15.360 -1.6057  1.7056  0.3847
   26DOPE  C218 3304   0.323   5.771  15.180 -0.3253 -0.0461  0.1074
   26DOPE  H18R 3305   0.376   5.690  15.235  1.0979  0.5440 -0.3375
   26DOPE  H18S 3306   0.391   5.835  15.121 -1.0593  1.1888  0.5787
   26DOPE  H18T 3307   0.244   5.724  15.117  0.5543 -1.7256  0.2009
   26DOPE   C33 3308   0.455   7.434  16.191  0.0168 -1.4537 -0.0232
   26DOPE   H3X 3309   0.496   7.443  16.089  1.2068 -0.1458  0.5299
   26DOPE   H3Y 3310   0.398   7.526  16.218 -0.8738 -1.9362 -0.2378
   26DOPE   C34 3311   0.367   7.310  16.206  0.0879 -0.1154  0.0344
   26DOPE   H4X 3312   0.326   7.318  16.309  1.4432  0.4637  0.5399
   26DOPE   H4Y 3313   0.284   7.332  16.135  1.4373  0.0474 -1.5661
   26DOPE   C35 3314   0.426   7.170  16.163 -0.3438  0.3589 -0.9090
   26DOPE   H5X 3315   0.337   7.106  16.179 -2.0967  2.7942 -0.3595
   26DOPE   H5Y 3316   0.518   7.131  16.213 -1.5570 -0.4924  0.7373
   26DOPE   C36 3317   0.465   7.181  16.011 -0.4948 -0.2591  0.0686
   26DOPE   H6X 3318   0.561   7.235  16.022 -0.6361 -0.1324  0.7458
   26DOPE   H6Y 3319   0.394   7.249  15.960 -2.5602 -1.3801  1.2709
   26DOPE   C37 3320   0.488   7.042  15.947  0.1341 -0.2238 -0.2199
   26DOPE   H7X 3321   0.544   6.976  16.017 -0.3000  0.3113  0.6586
   26DOPE   H7Y 3322   0.389   6.990  15.946 -0.2331  0.4733 -1.2929
   26DOPE   C38 3323   0.553   7.045  15.811  0.5349  0.4390  0.2317
   26DOPE   H8X 3324   0.587   6.943  15.783 -0.0307  0.0334  0.9970
   26DOPE   H8Y 3325   0.643   7.109  15.818  0.6623  0.5149 -1.6156
   26DOPE   C39 3326   0.460   7.113  15.708 -0.1092  0.1153  0.3893
   26DOPE   H9X 3327   0.456   7.222  15.715  1.5049  0.1205  2.3411
   26DOPE  C310 3328   0.384   7.046  15.614 -0.2575 -0.1058  0.0474
   26DOPE  H10X 3329   0.325   7.105  15.543  0.2026  0.3211  0.0092
   26DOPE  C311 3330   0.378   6.896  15.599 -0.4821 -0.1002  0.5983
   26DOPE  H11X 3331   0.375   6.863  15.493  1.3489  2.3927 -0.2999
   26DOPE  H11Y 3332   0.476   6.856  15.632 -0.3766  0.9650  1.6440
   26DOPE  C312 3333   0.256   6.836  15.679 -0.1051 -0.4928  0.3315
   26DOPE  H12X 3334   0.266   6.863  15.786 -0.6274 -1.1720  0.5552
   26DOPE  H12Y 3335   0.263   6.727  15.659  0.6704 -0.9323  2.7023
   26DOPE  C313 3336   0.120   6.875  15.628 -0.5588 -0.1398 -0.0323
   26DOPE  H13X 3337   0.047   6.829  15.698 -1.8426  1.0991 -0.5061
   26DOPE  H13Y 3338   0.101   6.984  15.620  1.0821  0.0595 -2.0861
   26DOPE  C314 3339   0.100   6.810  15.491 -0.2641 -0.5366  0.1329
   26DOPE  H14X 3340   0.124   6.702  15.486 -0.5990 -0.5691 -0.9214
   26DOPE  H14Y 3341   0.167   6.850  15.412 -0.0748  1.0742  1.0543
   26DOPE  C315 3342  -0.047   6.816  15.438 -0.2626  0.0148  0.0175
   26DOPE  H15X 3343  -0.074   6.924  15.440 -1.0628 -0.1823  0.4095
   26DOPE  H15Y 3344  -0.108   6.763  15.515 -2.0793  0.3441 -1.1293
   26DOPE  C316 3345  -0.063   6.763  15.296 -0.6136 -0.6356  0.2531
   26DOPE  H16X 3346  -0.042   6.654  15.297 -0.7995 -0.6765 -0.1487
   26DOPE  H16Y 3347   0.003   6.811  15.220 -2.3159  1.3935 -0.0644
   26DOPE  C317 3348  -0.203   6.782  15.231  0.3845 -0.5965 -0.7454
   26DOPE  H17X 3349  -0.275   6.743  15.307  0.6771  0.5640  0.1563
   26DOPE  H17Y 3350  -0.223   6.889  15.207 -1.9386 -0.5343  1.0296
   26DOPE  C318 3351  -0.221   6.708  15.097  0.1037 -0.1739 -0.5340
   26DOPE  H18X 3352  -0.143   6.755  15.033 -0.4868 -0.1171 -1.2229
   26DOPE  H18Y 3353  -0.205   6.599  15.114  0.1364  0.1961  2.1975
   26DOPE  H18Z 3354  -0.322   6.720  15.054  0.7583  3.8047 -1.4040
   27DOPE     N 3355   4.893   1.069  17.179 -0.1012  0.1406  0.4439
   27DOPE   HN1 3356   4.919   1.094  17.081  0.2383 -0.9051  0.2517
   27DOPE   HN2 3357   4.859   0.970  17.177 -0.5659  0.3055 -0.1774
   27DOPE   HN3 3358   4.809   1.123  17.209  1.2748  1.5687  1.8809
   27DOPE   C12 3359   5.018   1.080  17.264 -0.1303  0.5972  0.1485
   27DOPE  H12A 3360   4.997   1.050  17.369 -0.8124 -1.0034 -0.4104
   27DOPE  H12B 3361   5.046   1.187  17.264  1.9870  0.0927  0.6056
   27DOPE   C11 3362   5.118   0.990  17.195 -0.2728 -1.1335 -0.1734
   27DOPE  H11A 3363   5.081   0.886  17.189 -0.1278 -1.1177 -1.6743
   27DOPE  H11B 3364   5.211   0.987  17.256 -1.1448  0.6969  1.3363
   27DOPE     P 3365   5.264   1.143  17.042  0.2256 -0.2247  0.1317
   27DOPE   O13 3366   5.279   1.240  17.151 -0.2430 -0.1684  0.4724
   27DOPE   O14 3367   5.273   1.200  16.906  0.0288 -0.3421  0.0148
   27DOPE   O11 3368   5.385   1.040  17.044  0.0900 -0.5908 -0.1145
   27DOPE   O12 3369   5.144   1.038  17.064  0.3675  0.1365  0.3663
   27DOPE    C1 3370   5.382   0.915  16.970 -0.5346 -0.3950 -0.1169
   27DOPE    HA 3371   5.289   0.912  16.909 -0.6872  1.2634 -0.0304
   27DOPE    HB 3372   5.370   0.828  17.039 -3.8169 -0.0609 -0.0698
   27DOPE    C2 3373   5.511   0.902  16.879 -0.0139  0.2254  0.0034
   27DOPE    HS 3374   5.598   0.940  16.938 -0.2275  1.7187 -0.5918
   27DOPE   O21 3375   5.492   0.982  16.758 -0.4977 -0.4404  0.1545
   27DOPE   C21 3376   5.527   1.111  16.769  0.5526 -0.0401  0.2713
   27DOPE   O22 3377   5.596   1.155  16.856 -0.2963  0.5032  0.4393
   27DOPE   C22 3378   5.468   1.187  16.649  0.2260  0.3073  0.0311
   27DOPE   H2R 3379   5.462   1.285  16.701  0.1949  1.0709 -1.3740
   27DOPE   H2S 3380   5.365   1.154  16.625 -0.3720  1.6594  0.6367
   27DOPE    C3 3381   5.545   0.760  16.842 -0.7060  0.4584  0.0291
   27DOPE    HX 3382   5.451   0.702  16.843  0.9174 -2.4274 -1.2264
   27DOPE    HY 3383   5.611   0.710  16.916  1.1380 -0.6467 -2.2226
   27DOPE   O31 3384   5.608   0.742  16.713 -0.0331  0.1454 -0.4262
   27DOPE   C31 3385   5.737   0.779  16.703  0.1630 -1.4701 -0.2291
   27DOPE   O32 3386   5.804   0.843  16.782  0.2438 -0.9212 -0.2206
   27DOPE   C32 3387   5.780   0.732  16.569 -0.4968 -0.7945 -0.0404
   27DOPE   H2X 3388   5.802   0.624  16.579 -0.2284 -0.6498  1.0488
   27DOPE   H2Y 3389   5.695   0.739  16.498  1.2245  0.9377 -2.0741
   27DOPE   C23 3390   5.577   1.189  16.541 -0.5488 -0.2294 -0.5220
   27DOPE   H3R 3391   5.671   1.229  16.585 -0.5308 -0.1594 -0.6239
   27DOPE   H3S 3392   5.543   1.267  16.470 -0.6193 -0.3114 -0.5783
   27DOPE   C24 3393   5.596   1.063  16.467  0.5788 -0.1850  0.2403
   27DOPE   H4R 3394   5.495   1.034  16.430  0.7554 -0.3701 -0.0979
   27DOPE   H4S 3395   5.623   0.980  16.535 -0.9660  0.0909  1.2479
   27DOPE   C25 3396   5.687   1.075  16.338  0.1623  0.7517 -0.1540
   27DOPE   H5R 3397   5.696   0.967  16.311 -2.9492  0.2387  0.4470
   27DOPE   H5S 3398   5.786   1.107  16.375  1.5597 -1.6315 -1.5531
   27DOPE   C26 3399   5.631   1.153  16.221  0.7029  0.4918  0.5443
   27DOPE   H6R 3400   5.604   1.256  16.253  2.3607  0.7457  1.2601
   27DOPE   H6S 3401   5.541   1.103  16.180  0.0645  1.0597  1.2354
   27DOPE   C27 3402   5.724   1.159  16.087 -0.3371 -0.1498 -0.6745
   27DOPE   H7R 3403   5.829   1.137  16.114 -0.6885 -1.7405 -0.5323
   27DOPE   H7S 3404   5.735   1.262  16.047 -0.1696  0.0873 -0.0365
   27DOPE   C28 3405   5.681   1.073  15.969  0.2293 -1.4169  0.1158
   27DOPE   H8R 3406   5.746   1.093  15.881  0.2171 -0.1158  0.3832
   27DOPE   H8S 3407   5.581   1.113  15.941  0.9146  0.0935 -0.2582
   27DOPE   C29 3408   5.687   0.930  16.014  0.7639  0.0562  0.7745
   27DOPE   H9R 3409   5.628   0.902  16.103 -0.4508 -0.9607 -0.3164
   27DOPE  C210 3410   5.745   0.829  15.942 -0.6208 -0.6778 -0.0105
   27DOPE  H10R 3411   5.748   0.729  15.989 -2.1358 -2.1085 -2.7239
   27DOPE  C211 3412   5.820   0.845  15.811  0.2879  0.8031 -0.4451
   27DOPE  H11R 3413   5.902   0.770  15.804  1.4392  2.0406 -0.5188
   27DOPE  H11S 3414   5.865   0.946  15.802  0.8738  0.4695 -1.3550
   27DOPE  C212 3415   5.720   0.819  15.688  0.1608 -0.4056  0.0022
   27DOPE  H12R 3416   5.640   0.895  15.700 -1.7145 -1.9134 -2.2077
   27DOPE  H12S 3417   5.673   0.719  15.704 -1.1429  0.0778 -0.6602
   27DOPE  C213 3418   5.783   0.820  15.552 -0.1093  0.0040  0.3013
   27DOPE  H13R 3419   5.861   0.898  15.541  0.7949 -1.0626 -1.2723
   27DOPE  H13S 3420   5.697   0.849  15.488 -1.3697 -0.9026  1.5071
   27DOPE  C214 3421   5.822   0.684  15.505  0.3097 -0.4642  0.1540
   27DOPE  H14R 3422   5.739   0.612  15.523 -0.4630  0.4546  0.3383
   27DOPE  H14S 3423   5.912   0.647  15.559  0.1140 -1.5394 -0.2321
   27DOPE  C215 3424   5.835   0.678  15.349  0.0121  0.4100  0.0554
   27DOPE  H15R 3425   5.912   0.750  15.314  0.0375  1.2839  1.7617
   27DOPE  H15S 3426   5.737   0.702  15.303  0.7040  0.7362 -1.3104
   27DOPE  C216 3427   5.892   0.541  15.302  0.1080 -0.3624  0.2937
   27DOPE  H16R 3428   5.817   0.472  15.348 -0.5350  1.3335  1.9081
   27DOPE  H16S 3429   5.992   0.525  15.347  0.1584 -3.2944 -0.6502
   27DOPE  C217 3430   5.906   0.537  15.145 -0.0588  0.1404  0.3441
   27DOPE  H17R 3431   5.988   0.606  15.119  0.4798 -0.3701  0.6744
   27DOPE  H17S 3432   5.807   0.561  15.099  0.8432  0.3576 -1.5468
   27DOPE  C218 3433   5.935   0.389  15.107 -0.3936 -0.9788  0.4023
   27DOPE  H18R 3434   5.863   0.323  15.159 -0.2697 -2.1426 -0.8554
   27DOPE  H18S 3435   6.040   0.373  15.139  0.0590  1.3579  0.2670
   27DOPE  H18T 3436   5.949   0.366  14.999 -1.6534 -0.1365  0.0215
   27DOPE   C33 3437   5.912   0.798  16.536  0.9565 -0.1458 -0.2821
   27DOPE   H3X 3438   5.970   0.795  16.630 -1.2721 -2.8002  1.1326
   27DOPE   H3Y 3439   5.894   0.905  16.512  0.4037  0.0573  0.9494
   27DOPE   C34 3440   6.006   0.720  16.439  0.4746 -0.9811  0.2855
   27DOPE   H4X 3441   6.109   0.758  16.460 -0.6439  1.1959  2.3323
   27DOPE   H4Y 3442   5.988   0.612  16.456 -0.8357 -0.5628  1.7969
   27DOPE   C35 3443   5.976   0.747  16.297 -1.1424  0.2613 -0.1224
   27DOPE   H5X 3444   5.974   0.857  16.285  2.4109  0.4227 -0.1704
   27DOPE   H5Y 3445   5.876   0.701  16.284 -0.8159 -0.6358  0.4413
   27DOPE   C36 3446   6.071   0.669  16.201 -0.4794 -0.4354 -0.9893
   27DOPE   H6X 3447   6.037   0.565  16.214 -0.8002 -0.3060 -0.7917
   27DOPE   H6Y 3448   6.178   0.669  16.231 -0.5817 -1.3392 -0.5905
   27DOPE   C37 3449   6.071   0.697  16.053  0.0820  0.5529  0.2535
   27DOPE   H7X 3450   5.967   0.690  16.014 -0.4818  2.6418  1.2485
   27DOPE   H7Y 3451   6.093   0.804  16.036  0.9858  0.4174  0.5216
   27DOPE   C38 3452   6.167   0.609  15.965  0.3194  0.4663  0.0612
   27DOPE   H8X 3453   6.156   0.502  15.993 -0.5126 -0.0637 -2.1116
   27DOPE   H8Y 3454   6.270   0.641  15.992 -0.2173  1.3886  1.0843
   27DOPE   C39 3455   6.136   0.627  15.819 -0.2871  0.3605 -0.1521
   27DOPE   H9X 3456   6.030   0.621  15.790 -0.1958  0.8271 -0.6015
   27DOPE  C310 3457   6.218   0.641  15.712 -0.2541  0.1350  0.4159
   27DOPE  H10X 3458   6.172   0.654  15.613 -1.1879  0.5146  0.8839
   27DOPE  C311 3459   6.366   0.630  15.726 -0.0808  0.3892 -0.0742
   27DOPE  H11X 3460   6.413   0.731  15.726  2.0338 -0.4945  2.3481
   27DOPE  H11Y 3461   6.392   0.572  15.817  2.1833  1.3416 -0.0638
   27DOPE  C312 3462   6.426   0.540  15.610 -0.1444 -0.3620  0.1186
   27DOPE  H12X 3463   6.367   0.446  15.613  1.5333 -1.4542  2.9650
   27DOPE  H12Y 3464   6.531   0.525  15.643  0.1549  1.3588  0.0135
   27DOPE  C313 3465   6.423   0.606  15.468 -0.4775 -0.0570 -0.4121
   27DOPE  H13X 3466   6.447   0.524  15.396  0.3399 -1.8611  1.7856
   27DOPE  H13Y 3467   6.318   0.631  15.440 -1.2090 -0.7480  1.5786
   27DOPE  C314 3468   6.524   0.712  15.439 -0.4249  0.2632  0.4962
   27DOPE  H14X 3469   6.520   0.767  15.535 -1.3834  1.7195 -0.3382
   27DOPE  H14Y 3470   6.493   0.788  15.365  0.8057  0.1527 -0.1437
   27DOPE  C315 3471   6.660   0.645  15.417  0.1634  0.0930 -0.4358
   27DOPE  H15X 3472   6.668   0.618  15.310 -1.4203  1.1185 -0.8496
   27DOPE  H15Y 3473   6.680   0.545  15.461  1.3844  0.0258 -1.0984
   27DOPE  C316 3474   6.770   0.745  15.451  0.2840  0.3201  0.3818
   27DOPE  H16X 3475   6.773   0.760  15.561 -1.5742 -1.2861  0.7270
   27DOPE  H16Y 3476   6.733   0.842  15.413  3.7717  1.7557  0.3172
   27DOPE  C317 3477   6.907   0.725  15.398  0.1732  0.1114 -0.4002
   27DOPE  H17X 3478   6.945   0.625  15.427  0.0250  0.1348 -0.1275
   27DOPE  H17Y 3479   6.896   0.720  15.287 -2.1398 -1.7812 -0.1611
   27DOPE  C318 3480   7.009   0.836  15.432  0.2274 -0.1615 -0.3973
   27DOPE  H18X 3481   7.107   0.824  15.380  0.8256 -1.6638  0.9969
   27DOPE  H18Y 3482   6.977   0.941  15.416  1.6737  0.1531 -1.5097
   27DOPE  H18Z 3483   7.031   0.836  15.540 -0.5345  0.7203 -0.2313
   28DOPE     N 3484   0.102   7.473  16.933 -0.5822  0.7204  0.4549
   28DOPE   HN1 3485   0.146   7.558  16.891  0.8115 -1.4622 -2.9836
   28DOPE   HN2 3486   0.000   7.480  16.953 -0.5825 -0.2194  0.8150
   28DOPE   HN3 3487   0.143   7.448  17.025  0.0853 -1.5235 -0.3732
   28DOPE   C12 3488   0.103   7.358  16.838 -0.3125  0.3102  0.2470
   28DOPE  H12A 3489   0.079   7.269  16.901  0.5321 -0.7867 -0.9368
   28DOPE  H12B 3490   0.201   7.349  16.787  0.1034 -0.0857  1.0884
   28DOPE   C11 3491  -0.009   7.378  16.737 -0.6144  0.3311 -0.0337
   28DOPE  H11A 3492  -0.007   7.287  16.675 -2.0167 -1.4002  2.3094
   28DOPE  H11B 3493   0.014   7.457  16.663 -3.2312 -0.4037 -1.7637
   28DOPE     P 3494  -0.221   7.532  16.774 -0.2054  0.2308  0.5281
   28DOPE   O13 3495  -0.145   7.638  16.847  0.3812 -0.2499  0.1125
   28DOPE   O14 3496  -0.360   7.493  16.815 -0.1190 -0.2582  0.2165
   28DOPE   O11 3497  -0.212   7.558  16.615  0.2427 -0.0632  0.4937
   28DOPE   O12 3498  -0.138   7.402  16.798 -0.2582 -0.2511  0.5493
   28DOPE    C1 3499  -0.254   7.459  16.519  0.2872 -0.2483  0.1461
   28DOPE    HA 3500  -0.243   7.353  16.551 -1.6554 -0.4209  0.3672
   28DOPE    HB 3501  -0.189   7.465  16.429 -1.2662 -0.0913 -1.0165
   28DOPE    C2 3502  -0.400   7.479  16.471  0.9753  1.1383 -0.8237
   28DOPE    HS 3503  -0.460   7.466  16.563 -1.8524 -0.3585 -2.7464
   28DOPE   O21 3504  -0.431   7.378  16.375  0.3045 -0.3566  0.6081
   28DOPE   C21 3505  -0.545   7.319  16.404 -0.1806  0.1290  0.3056
   28DOPE   O22 3506  -0.618   7.336  16.498  0.0061 -0.1106 -0.0363
   28DOPE   C22 3507  -0.577   7.225  16.291 -0.1298  0.9471 -0.5705
   28DOPE   H2R 3508  -0.632   7.140  16.338  0.9485  1.4598  1.7827
   28DOPE   H2S 3509  -0.484   7.187  16.245  0.1918 -0.0375  0.8396
   28DOPE    C3 3510  -0.416   7.619  16.412  0.3428  0.1209 -0.2643
   28DOPE    HX 3511  -0.337   7.621  16.335  2.4831 -1.6111  1.7565
   28DOPE    HY 3512  -0.396   7.698  16.488 -0.0429 -1.4607  1.5641
   28DOPE   O31 3513  -0.546   7.651  16.355 -0.2006  1.2393  1.0870
   28DOPE   C31 3514  -0.639   7.673  16.439  0.1839 -0.0055  0.2226
   28DOPE   O32 3515  -0.624   7.675  16.561  0.2476  0.5892 -0.0750
   28DOPE   C32 3516  -0.780   7.701  16.383 -1.3211 -0.7146 -0.0322
   28DOPE   H2X 3517  -0.833   7.605  16.398 -1.4139 -1.2337 -3.1258
   28DOPE   H2Y 3518  -0.826   7.777  16.450  1.5224  0.5173  0.6979
   28DOPE   C23 3519  -0.664   7.293  16.180  0.8117 -0.2358 -0.4124
   28DOPE   H3R 3520  -0.595   7.346  16.110  0.7221 -0.1540 -0.4376
   28DOPE   H3S 3521  -0.737   7.361  16.228  0.7317  0.3804 -1.3967
   28DOPE   C24 3522  -0.733   7.176  16.102  0.4464  0.4812  0.8448
   28DOPE   H4R 3523  -0.815   7.142  16.168 -1.2892  1.5061 -0.7019
   28DOPE   H4S 3524  -0.653   7.099  16.091  1.7564  2.0332 -1.1405
   28DOPE   C25 3525  -0.785   7.217  15.969  0.0229 -0.2843  0.3238
   28DOPE   H5R 3526  -0.841   7.313  15.979  0.2915 -0.3210  2.5981
   28DOPE   H5S 3527  -0.866   7.144  15.944 -0.7218  0.5758  0.1763
   28DOPE   C26 3528  -0.679   7.228  15.852  0.4764 -0.3357 -0.2154
   28DOPE   H6R 3529  -0.613   7.139  15.860  1.1586 -0.0439 -2.0689
   28DOPE   H6S 3530  -0.635   7.330  15.859 -0.3564  0.2080 -2.0986
   28DOPE   C27 3531  -0.733   7.229  15.706 -0.6897  0.3887  0.3359
   28DOPE   H7R 3532  -0.769   7.331  15.680 -2.0679 -0.2174 -0.2455
   28DOPE   H7S 3533  -0.820   7.160  15.698 -0.3980 -0.0909  1.2060
   28DOPE   C28 3534  -0.619   7.183  15.621  0.8092 -0.5904 -0.1622
   28DOPE   H8R 3535  -0.664   7.143  15.528  1.2786  0.4719 -0.8541
   28DOPE   H8S 3536  -0.578   7.089  15.664  1.4312 -0.0705  0.4183
   28DOPE   C29 3537  -0.509   7.279  15.582 -0.0321  0.2109 -0.1685
   28DOPE   H9R 3538  -0.543   7.383  15.574 -1.5452 -0.2893 -0.5485
   28DOPE  C210 3539  -0.377   7.249  15.566 -0.3413 -0.0310  0.0585
   28DOPE  H10R 3540  -0.303   7.326  15.540  2.5635 -2.3110  0.9411
   28DOPE  C211 3541  -0.317   7.117  15.586  0.0931 -0.7775 -0.1636
   28DOPE  H11R 3542  -0.316   7.069  15.486  0.3796 -0.1485 -0.4679
   28DOPE  H11S 3543  -0.371   7.063  15.666  0.4910  1.1014  1.4634
   28DOPE  C212 3544  -0.165   7.132  15.617 -0.4626  0.5631  0.4446
   28DOPE  H12R 3545  -0.107   7.185  15.538 -0.5014  0.6616  0.4805
   28DOPE  H12S 3546  -0.123   7.029  15.621  1.9366  1.4324 -0.4918
   28DOPE  C213 3547  -0.130   7.197  15.754 -0.6575  0.6857 -0.3176
   28DOPE  H13R 3548  -0.165   7.139  15.841  0.4439  0.0448 -0.2885
   28DOPE  H13S 3549  -0.187   7.293  15.748 -1.6523  0.0931 -0.6754
   28DOPE  C214 3550   0.021   7.211  15.781 -0.0688 -0.4187 -0.4903
   28DOPE  H14R 3551   0.065   7.217  15.679 -0.9691  2.8647 -0.8029
   28DOPE  H14S 3552   0.061   7.122  15.835  1.3366  1.1736  1.2107
   28DOPE  C215 3553   0.049   7.346  15.844  0.0814  0.3552  0.4063
   28DOPE  H15R 3554  -0.007   7.420  15.783 -0.7458 -0.8102 -0.2942
   28DOPE  H15S 3555   0.151   7.389  15.838  0.0384  0.2793 -2.5390
   28DOPE  C216 3556   0.000   7.345  15.983 -0.1480 -0.0990 -0.6724
   28DOPE  H16R 3557   0.061   7.271  16.039  0.6410  1.8215  1.1387
   28DOPE  H16S 3558  -0.101   7.302  15.999  0.8534 -2.1644  0.5692
   28DOPE  C217 3559   0.017   7.482  16.050  0.2546 -0.3577 -0.2107
   28DOPE  H17R 3560  -0.064   7.547  16.012  1.5868  1.5027  0.0137
   28DOPE  H17S 3561   0.119   7.504  16.013  0.2762 -0.0462  0.0311
   28DOPE  C218 3562  -0.015   7.474  16.197 -0.0858  0.3447 -0.4467
   28DOPE  H18R 3563  -0.120   7.439  16.211  0.7857 -2.6247 -0.6250
   28DOPE  H18S 3564  -0.002   7.573  16.244  2.6877 -0.3275  0.3771
   28DOPE  H18T 3565   0.050   7.406  16.257 -2.0336 -0.3473  0.9912
   28DOPE   C33 3566  -0.793   7.743  16.232  0.3320 -0.3685 -0.6096
   28DOPE   H3X 3567  -0.718   7.823  16.215 -0.9084  0.6610 -1.3968
   28DOPE   H3Y 3568  -0.899   7.775  16.224 -0.0717 -0.9194  1.6937
   28DOPE   C34 3569  -0.777   7.624  16.138 -0.3151  0.1686 -0.2647
   28DOPE   H4X 3570  -0.698   7.566  16.190  0.7680  1.3395 -0.5525
   28DOPE   H4Y 3571  -0.867   7.558  16.139  0.7722 -1.3818 -0.7467
   28DOPE   C35 3572  -0.736   7.661  15.995 -0.7548  0.5868  0.0611
   28DOPE   H5X 3573  -0.812   7.724  15.945 -0.8846 -0.0355 -0.5374
   28DOPE   H5Y 3574  -0.734   7.559  15.950 -1.5492  0.3714  0.5024
   28DOPE   C36 3575  -0.605   7.743  15.981  0.3313  0.5956 -0.2472
   28DOPE   H6X 3576  -0.518   7.705  16.038  1.6686  1.5588 -1.5529
   28DOPE   H6Y 3577  -0.629   7.847  16.013 -1.7893 -0.0600  0.4435
   28DOPE   C37 3578  -0.551   7.752  15.835  0.1119  0.1350 -0.3529
   28DOPE   H7X 3579  -0.634   7.787  15.770  0.4679  0.6956 -0.5169
   28DOPE   H7Y 3580  -0.460   7.817  15.830 -1.5129  2.7687  1.7586
   28DOPE   C38 3581  -0.495   7.616  15.786  0.3324 -0.0511  0.0265
   28DOPE   H8X 3582  -0.483   7.624  15.676  0.5945  0.0959  0.0666
   28DOPE   H8Y 3583  -0.571   7.535  15.792  2.1796 -1.9842 -1.1751
   28DOPE   C39 3584  -0.362   7.577  15.839  0.8239  0.0113  0.2195
   28DOPE   H9X 3585  -0.360   7.507  15.924  2.1503  0.9753  1.0160
   28DOPE  C310 3586  -0.244   7.601  15.780 -0.0985 -0.0294 -0.0797
   28DOPE  H10X 3587  -0.153   7.578  15.839 -1.6923 -5.2993  0.8922
   28DOPE  C311 3588  -0.221   7.673  15.647 -0.8053 -0.5913  0.5652
   28DOPE  H11X 3589  -0.138   7.620  15.595 -0.6126 -1.6406  1.8811
   28DOPE  H11Y 3590  -0.303   7.649  15.576 -0.7275  1.3154 -0.2291
   28DOPE  C312 3591  -0.199   7.823  15.664 -0.3786  0.2036  0.2534
   28DOPE  H12X 3592  -0.123   7.848  15.741  1.1474  1.4309 -1.5715
   28DOPE  H12Y 3593  -0.291   7.878  15.691 -0.2873  1.3238 -1.5366
   28DOPE  C313 3594  -0.132   7.889  15.538 -0.1826 -0.8512 -0.1976
   28DOPE  H13X 3595  -0.195   7.877  15.448 -1.1679 -1.1290  0.5139
   28DOPE  H13Y 3596  -0.121   7.998  15.556 -0.4124 -0.5120 -1.9262
   28DOPE  C314 3597   0.008   7.829  15.491 -0.0090 -0.4674 -0.4626
   28DOPE  H14X 3598   0.047   7.897  15.412 -0.2324  0.3955  0.1532
   28DOPE  H14Y 3599  -0.017   7.733  15.441 -1.2121 -0.4150  0.0003
   28DOPE  C315 3600   0.107   7.789  15.602  0.5226 -0.6048  0.0341
   28DOPE  H15X 3601   0.198   7.742  15.557 -1.3942 -0.8178 -4.0610
   28DOPE  H15Y 3602   0.064   7.718  15.675  1.3687  0.8763  2.0551
   28DOPE  C316 3603   0.149   7.923  15.671  0.5553  0.2697  0.7429
   28DOPE  H16X 3604   0.219   7.895  15.753 -0.5013 -1.0490  1.2327
   28DOPE  H16Y 3605   0.062   7.963  15.727 -1.9712 -1.9075 -1.3595
   28DOPE  C317 3606   0.203   8.032  15.568 -0.2167 -0.4619 -0.6084
   28DOPE  H17X 3607   0.263   7.971  15.496  2.6972  1.3288  0.1152
   28DOPE  H17Y 3608   0.115   8.075  15.517 -1.0178  0.0822  1.1825
   28DOPE  C318 3609   0.292   8.146  15.621 -0.2246 -0.3966 -0.2233
   28DOPE  H18X 3610   0.391   8.104  15.650  0.1585 -0.3043 -1.3487
   28DOPE  H18Y 3611   0.314   8.227  15.548  1.8129 -0.5006  0.2047
   28DOPE  H18Z 3612   0.252   8.190  15.715  0.5867  1.3997 -0.6796
   29DOPE     N 3613   7.021   2.055  16.953  0.1452 -0.4401 -0.1344
   29DOPE   HN1 3614   7.087   1.986  16.994  0.1373 -1.7032 -2.0673
   29DOPE   HN2 3615   7.094   2.114  16.909  0.0790  0.6970  1.2255
   29DOPE   HN3 3616   6.981   2.104  17.035  1.6862 -1.9816  1.6318
   29DOPE   C12 3617   6.924   2.002  16.844 -0.3960 -0.4255  0.0832
   29DOPE  H12A 3618   6.964   2.016  16.741 -4.3752  0.9171 -1.4825
   29DOPE  H12B 3619   6.832   2.065  16.852  0.8766  1.4607  0.5551
   29DOPE   C11 3620   6.895   1.852  16.881 -0.7506 -0.5319  0.5578
   29DOPE  H11A 3621   6.994   1.803  16.890 -0.3494  0.4093  1.4999
   29DOPE  H11B 3622   6.833   1.795  16.808  1.8585 -0.7882 -1.5976
   29DOPE     P 3623   6.682   1.831  17.036  0.0013 -0.4638  0.2665
   29DOPE   O13 3624   6.616   1.945  16.969 -0.3981 -0.4175  1.1578
   29DOPE   O14 3625   6.658   1.810  17.178  0.8292  0.0496  0.0384
   29DOPE   O11 3626   6.643   1.702  16.955  0.3462 -0.5575  0.1537
   29DOPE   O12 3627   6.840   1.850  17.009  0.6832  0.1875  0.6530
   29DOPE    C1 3628   6.719   1.582  16.976 -0.1168 -0.0142  0.0375
   29DOPE    HA 3629   6.655   1.515  17.037 -0.4410 -0.1610 -0.4575
   29DOPE    HB 3630   6.815   1.591  17.032 -0.7770  1.3791  0.9989
   29DOPE    C2 3631   6.744   1.504  16.846  0.8990  0.9899  0.3883
   29DOPE    HS 3632   6.781   1.402  16.873 -0.9195  0.5722  1.4203
   29DOPE   O21 3633   6.850   1.575  16.776 -0.1142  0.9635  0.4857
   29DOPE   C21 3634   6.925   1.493  16.699 -0.0760 -0.5400 -0.6694
   29DOPE   O22 3635   6.918   1.370  16.699  0.3291  0.7879  0.2017
   29DOPE   C22 3636   6.990   1.568  16.588 -0.4365 -0.2116 -0.3263
   29DOPE   H2R 3637   7.050   1.644  16.641 -2.3560  0.4144  1.0816
   29DOPE   H2S 3638   6.910   1.616  16.527 -1.9099 -0.8386  1.0401
   29DOPE    C3 3639   6.611   1.491  16.763 -0.3175 -0.0014  0.1153
   29DOPE    HX 3640   6.575   1.596  16.753  0.8641  0.8685  3.6406
   29DOPE    HY 3641   6.535   1.433  16.819  1.0858 -1.3864  0.6685
   29DOPE   O31 3642   6.638   1.424  16.635  0.3384  0.0873  0.1237
   29DOPE   C31 3643   6.538   1.394  16.561 -0.3404 -0.1227 -0.1578
   29DOPE   O32 3644   6.422   1.408  16.591  0.6291 -0.0849 -0.3356
   29DOPE   C32 3645   6.580   1.362  16.419  0.5764 -0.3788  0.8136
   29DOPE   H2X 3646   6.538   1.260  16.405 -1.0945  0.0069  2.5317
   29DOPE   H2Y 3647   6.523   1.435  16.357 -0.3076 -0.4386  1.5465
   29DOPE   C23 3648   7.085   1.475  16.515  0.2093 -0.3280  0.1969
   29DOPE   H3R 3649   7.038   1.389  16.462 -0.3779 -0.7583  1.3600
   29DOPE   H3S 3650   7.154   1.427  16.588 -0.4317 -4.3413 -1.5659
   29DOPE   C24 3651   7.176   1.540  16.408 -0.0421  0.0714 -0.0571
   29DOPE   H4R 3652   7.218   1.634  16.449  1.8627 -1.3246  1.3486
   29DOPE   H4S 3653   7.119   1.548  16.312  0.2132  0.9838 -0.1346
   29DOPE   C25 3654   7.308   1.468  16.388  0.0828  0.7954  0.1367
   29DOPE   H5R 3655   7.293   1.359  16.372  0.5727  0.6929  0.3612
   29DOPE   H5S 3656   7.366   1.477  16.481 -0.2640  2.1456  0.2345
   29DOPE   C26 3657   7.408   1.527  16.279 -0.6210  0.3935  0.0666
   29DOPE   H6R 3658   7.511   1.503  16.313 -0.3281 -0.7640 -1.4794
   29DOPE   H6S 3659   7.388   1.633  16.255  1.6714  1.2820  1.7292
   29DOPE   C27 3660   7.383   1.451  16.144 -0.0473 -0.2545 -0.6560
   29DOPE   H7R 3661   7.277   1.462  16.114 -0.4851 -0.1801  0.8382
   29DOPE   H7S 3662   7.412   1.346  16.166 -0.4333  0.2909  2.9207
   29DOPE   C28 3663   7.470   1.514  16.028 -0.4432 -0.8819 -0.8152
   29DOPE   H8R 3664   7.445   1.620  16.002  1.1955 -0.2093  0.1661
   29DOPE   H8S 3665   7.430   1.454  15.943 -2.0947 -0.7707 -0.1470
   29DOPE   C29 3666   7.620   1.497  16.052  0.6760 -0.1736  0.4734
   29DOPE   H9R 3667   7.660   1.537  16.147 -0.9245 -0.1534  1.1714
   29DOPE  C210 3668   7.702   1.414  15.985 -0.3435 -0.1160 -0.5857
   29DOPE  H10R 3669   7.810   1.427  15.997 -0.2457 -1.5125  0.2660
   29DOPE  C211 3670   7.674   1.319  15.870 -0.6087  0.1594 -1.0265
   29DOPE  H11R 3671   7.569   1.322  15.832 -1.0056 -1.0596 -0.0762
   29DOPE  H11S 3672   7.695   1.221  15.917  0.0024  0.2065 -1.1990
   29DOPE  C212 3673   7.759   1.345  15.747  0.3061 -0.0451  0.1555
   29DOPE  H12R 3674   7.868   1.349  15.769  0.1473 -2.6543  1.7867
   29DOPE  H12S 3675   7.720   1.439  15.702 -2.8005 -2.0370 -1.7542
   29DOPE  C213 3676   7.728   1.246  15.631  0.8501  0.1696 -0.0615
   29DOPE  H13R 3677   7.620   1.222  15.626  0.8207  0.5008 -1.1634
   29DOPE  H13S 3678   7.777   1.154  15.671  0.7603  0.5377  0.9146
   29DOPE  C214 3679   7.782   1.289  15.489 -0.1094  0.1878  0.0591
   29DOPE  H14R 3680   7.891   1.265  15.487 -0.1745 -0.1272 -1.4684
   29DOPE  H14S 3681   7.781   1.399  15.478  1.6988  0.2062 -0.2326
   29DOPE  C215 3682   7.717   1.222  15.363  0.7810  0.3402 -0.0628
   29DOPE  H15R 3683   7.694   1.115  15.381  0.3622 -0.0630 -2.6157
   29DOPE  H15S 3684   7.794   1.226  15.282  0.6411  4.3152 -0.2187
   29DOPE  C216 3685   7.592   1.297  15.316  0.0218 -0.0223  0.2909
   29DOPE  H16R 3686   7.621   1.402  15.298 -2.6838  0.3864 -2.1980
   29DOPE  H16S 3687   7.522   1.303  15.402  0.0431 -0.4039  0.3402
   29DOPE  C217 3688   7.538   1.245  15.188  0.3813  0.6611 -0.0507
   29DOPE  H17R 3689   7.620   1.233  15.115 -0.3988 -1.6498 -0.6264
   29DOPE  H17S 3690   7.468   1.319  15.143  0.9505  0.2292 -1.7009
   29DOPE  C218 3691   7.459   1.108  15.198 -0.1576  0.2624  0.4981
   29DOPE  H18R 3692   7.369   1.117  15.262  0.9373 -0.2304  2.1450
   29DOPE  H18S 3693   7.523   1.023  15.231 -1.3931 -1.1116 -0.5083
   29DOPE  H18T 3694   7.417   1.074  15.101  1.6451 -0.3175 -0.1152
   29DOPE   C33 3695   6.731   1.364  16.397  0.0260  0.2238  0.2700
   29DOPE   H3X 3696   6.769   1.273  16.447 -1.6289 -0.3555  0.5590
   29DOPE   H3Y 3697   6.789   1.441  16.452  0.1992 -0.8837  1.7086
   29DOPE   C34 3698   6.770   1.363  16.246  0.5894  0.4767 -0.3330
   29DOPE   H4X 3699   6.723   1.448  16.192 -0.4718  0.5732  0.7007
   29DOPE   H4Y 3700   6.877   1.393  16.235 -0.0236  1.8739 -3.8452
   29DOPE   C35 3701   6.730   1.238  16.165 -0.5288  0.0268  0.1913
   29DOPE   H5X 3702   6.624   1.266  16.146 -0.8645 -1.2059  0.1697
   29DOPE   H5Y 3703   6.740   1.141  16.219  0.8829  0.0499 -0.0072
   29DOPE   C36 3704   6.795   1.234  16.019 -0.1257 -0.8239 -0.2399
   29DOPE   H6X 3705   6.906   1.238  16.024  0.1252  2.9152 -3.7758
   29DOPE   H6Y 3706   6.776   1.332  15.971  1.5918 -0.2326  0.2109
   29DOPE   C37 3707   6.734   1.128  15.936 -0.5884 -0.0264 -0.2122
   29DOPE   H7X 3708   6.749   1.025  15.977  3.3099  0.0491 -1.0661
   29DOPE   H7Y 3709   6.624   1.143  15.937 -0.2678  2.6620 -0.4085
   29DOPE   C38 3710   6.785   1.125  15.794 -0.6355 -0.9231  0.2259
   29DOPE   H8X 3711   6.892   1.097  15.786  0.2272  1.6116  1.6708
   29DOPE   H8Y 3712   6.783   1.229  15.754 -1.3845 -0.6239  1.0118
   29DOPE   C39 3713   6.696   1.031  15.716 -0.6250  0.5621  0.6461
   29DOPE   H9X 3714   6.680   0.930  15.758  0.6240 -0.2055 -0.5967
   29DOPE  C310 3715   6.621   1.060  15.606 -0.6680 -0.1769 -0.1177
   29DOPE  H10X 3716   6.555   0.978  15.575 -0.7798 -0.7845  1.6087
   29DOPE  C311 3717   6.601   1.191  15.529 -0.0572 -0.1128  0.1779
   29DOPE  H11X 3718   6.499   1.236  15.538 -0.7888 -1.0603 -2.3973
   29DOPE  H11Y 3719   6.672   1.264  15.573  0.8953  0.4801 -2.1964
   29DOPE  C312 3720   6.633   1.176  15.376 -0.3261 -0.5159  0.0299
   29DOPE  H12X 3721   6.577   1.094  15.326  0.2011  0.7975 -2.9704
   29DOPE  H12Y 3722   6.740   1.146  15.376 -0.2503 -0.3117  1.5476
   29DOPE  C313 3723   6.612   1.311  15.310 -0.4035  0.2214 -0.0097
   29DOPE  H13X 3724   6.520   1.360  15.348  0.3971  1.7945 -0.0156
   29DOPE  H13Y 3725   6.704   1.373  15.316  0.2127 -0.7000  0.1408
   29DOPE  C314 3726   6.603   1.289  15.161  0.0489 -0.0678 -0.1117
   29DOPE  H14X 3727   6.531   1.207  15.140  1.8180 -1.4891 -0.9088
   29DOPE  H14Y 3728   6.707   1.258  15.136  0.3175  0.3552  0.4401
   29DOPE  C315 3729   6.564   1.416  15.084  0.0945  0.1887  0.2540
   29DOPE  H15X 3730   6.583   1.402  14.975  0.1591  0.1411  0.2705
   29DOPE  H15Y 3731   6.634   1.498  15.111  1.0272 -0.3328 -0.5147
   29DOPE  C316 3732   6.419   1.467  15.101  0.1673 -0.2711 -0.6039
   29DOPE  H16X 3733   6.422   1.520  15.199  0.2245  0.3052 -0.9149
   29DOPE  H16Y 3734   6.349   1.381  15.113  1.5287 -1.3621 -0.2802
   29DOPE  C317 3735   6.361   1.557  14.983 -0.7622 -0.4168 -0.4072
   29DOPE  H17X 3736   6.427   1.646  14.974 -0.6553 -0.3938  0.4511
   29DOPE  H17Y 3737   6.361   1.502  14.887  0.7408 -0.7722 -0.2416
   29DOPE  C318 3738   6.218   1.604  15.011  0.0919  0.1046  1.2326
   29DOPE  H18X 3739   6.195   1.692  14.946 -1.0982 -1.7709 -1.0637
   29DOPE  H18Y 3740   6.154   1.521  14.976 -1.6140 -0.3433  4.9543
   29DOPE  H18Z 3741   6.189   1.631  15.114  1.0036  0.4000  1.4231
   30DOPE     N 3742   0.233   0.617  17.258  0.3362 -0.1435  0.4478
   30DOPE   HN1 3743   0.285   0.670  17.186  2.1785 -1.9688  0.3362
   30DOPE   HN2 3744   0.235   0.673  17.346  2.4477 -1.2617  1.1941
   30DOPE   HN3 3745   0.282   0.525  17.266 -2.5633 -1.8824 -0.3035
   30DOPE   C12 3746   0.094   0.618  17.217 -1.1422 -0.2645 -0.6877
   30DOPE  H12A 3747   0.053   0.718  17.245 -1.3945 -0.6574  0.4201
   30DOPE  H12B 3748   0.038   0.537  17.269  0.5165 -0.6132  0.6352
   30DOPE   C11 3749   0.089   0.595  17.064 -0.3984  0.8120  0.1566
   30DOPE  H11A 3750   0.150   0.677  17.020 -0.2398  1.3201  1.2705
   30DOPE  H11B 3751  -0.017   0.603  17.034 -0.1815 -2.1424 -1.7961
   30DOPE     P 3752   0.052   0.346  16.974 -0.3341 -0.1713  0.2854
   30DOPE   O13 3753  -0.075   0.332  17.050 -0.0687 -0.0579  0.7911
   30DOPE   O14 3754   0.131   0.221  16.959 -0.0379 -0.5344 -0.4323
   30DOPE   O11 3755   0.002   0.414  16.834  0.1864 -0.5773 -0.5066
   30DOPE   O12 3756   0.134   0.464  17.036 -0.0735  0.2106  0.1873
   30DOPE    C1 3757   0.095   0.494  16.766 -0.0693 -0.4477  0.7125
   30DOPE    HA 3758   0.201   0.474  16.792  0.5628 -0.9293 -1.9449
   30DOPE    HB 3759   0.072   0.602  16.774  1.3230  0.0389 -1.2306
   30DOPE    C2 3760   0.106   0.469  16.613  0.3981  0.0007 -0.1636
   30DOPE    HS 3761   0.175   0.543  16.566  2.0427  0.3127  2.5594
   30DOPE   O21 3762  -0.026   0.459  16.552 -0.5800 -0.0620  0.8679
   30DOPE   C21 3763  -0.068   0.581  16.524  0.8534 -0.5885 -0.1702
   30DOPE   O22 3764  -0.021   0.685  16.562  0.1974 -0.4732 -0.2803
   30DOPE   C22 3765  -0.208   0.571  16.460 -0.9582  0.5322 -0.0300
   30DOPE   H2R 3766  -0.293   0.606  16.522 -1.2153 -0.8270  0.4162
   30DOPE   H2S 3767  -0.231   0.465  16.436  0.5725  0.2251 -0.2479
   30DOPE    C3 3768   0.176   0.337  16.589  0.1866 -0.2582 -0.1513
   30DOPE    HX 3769   0.176   0.324  16.479  0.0716  0.3968 -0.2294
   30DOPE    HY 3770   0.124   0.247  16.630 -1.0547 -0.2195 -1.5620
   30DOPE   O31 3771   0.309   0.342  16.643  0.2271  0.3837  0.1801
   30DOPE   C31 3772   0.380   0.245  16.590  0.1886  0.6588  0.1767
   30DOPE   O32 3773   0.342   0.178  16.503 -0.3337  0.5686  0.5132
   30DOPE   C32 3774   0.514   0.220  16.658  0.4449  0.5542  0.1725
   30DOPE   H2X 3775   0.565   0.318  16.668  0.7401  0.5875 -1.3297
   30DOPE   H2Y 3776   0.496   0.170  16.756  1.8568  0.8490  0.5939
   30DOPE   C23 3777  -0.214   0.653  16.332  0.0743  0.1956  0.3624
   30DOPE   H3R 3778  -0.196   0.759  16.359 -0.5358  0.4259 -0.0993
   30DOPE   H3S 3779  -0.317   0.636  16.294 -0.2297  0.8718  0.8656
   30DOPE   C24 3780  -0.116   0.620  16.221  0.1540 -0.0994  0.0090
   30DOPE   H4R 3781  -0.135   0.513  16.195  0.1075 -0.3833  1.1876
   30DOPE   H4S 3782  -0.014   0.630  16.263  0.3604 -0.8960 -0.2787
   30DOPE   C25 3783  -0.130   0.702  16.089  0.0943  0.7060 -0.6458
   30DOPE   H5R 3784  -0.124   0.809  16.122 -0.8985  1.0719 -1.6029
   30DOPE   H5S 3785  -0.221   0.678  16.030  1.0278 -0.0557 -1.8279
   30DOPE   C26 3786  -0.015   0.666  15.994 -0.2650  0.0013  0.1552
   30DOPE   H6R 3787  -0.018   0.556  15.975 -0.2436  0.3727 -2.3440
   30DOPE   H6S 3788   0.085   0.681  16.040  0.1152  0.3467 -0.7510
   30DOPE   C27 3789   0.002   0.761  15.874  0.4639 -0.1874  0.7638
   30DOPE   H7R 3790   0.106   0.800  15.871 -0.3145  2.0409  0.2908
   30DOPE   H7S 3791  -0.075   0.839  15.897  0.0631 -0.6616  1.0376
   30DOPE   C28 3792  -0.035   0.683  15.742  0.2726  0.5483 -0.7898
   30DOPE   H8R 3793  -0.134   0.636  15.759  1.5260 -1.6940  0.8553
   30DOPE   H8S 3794   0.036   0.600  15.722 -0.9076 -0.8151  0.4822
   30DOPE   C29 3795  -0.034   0.779  15.625  0.2327  0.6746 -0.0917
   30DOPE   H9R 3796  -0.003   0.883  15.644 -0.8338  1.2283 -1.2724
   30DOPE  C210 3797  -0.080   0.747  15.501 -0.0395  0.1071  0.8346
   30DOPE  H10R 3798  -0.079   0.819  15.418  1.1785 -0.9935 -0.1429
   30DOPE  C211 3799  -0.132   0.610  15.464 -0.3895 -0.0724 -0.3737
   30DOPE  H11R 3800  -0.216   0.576  15.528  0.8367  0.7547  1.7793
   30DOPE  H11S 3801  -0.046   0.546  15.494 -0.0759  0.6109  0.2280
   30DOPE  C212 3802  -0.171   0.587  15.312 -0.7093  0.2458  0.5869
   30DOPE  H12R 3803  -0.179   0.479  15.287 -0.3904  0.1255  0.9833
   30DOPE  H12S 3804  -0.100   0.635  15.241  0.3485 -1.1963  0.6260
   30DOPE  C213 3805  -0.317   0.636  15.273  0.1382 -0.1517 -0.2302
   30DOPE  H13R 3806  -0.316   0.745  15.294  3.3543 -0.4781  1.9841
   30DOPE  H13S 3807  -0.387   0.570  15.330 -1.3176  0.5073 -1.2045
   30DOPE  C214 3808  -0.353   0.627  15.124 -0.6209  0.0364  0.4173
   30DOPE  H14R 3809  -0.346   0.526  15.078  0.8575  0.5023 -0.4491
   30DOPE  H14S 3810  -0.283   0.689  15.064 -1.3207 -0.0668 -0.5213
   30DOPE  C215 3811  -0.492   0.668  15.096 -0.5056 -0.3706  0.3026
   30DOPE  H15R 3812  -0.511   0.771  15.132 -2.1744 -0.2676 -0.7209
   30DOPE  H15S 3813  -0.557   0.596  15.150 -1.8230 -0.2388 -1.0331
   30DOPE  C216 3814  -0.524   0.664  14.944 -0.3956 -0.3757  0.3493
   30DOPE  H16R 3815  -0.458   0.603  14.880  0.0719  0.1051  0.3653
   30DOPE  H16S 3816  -0.517   0.767  14.903 -2.3940 -0.3650 -0.0713
   30DOPE  C217 3817  -0.668   0.617  14.926 -0.0713 -0.3919 -0.2977
   30DOPE  H17R 3818  -0.687   0.618  14.817  3.6790 -2.0717 -1.1158
   30DOPE  H17S 3819  -0.739   0.684  14.981 -1.2735 -2.3012  0.5842
   30DOPE  C218 3820  -0.692   0.472  14.960 -0.8021 -1.2406 -0.0225
   30DOPE  H18R 3821  -0.775   0.458  15.033  0.2647 -0.4906  1.3871
   30DOPE  H18S 3822  -0.600   0.432  15.008 -0.1660  0.3762  0.1663
   30DOPE  H18T 3823  -0.712   0.411  14.869 -1.9998  0.8363 -1.2191
   30DOPE   C33 3824   0.612   0.145  16.567  0.0787  0.6755  0.1829
   30DOPE   H3X 3825   0.652   0.211  16.487  1.6244 -0.3336  0.0911
   30DOPE   H3Y 3826   0.553   0.064  16.519 -0.2186  0.6766  0.5460
   30DOPE   C34 3827   0.727   0.084  16.638  0.2210  0.2131 -0.7135
   30DOPE   H4X 3828   0.779   0.165  16.693  0.7035 -0.7512  0.3121
   30DOPE   H4Y 3829   0.690   0.003  16.705 -1.4274  0.2888 -1.4933
   30DOPE   C35 3830   0.832   0.053  16.528 -0.1993  0.6769 -0.1420
   30DOPE   H5X 3831   0.859   0.147  16.476 -0.9543  0.6090 -0.6642
   30DOPE   H5Y 3832   0.785  -0.018  16.456  0.7366 -0.3043  0.1886
   30DOPE   C36 3833   0.951  -0.004  16.597  0.7395  0.1862  0.2605
   30DOPE   H6X 3834   0.924  -0.087  16.666  0.6699 -0.8703 -0.9935
   30DOPE   H6Y 3835   1.009   0.077  16.647 -1.2570  2.0728 -0.2975
   30DOPE   C37 3836   1.050  -0.069  16.499  0.0855 -0.2834 -0.2457
   30DOPE   H7X 3837   1.047  -0.001  16.410 -2.9615 -0.9380 -0.7670
   30DOPE   H7Y 3838   1.148  -0.065  16.550 -0.2071  3.1239  0.3281
   30DOPE   C38 3839   1.014  -0.210  16.464 -0.0040  0.7689  0.0386
   30DOPE   H8X 3840   0.911  -0.213  16.423  1.0104 -2.3734 -2.6618
   30DOPE   H8Y 3841   1.005  -0.273  16.555 -0.1344 -2.2869 -1.9562
   30DOPE   C39 3842   1.124  -0.259  16.369 -0.0897 -0.1783  0.2281
   30DOPE   H9X 3843   1.216  -0.299  16.416  0.6417 -0.0345 -1.0390
   30DOPE  C310 3844   1.112  -0.263  16.236  0.2902  0.4010  0.3426
   30DOPE  H10X 3845   1.204  -0.272  16.177  0.3327  0.4244  0.4068
   30DOPE  C311 3846   0.990  -0.227  16.147  0.4808 -0.6097  0.0182
   30DOPE  H11X 3847   0.906  -0.272  16.205 -1.5652  1.1518 -1.4502
   30DOPE  H11Y 3848   0.975  -0.118  16.141 -4.0461 -1.0704 -0.6003
   30DOPE  C312 3849   0.990  -0.287  16.011 -0.3584  0.3712 -0.2695
   30DOPE  H12X 3850   1.017  -0.395  16.010  1.5649  0.8179 -1.1375
   30DOPE  H12Y 3851   1.065  -0.238  15.945 -0.2296 -0.9306 -1.1349
   30DOPE  C313 3852   0.846  -0.262  15.939 -0.0153 -0.5473  0.3533
   30DOPE  H13X 3853   0.777  -0.322  16.002 -0.4100  1.1614  1.6471
   30DOPE  H13Y 3854   0.807  -0.158  15.945  1.8366  0.3714 -1.8468
   30DOPE  C314 3855   0.852  -0.289  15.789 -0.2545 -0.0371 -0.2277
   30DOPE  H14X 3856   0.873  -0.396  15.769 -0.1880  0.0231 -0.4890
   30DOPE  H14Y 3857   0.945  -0.236  15.758 -0.1730  1.1116  1.8363
   30DOPE  C315 3858   0.734  -0.247  15.697  0.0555 -0.5619  0.6431
   30DOPE  H15X 3859   0.647  -0.307  15.728 -0.1101 -0.2730  0.7451
   30DOPE  H15Y 3860   0.752  -0.271  15.590 -0.6033  0.8926  0.1762
   30DOPE  C316 3861   0.699  -0.097  15.711 -0.8052 -0.3755 -0.9734
   30DOPE  H16X 3862   0.794  -0.039  15.707 -0.3101 -1.1727 -1.0075
   30DOPE  H16Y 3863   0.649  -0.081  15.809  2.6908 -0.5466  0.9996
   30DOPE  C317 3864   0.604  -0.048  15.604  0.6912  0.0317 -0.0963
   30DOPE  H17X 3865   0.662  -0.050  15.510  1.5849  0.8980  0.4164
   30DOPE  H17Y 3866   0.518  -0.118  15.593  0.9578 -0.6793  1.8294
   30DOPE  C318 3867   0.557   0.096  15.635 -0.6682 -0.5224 -0.0223
   30DOPE  H18X 3868   0.463   0.085  15.693 -0.6496  1.9035  0.5996
   30DOPE  H18Y 3869   0.632   0.165  15.679  0.4116 -3.8095  3.8629
   30DOPE  H18Z 3870   0.536   0.145  15.537  2.9306  0.7847 -0.2932
   31DOPE     N 3871   0.669   4.296  13.059 -0.2519  0.3014 -0.2169
   31DOPE   HN1 3872   0.656   4.398  13.078 -1.1225  0.3167 -0.8521
   31DOPE   HN2 3873   0.716   4.284  12.967 -0.1538  0.6366 -0.2126
   31DOPE   HN3 3874   0.576   4.252  13.050 -0.5602  1.0538 -0.8200
   31DOPE   C12 3875   0.750   4.224  13.165  0.1582  0.5442 -0.2742
   31DOPE  H12A 3876   0.669   4.175  13.224  0.9253 -0.0024  0.3369
   31DOPE  H12B 3877   0.791   4.296  13.239 -1.4457 -0.8806  2.1171
   31DOPE   C11 3878   0.851   4.127  13.100 -0.5481 -0.2202 -0.3786
   31DOPE  H11A 3879   0.809   4.047  13.036 -1.8399  1.8414 -2.2946
   31DOPE  H11B 3880   0.892   4.079  13.191 -0.7300  1.4615  0.6317
   31DOPE     P 3881   1.106   4.167  13.032  0.0387  0.4855  0.1156
   31DOPE   O13 3882   1.185   4.249  12.940 -0.0572 -0.1946  0.4826
   31DOPE   O14 3883   1.114   4.020  13.011  0.1474 -0.4658 -0.0876
   31DOPE   O11 3884   1.140   4.208  13.176 -0.1026  0.0529 -0.0043
   31DOPE   O12 3885   0.949   4.198  13.023 -0.1790 -0.0857  0.0242
   31DOPE    C1 3886   1.257   4.153  13.237 -0.6838  0.8435 -0.1157
   31DOPE    HA 3887   1.284   4.224  13.318  0.5513  0.4610 -0.1665
   31DOPE    HB 3888   1.343   4.139  13.167 -0.6861  0.2356 -0.0009
   31DOPE    C2 3889   1.218   4.011  13.306 -0.5412 -0.8265  0.7682
   31DOPE    HS 3890   1.170   3.953  13.224 -1.1614  0.7488 -0.0337
   31DOPE   O21 3891   1.138   4.039  13.419 -0.1722  0.1314  0.1997
   31DOPE   C21 3892   1.056   3.944  13.449 -0.8145  0.2663  1.1256
   31DOPE   O22 3893   1.045   3.840  13.380 -0.1019 -0.0547  0.3954
   31DOPE   C22 3894   0.981   3.972  13.576 -0.4014 -0.1355  0.2192
   31DOPE   H2R 3895   0.873   3.979  13.549  0.0082 -0.9813 -1.8522
   31DOPE   H2S 3896   1.016   4.069  13.617 -2.0951  1.6083 -2.1869
   31DOPE    C3 3897   1.341   3.929  13.348  0.5500 -0.0459  0.4145
   31DOPE    HX 3898   1.399   3.903  13.257  0.5571  2.5672 -0.4365
   31DOPE    HY 3899   1.326   3.828  13.392  0.2612  1.2693  3.6378
   31DOPE   O31 3900   1.434   4.012  13.425  0.0187  0.2532 -0.6657
   31DOPE   C31 3901   1.516   3.930  13.502  0.2653  0.2210 -0.4651
   31DOPE   O32 3902   1.512   3.811  13.514  0.7566 -0.4254 -0.4676
   31DOPE   C32 3903   1.610   4.014  13.594 -0.2606  0.2272 -0.1378
   31DOPE   H2X 3904   1.714   3.976  13.591 -0.8091 -1.3028 -2.2464
   31DOPE   H2Y 3905   1.603   4.120  13.563 -0.3866  0.4505  0.6321
   31DOPE   C23 3906   0.998   3.852  13.666 -0.9281  0.2070  0.1075
   31DOPE   H3R 3907   0.977   3.757  13.612  0.7598  0.0833 -0.3804
   31DOPE   H3S 3908   0.923   3.864  13.747 -1.5909 -1.9359 -0.1275
   31DOPE   C24 3909   1.144   3.842  13.724 -0.1453 -0.0592  0.7622
   31DOPE   H4R 3910   1.143   3.936  13.782 -1.5968  0.5031 -0.1074
   31DOPE   H4S 3911   1.219   3.848  13.642 -1.6292  0.1000 -0.6537
   31DOPE   C25 3912   1.169   3.725  13.819  0.0633  0.3773  0.6574
   31DOPE   H5R 3913   1.136   3.628  13.777 -0.6746  0.1781  1.6761
   31DOPE   H5S 3914   1.119   3.740  13.917  1.6873 -1.6717  1.8960
   31DOPE   C26 3915   1.322   3.722  13.857  0.6429  0.4915  0.0247
   31DOPE   H6R 3916   1.353   3.828  13.872 -1.2167  0.9592  0.7520
   31DOPE   H6S 3917   1.390   3.681  13.779 -0.0458  0.4750 -0.5671
   31DOPE   C27 3918   1.351   3.640  13.991 -0.3533  0.2392  0.2272
   31DOPE   H7R 3919   1.333   3.534  13.962 -0.1881 -0.2832  1.8901
   31DOPE   H7S 3920   1.284   3.681  14.070  0.5287  1.1694  0.5151
   31DOPE   C28 3921   1.500   3.643  14.029 -0.9136 -0.4943 -0.0438
   31DOPE   H8R 3922   1.506   3.751  14.050 -2.7660 -0.0914 -1.3439
   31DOPE   H8S 3923   1.558   3.624  13.935 -0.7997  0.0398 -0.0809
   31DOPE   C29 3924   1.551   3.549  14.137  0.2672  0.6475  0.3914
   31DOPE   H9R 3925   1.570   3.447  14.102 -1.9581  0.9043 -1.8793
   31DOPE  C210 3926   1.563   3.579  14.267  0.0789 -0.3715 -0.0825
   31DOPE  H10R 3927   1.612   3.507  14.335 -0.3526  1.5446  2.4182
   31DOPE  C211 3928   1.535   3.709  14.331 -0.5218  0.2926  0.5043
   31DOPE  H11R 3929   1.461   3.761  14.266  0.0613 -1.5180 -1.6994
   31DOPE  H11S 3930   1.621   3.780  14.338 -0.5592  0.2398  1.8330
   31DOPE  C212 3931   1.482   3.705  14.476  0.0191 -0.0101 -0.8394
   31DOPE  H12R 3932   1.544   3.630  14.530  0.9771  0.7518 -0.8705
   31DOPE  H12S 3933   1.377   3.667  14.483  0.1055  0.0020  1.2891
   31DOPE  C213 3934   1.498   3.832  14.554  0.2856  0.6069 -0.1901
   31DOPE  H13R 3935   1.452   3.917  14.500 -1.5542 -1.2087 -1.6657
   31DOPE  H13S 3936   1.607   3.852  14.555  0.7228 -0.8805 -3.8817
   31DOPE  C214 3937   1.431   3.827  14.700  0.0239 -0.2353  1.2010
   31DOPE  H14R 3938   1.473   3.736  14.749 -0.4489 -0.7379  0.6925
   31DOPE  H14S 3939   1.327   3.805  14.667  0.6580 -0.0636 -1.0762
   31DOPE  C215 3940   1.466   3.958  14.781 -0.0063  0.7464 -0.0184
   31DOPE  H15R 3941   1.424   4.042  14.722 -0.6857  0.2428 -0.2667
   31DOPE  H15S 3942   1.575   3.978  14.788  0.0781  0.4249 -0.4575
   31DOPE  C216 3943   1.414   3.958  14.927 -0.1620  0.6655  0.9777
   31DOPE  H16R 3944   1.458   3.866  14.970  2.4949  0.7016 -1.4144
   31DOPE  H16S 3945   1.303   3.950  14.931 -0.1441 -0.3423  0.0216
   31DOPE  C217 3946   1.483   4.077  15.006 -0.0508  0.2889  0.5931
   31DOPE  H17R 3947   1.476   4.175  14.955 -0.2695 -0.8619 -1.7205
   31DOPE  H17S 3948   1.589   4.048  15.021 -0.4539 -1.1103  0.9189
   31DOPE  C218 3949   1.425   4.084  15.146  0.5297 -0.4229 -0.2700
   31DOPE  H18R 3950   1.436   4.185  15.192 -0.1738 -0.4806  0.0378
   31DOPE  H18S 3951   1.481   4.025  15.222 -0.9517 -1.1231  0.3268
   31DOPE  H18T 3952   1.316   4.063  15.159  0.3884 -1.0732 -2.2548
   31DOPE   C33 3953   1.566   4.017  13.745 -0.2773 -0.8315  0.0078
   31DOPE   H3X 3954   1.573   3.919  13.797  1.8355  0.2322  1.9195
   31DOPE   H3Y 3955   1.457   4.040  13.755  0.1673  0.8668  1.6829
   31DOPE   C34 3956   1.645   4.116  13.821  0.2908 -0.8472  0.1785
   31DOPE   H4X 3957   1.752   4.103  13.794  0.3384  1.1710 -0.7572
   31DOPE   H4Y 3958   1.614   4.215  13.782 -0.5999 -0.6458  1.3351
   31DOPE   C35 3959   1.626   4.113  13.968  0.3843 -0.9464 -0.4551
   31DOPE   H5X 3960   1.649   4.017  14.018  2.7967  0.2221  0.8920
   31DOPE   H5Y 3961   1.519   4.142  13.977  0.8093  0.4753  0.2734
   31DOPE   C36 3962   1.713   4.214  14.046  0.4691  0.0552  0.1221
   31DOPE   H6X 3963   1.726   4.310  13.992  1.9980 -1.5367 -2.5505
   31DOPE   H6Y 3964   1.812   4.171  14.072 -0.4313 -1.4792  1.1748
   31DOPE   C37 3965   1.654   4.252  14.190  0.0477  0.4554  0.9041
   31DOPE   H7X 3966   1.725   4.321  14.240  1.2608  1.7186 -2.2787
   31DOPE   H7Y 3967   1.566   4.319  14.180 -0.0873  0.0603 -0.7901
   31DOPE   C38 3968   1.619   4.135  14.286 -0.3604  0.5802 -0.6291
   31DOPE   H8X 3969   1.568   4.059  14.223  0.7214 -1.0840  0.4425
   31DOPE   H8Y 3970   1.544   4.176  14.358  1.0437  0.8327  0.7424
   31DOPE   C39 3971   1.736   4.081  14.363  0.1941 -0.1666 -0.4167
   31DOPE   H9X 3972   1.783   3.993  14.317 -0.8969 -1.8954  1.6121
   31DOPE  C310 3973   1.767   4.113  14.494  0.2154  0.1691  0.8472
   31DOPE  H10X 3974   1.849   4.060  14.545  1.5539 -0.4419 -1.7703
   31DOPE  C311 3975   1.700   4.210  14.587  0.2253  0.8139 -0.1572
   31DOPE  H11X 3976   1.639   4.275  14.521 -1.6202  0.4910  1.1524
   31DOPE  H11Y 3977   1.627   4.154  14.650 -0.9524  1.8351 -0.5849
   31DOPE  C312 3978   1.791   4.297  14.678  0.3653  0.3854 -0.1049
   31DOPE  H12X 3979   1.764   4.404  14.692  1.7307  1.0165 -1.9196
   31DOPE  H12Y 3980   1.888   4.296  14.623  0.4815 -1.9894  0.0381
   31DOPE  C313 3981   1.796   4.248  14.825  0.0371 -0.2520  0.3245
   31DOPE  H13X 3982   1.700   4.270  14.875 -2.0434 -1.4592 -2.8712
   31DOPE  H13Y 3983   1.807   4.137  14.821  2.3348 -0.0253 -1.7740
   31DOPE  C314 3984   1.927   4.300  14.894 -1.0619 -0.3670  0.1681
   31DOPE  H14X 3985   1.925   4.410  14.909 -0.4014 -0.4647  1.0052
   31DOPE  H14Y 3986   2.004   4.278  14.817 -0.7657  1.8824 -0.2569
   31DOPE  C315 3987   1.957   4.227  15.020 -0.3577  0.1239  0.3258
   31DOPE  H15X 3988   2.063   4.238  15.052 -0.5238 -1.4816  1.5436
   31DOPE  H15Y 3989   1.936   4.118  15.010  1.1844 -0.1930  0.1857
   31DOPE  C316 3990   1.877   4.279  15.141 -0.7211 -0.5771 -0.1378
   31DOPE  H16X 3991   1.770   4.284  15.113 -0.6969  0.1900 -0.1230
   31DOPE  H16Y 3992   1.911   4.382  15.164 -0.4071 -1.3228  3.2100
   31DOPE  C317 3993   1.900   4.186  15.267 -0.0717  0.3332 -0.0963
   31DOPE  H17X 3994   2.003   4.185  15.309 -0.4335  3.3539  1.0920
   31DOPE  H17Y 3995   1.846   4.240  15.347 -0.6781 -1.4499  0.7685
   31DOPE  C318 3996   1.841   4.044  15.252 -0.4275 -0.1696 -0.7128
   31DOPE  H18X 3997   1.731   4.049  15.238 -0.4591  0.9105 -0.2227
   31DOPE  H18Y 3998   1.882   3.999  15.160 -2.7621  1.3070 -2.5810
   31DOPE  H18Z 3999   1.860   3.977  15.339 -2.0553  0.8969  0.5266
   32DOPE     N 4000   3.883   3.502  12.748  0.3051 -0.3545 -0.1687
   32DOPE   HN1 4001   3.868   3.408  12.705 -0.4061 -0.3199 -0.0035
   32DOPE   HN2 4002   3.842   3.490  12.843 -0.4602  0.9629 -0.3104
   32DOPE   HN3 4003   3.814   3.565  12.704 -0.0836  0.5482  1.6480
   32DOPE   C12 4004   4.029   3.550  12.745 -0.3103  0.0006 -0.0096
   32DOPE  H12A 4005   4.073   3.512  12.650  1.4496  1.4460  0.1739
   32DOPE  H12B 4006   4.085   3.504  12.829  0.6138 -0.0550 -0.6439
   32DOPE   C11 4007   4.036   3.704  12.742 -0.4208 -0.2830  0.4394
   32DOPE  H11A 4008   3.967   3.726  12.657 -2.3440  1.0469  2.2351
   32DOPE  H11B 4009   4.138   3.742  12.718 -0.7832 -0.7251 -2.1471
   32DOPE     P 4010   4.076   3.809  12.974 -0.5288  0.1702 -0.0746
   32DOPE   O13 4011   4.138   3.940  12.951 -0.1305 -0.2584 -0.3196
   32DOPE   O14 4012   4.172   3.696  13.005 -0.2150 -0.0242  0.6101
   32DOPE   O11 4013   3.988   3.824  13.100  0.4801  0.2489 -0.2297
   32DOPE   O12 4014   3.978   3.773  12.856 -0.7403 -0.3252 -0.2297
   32DOPE    C1 4015   4.007   3.924  13.203  0.6588 -0.7461  0.2862
   32DOPE    HA 4016   3.908   3.973  13.208  0.3230 -1.2761 -0.7579
   32DOPE    HB 4017   4.090   3.995  13.183 -0.6064  1.1237  1.4619
   32DOPE    C2 4018   4.035   3.856  13.340 -0.1531 -0.3321 -0.3727
   32DOPE    HS 4019   4.050   3.943  13.408  0.4436 -1.4891  1.0363
   32DOPE   O21 4020   4.142   3.766  13.335  0.4074  0.4796 -0.1953
   32DOPE   C21 4021   4.264   3.814  13.305  0.6901  0.9505  0.2736
   32DOPE   O22 4022   4.290   3.929  13.280 -0.0762 -0.2839  0.3437
   32DOPE   C22 4023   4.365   3.699  13.301 -0.4587  0.1004  0.7556
   32DOPE   H2R 4024   4.471   3.724  13.280 -0.7795  0.7592 -0.1817
   32DOPE   H2S 4025   4.335   3.634  13.216  1.0743  0.1056  0.1829
   32DOPE    C3 4026   3.915   3.774  13.386  0.4708 -0.0209 -0.0367
   32DOPE    HX 4027   3.942   3.728  13.483  0.0092 -0.1195  0.0473
   32DOPE    HY 4028   3.893   3.693  13.313  0.3748 -0.8117  0.8582
   32DOPE   O31 4029   3.808   3.869  13.421 -0.6529  0.4436  0.0375
   32DOPE   C31 4030   3.688   3.849  13.354 -0.4521  0.8395 -0.0897
   32DOPE   O32 4031   3.670   3.759  13.273  0.1171  0.0640  0.6996
   32DOPE   C32 4032   3.586   3.950  13.401  0.5649 -0.0089 -0.4016
   32DOPE   H2X 4033   3.634   4.050  13.400  1.4433 -0.2637 -4.5737
   32DOPE   H2Y 4034   3.505   3.957  13.325  0.6065  0.7705 -0.3872
   32DOPE   C23 4035   4.370   3.609  13.428 -0.2684 -0.1223  0.3329
   32DOPE   H3R 4036   4.417   3.511  13.402  0.4813 -0.4113  2.5968
   32DOPE   H3S 4037   4.265   3.586  13.457 -1.3817  3.2327 -0.5510
   32DOPE   C24 4038   4.450   3.665  13.547  0.5044  0.2119  0.1572
   32DOPE   H4R 4039   4.555   3.685  13.515  0.3615  1.1689  0.2660
   32DOPE   H4S 4040   4.461   3.591  13.629 -0.0523  0.5727  0.5659
   32DOPE   C25 4041   4.378   3.785  13.610 -0.1901  0.4284  0.3591
   32DOPE   H5R 4042   4.380   3.868  13.536 -1.7779  0.9557  0.8473
   32DOPE   H5S 4043   4.439   3.822  13.695 -0.4775  0.0056  0.7552
   32DOPE   C26 4044   4.236   3.760  13.669 -0.2707  0.7164 -0.2162
   32DOPE   H6R 4045   4.252   3.668  13.731  1.3033  1.2078  0.1581
   32DOPE   H6S 4046   4.160   3.726  13.596 -1.4907 -1.5254  1.9219
   32DOPE   C27 4047   4.173   3.867  13.753  0.2998 -0.2544  0.4869
   32DOPE   H7R 4048   4.128   3.950  13.694 -0.8472 -0.4440  1.0700
   32DOPE   H7S 4049   4.244   3.906  13.829 -0.5332 -0.6397  1.4961
   32DOPE   C28 4050   4.048   3.812  13.829  0.6462 -0.6165  0.2187
   32DOPE   H8R 4051   4.083   3.724  13.888  1.3979 -0.9240 -0.6604
   32DOPE   H8S 4052   3.986   3.763  13.751  0.1667  0.1265  0.1239
   32DOPE   C29 4053   3.965   3.916  13.897 -0.5653 -0.0513  0.4926
   32DOPE   H9R 4054   3.918   3.986  13.826 -0.9652  0.4602  1.2411
   32DOPE  C210 4055   3.964   3.933  14.030  0.6286  0.0215  0.3021
   32DOPE  H10R 4056   3.913   4.024  14.067 -4.1974 -1.4516 -1.8731
   32DOPE  C211 4057   4.045   3.847  14.122 -0.3006  0.1785 -0.0306
   32DOPE  H11R 4058   4.073   3.750  14.075  2.3430 -0.5075  2.6688
   32DOPE  H11S 4059   3.972   3.820  14.202  0.5844  1.1379  1.1501
   32DOPE  C212 4060   4.170   3.909  14.181  0.3375 -0.2014 -0.1319
   32DOPE  H12R 4061   4.157   4.014  14.216  1.0688  0.7080 -2.4079
   32DOPE  H12S 4062   4.248   3.919  14.102  0.7862  0.2682  0.3623
   32DOPE  C213 4063   4.234   3.822  14.293 -0.1226 -0.3002 -0.2321
   32DOPE  H13R 4064   4.336   3.864  14.304 -0.8071  1.4955 -0.5315
   32DOPE  H13S 4065   4.246   3.724  14.242  1.6586 -0.0373 -0.3918
   32DOPE  C214 4066   4.174   3.824  14.430  0.8017 -0.0219  0.0220
   32DOPE  H14R 4067   4.069   3.787  14.428  0.3243  0.9929  2.5257
   32DOPE  H14S 4068   4.185   3.925  14.474  0.0692 -0.5752  1.5582
   32DOPE  C215 4069   4.246   3.731  14.536 -1.1628 -0.0408  0.2826
   32DOPE  H15R 4070   4.354   3.758  14.544 -0.6744 -1.6726 -0.2900
   32DOPE  H15S 4071   4.249   3.631  14.487 -1.5946 -0.5620  1.2721
   32DOPE  C216 4072   4.183   3.737  14.674  0.6512  0.1872  0.0639
   32DOPE  H16R 4073   4.075   3.735  14.648  0.7048  1.8145 -0.3974
   32DOPE  H16S 4074   4.199   3.826  14.739 -1.6512 -1.3990  3.0246
   32DOPE  C217 4075   4.218   3.612  14.756  0.3693  0.5106  0.4757
   32DOPE  H17R 4076   4.327   3.595  14.742 -0.0177 -0.4632 -1.9901
   32DOPE  H17S 4077   4.185   3.516  14.711  0.2798  1.7427 -2.3288
   32DOPE  C218 4078   4.199   3.626  14.910  0.0935 -0.3461 -0.6808
   32DOPE  H18R 4079   4.094   3.647  14.938  0.4284  0.1020  0.2829
   32DOPE  H18S 4080   4.256   3.716  14.941  1.4250 -1.5939  0.6776
   32DOPE  H18T 4081   4.238   3.537  14.963  1.6802  0.6306 -0.1366
   32DOPE   C33 4082   3.513   3.920  13.528 -0.0466  0.2701 -0.8862
   32DOPE   H3X 4083   3.453   3.829  13.508 -3.1301  2.0519 -0.3179
   32DOPE   H3Y 4084   3.439   3.999  13.554  1.5782  1.5968 -0.0742
   32DOPE   C34 4085   3.607   3.906  13.646  0.6778  0.1332  0.3838
   32DOPE   H4X 4086   3.679   3.821  13.641  0.9817  0.4191 -0.2668
   32DOPE   H4Y 4087   3.662   4.003  13.651 -0.0065  0.5769 -0.4755
   32DOPE   C35 4088   3.533   3.900  13.779  0.7622 -0.2885 -0.0410
   32DOPE   H5X 4089   3.476   3.805  13.788  0.5225 -0.1051  0.4197
   32DOPE   H5Y 4090   3.457   3.980  13.792  1.1454  0.1794 -0.6381
   32DOPE   C36 4091   3.626   3.909  13.903 -0.5465 -0.6426  0.2756
   32DOPE   H6X 4092   3.679   4.004  13.926 -1.0108 -0.7813  2.0621
   32DOPE   H6Y 4093   3.698   3.831  13.872  0.6140  0.6307 -0.3458
   32DOPE   C37 4094   3.561   3.857  14.031 -0.1363 -0.7884 -0.3850
   32DOPE   H7X 4095   3.483   3.780  14.011 -2.7758  1.9859 -1.4089
   32DOPE   H7Y 4096   3.648   3.828  14.094  0.6405  1.3202 -0.4235
   32DOPE   C38 4097   3.493   3.971  14.106  0.0541  0.1549  0.6124
   32DOPE   H8X 4098   3.418   4.016  14.038 -0.2506 -1.6713 -0.3319
   32DOPE   H8Y 4099   3.563   4.054  14.129  1.1925 -0.9302  1.1381
   32DOPE   C39 4100   3.431   3.917  14.237 -0.6207 -0.4341  0.0242
   32DOPE   H9X 4101   3.323   3.896  14.241 -0.8870  0.1629 -2.4067
   32DOPE  C310 4102   3.503   3.894  14.347  0.1326 -0.3615 -0.1023
   32DOPE  H10X 4103   3.451   3.876  14.442  0.3695  0.0190  0.1023
   32DOPE  C311 4104   3.649   3.908  14.372  0.6932 -0.5907 -0.0461
   32DOPE  H11X 4105   3.686   3.803  14.379 -2.3941 -1.7495  0.5417
   32DOPE  H11Y 4106   3.704   3.962  14.292 -0.7568  1.7259  0.4494
   32DOPE  C312 4107   3.679   3.987  14.503 -0.5041  0.2032  0.0721
   32DOPE  H12X 4108   3.611   3.954  14.585 -1.4124  1.3519 -0.1843
   32DOPE  H12Y 4109   3.659   4.095  14.489 -0.9795 -0.0667 -1.5339
   32DOPE  C313 4110   3.834   3.976  14.533 -0.4598  0.2189  0.2678
   32DOPE  H13X 4111   3.863   3.869  14.531 -3.3869 -0.6538  0.0861
   32DOPE  H13Y 4112   3.888   4.025  14.450 -0.7122  0.8716  0.4807
   32DOPE  C314 4113   3.868   4.016  14.676 -0.8323  0.2354  0.2714
   32DOPE  H14X 4114   3.849   4.123  14.701 -0.1931 -0.0881  2.3120
   32DOPE  H14Y 4115   3.978   4.003  14.690 -0.7451  0.4334 -0.1768
   32DOPE  C315 4116   3.806   3.933  14.791 -0.8429 -0.0853 -0.0877
   32DOPE  H15X 4117   3.825   3.832  14.749  0.8643  1.2632 -2.8451
   32DOPE  H15Y 4118   3.697   3.954  14.801 -0.6528  2.1311 -1.9932
   32DOPE  C316 4119   3.868   3.953  14.932  0.5263  0.3773  0.6712
   32DOPE  H16X 4120   3.974   3.922  14.920  0.2911  0.0465 -0.7317
   32DOPE  H16Y 4121   3.805   3.891  14.999 -0.3300  2.8042  2.2437
   32DOPE  C317 4122   3.845   4.096  14.982 -0.0865  0.0106 -0.4818
   32DOPE  H17X 4123   3.916   4.164  14.930  0.8717 -0.0640  0.6673
   32DOPE  H17Y 4124   3.746   4.143  14.966 -0.2559 -0.6576 -1.4720
   32DOPE  C318 4125   3.892   4.105  15.132  0.1159 -0.6248  0.0234
   32DOPE  H18X 4126   4.001   4.086  15.142  0.2642 -1.1847 -2.1395
   32DOPE  H18Y 4127   3.876   4.207  15.173 -2.0344 -0.2536 -1.5669
   32DOPE  H18Z 4128   3.839   4.034  15.198  1.0871  0.3000  1.8806
   33DOPE     N 4129   3.189   3.143  12.945 -0.1374  0.5542 -0.1736
   33DOPE   HN1 4130   3.113   3.078  12.917 -1.9825  1.1415  2.9419
   33DOPE   HN2 4131   3.150   3.240  12.948 -0.4384  0.5005 -1.5083
   33DOPE   HN3 4132   3.258   3.147  12.868 -1.0778  0.3099 -1.0479
   33DOPE   C12 4133   3.241   3.096  13.077 -0.1763  0.4479  0.3741
   33DOPE  H12A 4134   3.311   3.175  13.111  0.0880  0.6181 -0.5262
   33DOPE  H12B 4135   3.298   3.000  13.074 -0.1468  0.3896  2.0150
   33DOPE   C11 4136   3.111   3.085  13.167 -0.5108  0.2677 -0.1482
   33DOPE  H11A 4137   3.078   3.191  13.168 -0.0396  0.4947 -2.4121
   33DOPE  H11B 4138   3.154   3.047  13.262 -0.5025  0.5252 -0.0481
   33DOPE     P 4139   2.863   3.020  13.148 -0.1307  0.0848 -0.2158
   33DOPE   O13 4140   2.785   2.900  13.111  0.7431 -0.4898  0.4390
   33DOPE   O14 4141   2.830   3.146  13.087  0.6841  0.1550 -0.3648
   33DOPE   O11 4142   2.862   3.038  13.302 -0.6598 -0.2575  0.1175
   33DOPE   O12 4143   3.016   3.001  13.110  0.1794 -0.1027  0.2158
   33DOPE    C1 4144   2.930   2.947  13.387  0.6256 -0.6731  0.3985
   33DOPE    HA 4145   2.977   3.003  13.471 -1.0116  0.7046  0.4635
   33DOPE    HB 4146   3.014   2.896  13.336  3.6416  2.2962  1.9985
   33DOPE    C2 4147   2.828   2.847  13.456 -0.4933  0.3600  0.0395
   33DOPE    HS 4148   2.729   2.897  13.448 -1.9823 -2.6074 -2.0341
   33DOPE   O21 4149   2.874   2.821  13.586  0.2009  0.1462 -0.2043
   33DOPE   C21 4150   2.836   2.912  13.669 -0.3250 -0.4851 -0.9756
   33DOPE   O22 4151   2.739   2.989  13.659 -0.4168  0.7921  0.6690
   33DOPE   C22 4152   2.933   2.907  13.787 -0.1353 -0.0052 -0.0011
   33DOPE   H2R 4153   2.939   3.004  13.841  2.6463 -0.5335  0.7942
   33DOPE   H2S 4154   3.036   2.878  13.757 -0.1219  0.6219 -0.5952
   33DOPE    C3 4155   2.824   2.716  13.389  0.1288  0.0916  0.6293
   33DOPE    HX 4156   2.929   2.680  13.381  1.3093  3.2847  0.5328
   33DOPE    HY 4157   2.791   2.724  13.284  1.0018  0.2453  0.3589
   33DOPE   O31 4158   2.747   2.608  13.460  0.5742 -0.2504 -0.2127
   33DOPE   C31 4159   2.612   2.624  13.436 -0.8027  0.5587 -0.3102
   33DOPE   O32 4160   2.564   2.686  13.342  0.2330 -0.7446 -0.1874
   33DOPE   C32 4161   2.539   2.535  13.532  0.0485 -0.0245 -0.1694
   33DOPE   H2X 4162   2.432   2.534  13.502 -0.1947 -0.1723  0.6852
   33DOPE   H2Y 4163   2.579   2.435  13.502  0.9591  0.2152  0.2135
   33DOPE   C23 4164   2.882   2.804  13.885  0.3779  0.4549  0.5239
   33DOPE   H3R 4165   2.870   2.710  13.828 -1.8958  0.4818  0.8473
   33DOPE   H3S 4166   2.782   2.842  13.916  0.5601  0.9406  0.5223
   33DOPE   C24 4167   2.973   2.783  14.005  0.2080 -0.1570 -1.1772
   33DOPE   H4R 4168   3.071   2.743  13.969  1.1915  0.1629  0.9991
   33DOPE   H4S 4169   2.922   2.714  14.075 -1.1943  0.7917 -1.2215
   33DOPE   C25 4170   3.012   2.911  14.075 -0.5066  0.3190  0.0399
   33DOPE   H5R 4171   2.931   2.980  14.107  1.2279  1.6313  1.8523
   33DOPE   H5S 4172   3.080   2.961  14.003 -2.3764  0.0476 -2.0215
   33DOPE   C26 4173   3.093   2.884  14.206 -0.2835 -0.2695  0.3661
   33DOPE   H6R 4174   3.174   2.811  14.187  0.2597 -0.1337  2.0623
   33DOPE   H6S 4175   3.032   2.835  14.284  0.8449 -0.5837  1.0618
   33DOPE   C27 4176   3.152   3.003  14.266  1.2183 -0.8752  0.2491
   33DOPE   H7R 4177   3.209   3.055  14.186  0.6728 -0.0323  0.3903
   33DOPE   H7S 4178   3.224   2.979  14.347  2.2982 -2.8602 -1.2238
   33DOPE   C28 4179   3.065   3.127  14.319 -0.4001  0.7394  0.0715
   33DOPE   H8R 4180   3.007   3.150  14.227  0.1717 -1.2143 -0.8309
   33DOPE   H8S 4181   3.137   3.209  14.338 -0.9832  1.3266 -0.2567
   33DOPE   C29 4182   2.970   3.095  14.436  0.3942  0.6690  0.0663
   33DOPE   H9R 4183   2.978   2.998  14.487 -0.8624  0.8587  0.6537
   33DOPE  C210 4184   2.885   3.190  14.476 -0.7732 -0.0083  0.3733
   33DOPE  H10R 4185   2.813   3.150  14.548 -1.1215 -3.6076 -1.7221
   33DOPE  C211 4186   2.861   3.325  14.422  0.4152  0.4971 -0.1943
   33DOPE  H11R 4187   2.958   3.360  14.382  1.0356  0.4563  1.2086
   33DOPE  H11S 4188   2.848   3.399  14.505  2.6595  0.4884  0.2217
   33DOPE  C212 4189   2.741   3.350  14.322  0.4275  0.6383 -0.1827
   33DOPE  H12R 4190   2.730   3.460  14.311  1.2712  0.7969  0.5339
   33DOPE  H12S 4191   2.643   3.319  14.366  1.1542  0.4330  1.3480
   33DOPE  C213 4192   2.765   3.288  14.187 -0.3965 -0.2585  0.6947
   33DOPE  H13R 4193   2.765   3.179  14.210  0.9584  0.0599  2.3891
   33DOPE  H13S 4194   2.865   3.311  14.146 -0.4723  0.1520  0.7405
   33DOPE  C214 4195   2.665   3.337  14.083 -0.9739  0.2439 -0.2327
   33DOPE  H14R 4196   2.685   3.443  14.059 -2.0811  0.0351 -2.3760
   33DOPE  H14S 4197   2.559   3.322  14.113 -0.4263 -2.7066  0.5616
   33DOPE  C215 4198   2.681   3.260  13.953 -1.0056  0.7099 -0.0292
   33DOPE  H15R 4199   2.656   3.152  13.962 -1.1944  0.7770  0.2664
   33DOPE  H15S 4200   2.783   3.275  13.912 -0.6395 -0.2232  0.5149
   33DOPE  C216 4201   2.582   3.307  13.842  0.5410 -0.2879 -0.0902
   33DOPE  H16R 4202   2.594   3.256  13.744 -2.5938 -0.3537 -0.5389
   33DOPE  H16S 4203   2.606   3.415  13.828  1.1472 -0.2831  0.9470
   33DOPE  C217 4204   2.433   3.290  13.870 -0.6304  0.3790  0.7178
   33DOPE  H17R 4205   2.407   3.350  13.960 -0.0880  0.5381  0.7720
   33DOPE  H17S 4206   2.424   3.187  13.909 -0.7354  0.0892 -0.0593
   33DOPE  C218 4207   2.345   3.333  13.755 -0.3827  0.4216  0.9608
   33DOPE  H18R 4208   2.354   3.442  13.735 -1.1171  0.4141  0.5348
   33DOPE  H18S 4209   2.238   3.308  13.773 -0.3038  0.2369  1.1865
   33DOPE  H18T 4210   2.368   3.261  13.673  2.4923  0.2031  1.8503
   33DOPE   C33 4211   2.551   2.561  13.686  0.1708 -0.3703  0.3912
   33DOPE   H3X 4212   2.454   2.517  13.717 -0.6063 -0.4022 -1.8698
   33DOPE   H3Y 4213   2.555   2.669  13.711 -0.1827 -0.6894  1.9443
   33DOPE   C34 4214   2.668   2.482  13.751  0.4637 -0.7251  0.4544
   33DOPE   H4X 4215   2.661   2.389  13.690  1.7034  0.2215 -1.2275
   33DOPE   H4Y 4216   2.754   2.546  13.722 -1.2337  0.9107 -1.3567
   33DOPE   C35 4217   2.647   2.465  13.901  0.2198  0.2857  0.1865
   33DOPE   H5X 4218   2.549   2.420  13.924 -0.2151  2.4368  3.1962
   33DOPE   H5Y 4219   2.646   2.564  13.952  4.4690  1.0315 -0.7781
   33DOPE   C36 4220   2.755   2.382  13.973  0.8190  0.2005 -0.1581
   33DOPE   H6X 4221   2.851   2.410  13.925  0.2866  0.5751 -1.0363
   33DOPE   H6Y 4222   2.745   2.272  13.963  1.2440  0.1293  0.1667
   33DOPE   C37 4223   2.774   2.425  14.122  0.4781 -0.3535  0.4401
   33DOPE   H7X 4224   2.875   2.406  14.162  0.1587 -0.5256  1.1707
   33DOPE   H7Y 4225   2.767   2.536  14.110  2.2042 -0.3197 -0.4819
   33DOPE   C38 4226   2.663   2.380  14.212  0.1217 -0.2014  0.0607
   33DOPE   H8X 4227   2.656   2.269  14.226 -0.4823 -0.1517  0.1839
   33DOPE   H8Y 4228   2.567   2.412  14.167  0.0116  1.7386  1.5546
   33DOPE   C39 4229   2.678   2.446  14.351 -0.1810 -0.0548  0.0560
   33DOPE   H9X 4230   2.770   2.502  14.373 -1.6106  2.5871 -0.2523
   33DOPE  C310 4231   2.570   2.451  14.430 -0.0289  0.8301  0.1147
   33DOPE  H10X 4232   2.572   2.510  14.523 -2.3212  1.1998 -0.0008
   33DOPE  C311 4233   2.433   2.395  14.392  0.5941  0.1901  0.1435
   33DOPE  H11X 4234   2.445   2.309  14.322  0.5520 -0.2977  0.7229
   33DOPE  H11Y 4235   2.393   2.352  14.486 -0.7963  0.4337 -0.3193
   33DOPE  C312 4236   2.344   2.505  14.331 -0.3410  0.8108  0.2314
   33DOPE  H12X 4237   2.382   2.544  14.234  0.6084  0.5391  0.4893
   33DOPE  H12Y 4238   2.348   2.589  14.404  0.6933 -2.7984  4.7745
   33DOPE  C313 4239   2.199   2.463  14.310 -0.2630  0.2346 -0.2684
   33DOPE  H13X 4240   2.161   2.388  14.383 -1.3583  0.6979 -0.3415
   33DOPE  H13Y 4241   2.141   2.558  14.321  0.4024  0.6964 -0.6684
   33DOPE  C314 4242   2.190   2.417  14.160  0.1201 -0.0753 -0.2542
   33DOPE  H14X 4243   2.260   2.333  14.142 -2.2205 -1.8815 -1.5422
   33DOPE  H14Y 4244   2.218   2.496  14.087 -1.0798  1.5282  0.9281
   33DOPE  C315 4245   2.054   2.362  14.122  0.3061 -0.1384 -0.0569
   33DOPE  H15X 4246   1.980   2.443  14.137 -0.7782 -0.8460 -1.3721
   33DOPE  H15Y 4247   2.023   2.287  14.199 -0.2713  0.1947  0.0350
   33DOPE  C316 4248   2.039   2.300  13.980  0.4663  0.3664  0.2042
   33DOPE  H16X 4249   2.043   2.381  13.904  1.0394 -0.3560 -0.5414
   33DOPE  H16Y 4250   1.943   2.246  13.968 -0.2654  1.7123 -0.2481
   33DOPE  C317 4251   2.142   2.192  13.939 -0.1229 -0.4882 -0.2428
   33DOPE  H17X 4252   2.232   2.253  13.921 -0.6737  0.5375  0.3977
   33DOPE  H17Y 4253   2.152   2.124  14.026 -1.4747  0.0630  0.3742
   33DOPE  C318 4254   2.100   2.123  13.809  0.1065  0.0063 -0.6896
   33DOPE  H18X 4255   2.017   2.056  13.841  1.4221 -0.7931  1.2547
   33DOPE  H18Y 4256   2.076   2.201  13.734  4.2965  0.2848 -1.9777
   33DOPE  H18Z 4257   2.184   2.057  13.777  1.1875  0.8876  0.2480
   34DOPE     N 4258   0.274   4.643  12.952  0.1247  0.0075  0.1584
   34DOPE   HN1 4259   0.258   4.651  13.055 -0.0106 -1.0672  0.2338
   34DOPE   HN2 4260   0.212   4.561  12.936 -1.1346  0.3606  2.6324
   34DOPE   HN3 4261   0.375   4.621  12.937  0.2056  0.4170  0.0881
   34DOPE   C12 4262   0.236   4.765  12.872 -0.2806 -0.3349 -0.0962
   34DOPE  H12A 4263   0.205   4.738  12.769 -0.7553 -0.4907  0.0866
   34DOPE  H12B 4264   0.334   4.817  12.866  0.7770 -1.8914  2.1366
   34DOPE   C11 4265   0.134   4.849  12.953 -0.2837 -0.1320 -0.0306
   34DOPE  H11A 4266   0.141   4.951  12.909 -0.4730  0.2707  0.8458
   34DOPE  H11B 4267   0.179   4.865  13.053  2.8137 -2.0398 -0.9793
   34DOPE     P 4268  -0.055   4.725  13.079 -0.1746  0.0766  0.1812
   34DOPE   O13 4269  -0.122   4.600  13.035  0.8522 -0.3143 -0.0315
   34DOPE   O14 4270  -0.138   4.825  13.148  0.0003  0.4722 -0.5703
   34DOPE   O11 4271   0.068   4.693  13.173  0.0968 -0.1586 -0.1521
   34DOPE   O12 4272   0.003   4.796  12.956 -0.2798  0.1209  0.1361
   34DOPE    C1 4273   0.036   4.616  13.297  0.0683  0.1280 -0.0334
   34DOPE    HA 4274   0.107   4.533  13.313  0.1956  0.7522  3.4208
   34DOPE    HB 4275  -0.067   4.574  13.292 -0.7872  2.2157 -2.1527
   34DOPE    C2 4276   0.035   4.711  13.422 -0.7244  0.3163 -0.2248
   34DOPE    HS 4277  -0.059   4.769  13.417 -0.0891  1.2837 -1.5450
   34DOPE   O21 4278   0.163   4.789  13.406 -0.1829  0.6596 -0.6899
   34DOPE   C21 4279   0.140   4.910  13.457 -0.3943 -0.0563 -0.7746
   34DOPE   O22 4280   0.038   4.968  13.468  0.2697  0.6540 -0.2456
   34DOPE   C22 4281   0.267   4.947  13.539 -0.7793 -0.1572 -0.5643
   34DOPE   H2R 4282   0.298   5.050  13.509 -0.3946 -0.5253 -1.4766
   34DOPE   H2S 4283   0.351   4.889  13.495 -0.2286  1.8202 -2.3055
   34DOPE    C3 4284   0.027   4.641  13.556 -0.6695 -0.4698  0.5503
   34DOPE    HX 4285   0.119   4.582  13.574 -0.2682 -0.3959 -1.0822
   34DOPE    HY 4286  -0.060   4.573  13.542 -0.0881 -1.7390  2.6810
   34DOPE   O31 4287   0.015   4.743  13.667 -0.0185 -0.3594 -0.0040
   34DOPE   C31 4288  -0.114   4.777  13.687  0.2852 -0.5720  0.3865
   34DOPE   O32 4289  -0.208   4.742  13.618 -0.3470  0.1458 -0.6297
   34DOPE   C32 4290  -0.123   4.879  13.805 -0.2369  0.0363 -0.0729
   34DOPE   H2X 4291  -0.016   4.892  13.829  0.1201 -0.7640 -1.1771
   34DOPE   H2Y 4292  -0.171   4.971  13.766 -1.0313 -0.6889 -0.8445
   34DOPE   C23 4293   0.255   4.957  13.686 -0.6914 -0.0009  0.1496
   34DOPE   H3R 4294   0.236   4.853  13.721  0.9905 -0.1265  0.7488
   34DOPE   H3S 4295   0.161   5.007  13.716 -1.4880 -0.9894 -0.5886
   34DOPE   C24 4296   0.363   5.023  13.770  0.5247  0.2506  0.1762
   34DOPE   H4R 4297   0.362   5.133  13.752  1.1508  0.2808  0.2901
   34DOPE   H4S 4298   0.467   4.986  13.752  0.3315 -0.0191 -0.4316
   34DOPE   C25 4299   0.329   4.990  13.919  0.2602 -0.2585  0.0739
   34DOPE   H5R 4300   0.337   4.884  13.949  1.1835 -0.6153 -1.3437
   34DOPE   H5S 4301   0.222   5.016  13.933  0.0230 -1.1309 -0.0774
   34DOPE   C26 4302   0.412   5.078  14.020  0.4905  0.4723 -0.6418
   34DOPE   H6R 4303   0.416   5.184  13.989 -0.1486  1.3904  2.1396
   34DOPE   H6S 4304   0.513   5.032  14.019  0.1609 -0.2618 -0.9551
   34DOPE   C27 4305   0.345   5.067  14.162 -0.5255 -0.6047 -0.0020
   34DOPE   H7R 4306   0.259   4.997  14.153  1.0520 -2.3844 -2.7654
   34DOPE   H7S 4307   0.310   5.170  14.182 -0.5558 -0.7559  0.7558
   34DOPE   C28 4308   0.447   5.033  14.267  0.5802  0.7753  0.2019
   34DOPE   H8R 4309   0.387   5.049  14.360 -0.2423 -1.5934  0.1473
   34DOPE   H8S 4310   0.536   5.099  14.256  0.3601  0.7115 -2.8212
   34DOPE   C29 4311   0.495   4.889  14.256  0.2706  0.6316 -0.5392
   34DOPE   H9R 4312   0.548   4.858  14.165 -1.1331 -1.0193 -0.8588
   34DOPE  C210 4313   0.471   4.793  14.349 -0.0069  1.2115 -0.5068
   34DOPE  H10R 4314   0.505   4.691  14.324 -0.6716  1.0981 -0.9960
   34DOPE  C211 4315   0.396   4.802  14.481  0.6195  0.1017  0.1264
   34DOPE  H11R 4316   0.374   4.907  14.513 -0.1287 -1.1783  4.4689
   34DOPE  H11S 4317   0.468   4.761  14.555  0.3305  0.4193  0.5994
   34DOPE  C212 4318   0.264   4.716  14.505  0.1733  0.1016 -0.4185
   34DOPE  H12R 4319   0.275   4.614  14.463  0.8912  0.3863 -0.9577
   34DOPE  H12S 4320   0.187   4.765  14.441 -1.7039 -0.1513  1.5505
   34DOPE  C213 4321   0.205   4.704  14.647 -0.1894  0.1128  0.4741
   34DOPE  H13R 4322   0.288   4.685  14.718  1.4344 -0.4568 -1.4788
   34DOPE  H13S 4323   0.126   4.627  14.662  0.0308 -0.2928 -0.3930
   34DOPE  C214 4324   0.143   4.840  14.701 -0.3108 -0.4339  0.1076
   34DOPE  H14R 4325   0.058   4.877  14.641  0.2368  1.0931  0.2264
   34DOPE  H14S 4326   0.215   4.925  14.703 -0.6690 -0.1425  1.3600
   34DOPE  C215 4327   0.102   4.827  14.848  0.9007  0.4504 -0.2274
   34DOPE  H15R 4328   0.179   4.764  14.899  0.3829 -1.1744 -1.3561
   34DOPE  H15S 4329  -0.001   4.786  14.849  0.3459  1.7620 -1.0731
   34DOPE  C216 4330   0.083   4.957  14.912 -0.0172 -0.8258  0.7109
   34DOPE  H16R 4331   0.170   5.027  14.911 -0.8092  0.2597 -1.8680
   34DOPE  H16S 4332   0.053   4.943  15.018  1.1865  1.5168  1.4450
   34DOPE  C217 4333  -0.041   5.028  14.867  0.1043 -0.0523  0.3931
   34DOPE  H17R 4334  -0.125   4.955  14.860  1.1015 -1.1028 -1.4579
   34DOPE  H17S 4335  -0.029   5.064  14.763  1.9265  0.0408  0.6025
   34DOPE  C218 4336  -0.087   5.149  14.946 -0.1026 -0.0339  0.4692
   34DOPE  H18R 4337  -0.169   5.207  14.899  0.1826  0.8295  1.0031
   34DOPE  H18S 4338  -0.011   5.228  14.965  1.3707 -1.5666  1.1745
   34DOPE  H18T 4339  -0.112   5.109  15.046  0.1780 -0.5997  0.3169
   34DOPE   C33 4340  -0.207   4.816  13.921 -0.1483 -0.4800 -0.4485
   34DOPE   H3X 4341  -0.306   4.776  13.893 -1.9377  2.3197  1.3537
   34DOPE   H3Y 4342  -0.233   4.900  13.989 -0.2059  0.4848 -1.6423
   34DOPE   C34 4343  -0.149   4.713  14.009  0.2144 -0.0970 -0.8136
   34DOPE   H4X 4344  -0.217   4.689  14.093  0.9887  1.1236  0.2049
   34DOPE   H4Y 4345  -0.132   4.628  13.939 -1.8498 -0.0447 -1.4335
   34DOPE   C35 4346  -0.021   4.748  14.082  0.1972  0.2556  0.0491
   34DOPE   H5X 4347  -0.033   4.838  14.145 -0.1461  0.7124 -0.6593
   34DOPE   H5Y 4348   0.057   4.781  14.009  0.6685  0.0802  0.4675
   34DOPE   C36 4349   0.027   4.634  14.179  0.3164  0.2655  0.2336
   34DOPE   H6X 4350  -0.059   4.618  14.247  1.3215  2.8474  2.2833
   34DOPE   H6Y 4351   0.115   4.669  14.238  1.7836 -1.2617 -0.9473
   34DOPE   C37 4352   0.067   4.507  14.105  0.4605  0.7094 -0.3466
   34DOPE   H7X 4353  -0.020   4.461  14.053 -1.4149  2.4477  1.1110
   34DOPE   H7Y 4354   0.142   4.531  14.027  1.3833  2.7278  1.0811
   34DOPE   C38 4355   0.138   4.400  14.198  0.0647  0.3069  0.8057
   34DOPE   H8X 4356   0.207   4.459  14.262  0.3197 -0.5715  1.3705
   34DOPE   H8Y 4357   0.200   4.342  14.126  0.8530  1.8503  0.1843
   34DOPE   C39 4358   0.045   4.313  14.276 -0.5402  0.4866 -0.3052
   34DOPE   H9X 4359  -0.033   4.273  14.209 -1.1297  1.3486 -0.1441
   34DOPE  C310 4360   0.040   4.283  14.406 -0.7842  1.0319  0.0256
   34DOPE  H10X 4361  -0.049   4.234  14.447 -1.8496  2.6740 -0.2488
   34DOPE  C311 4362   0.139   4.337  14.507  0.2655  0.3549 -0.3812
   34DOPE  H11X 4363   0.217   4.405  14.466  0.1642 -0.4699 -2.0045
   34DOPE  H11Y 4364   0.091   4.387  14.594 -1.2745 -3.0384  0.8696
   34DOPE  C312 4365   0.229   4.220  14.564  0.1048  0.1482 -0.4710
   34DOPE  H12X 4366   0.309   4.271  14.623 -0.2139 -2.1835  2.1721
   34DOPE  H12Y 4367   0.276   4.172  14.475  1.7941 -0.3260  0.6236
   34DOPE  C313 4368   0.159   4.111  14.652  0.2406  0.6424  0.6114
   34DOPE  H13X 4369   0.064   4.158  14.685  0.4315  2.0724 -0.7332
   34DOPE  H13Y 4370   0.127   4.021  14.594  0.9224  0.6413  0.2355
   34DOPE  C314 4371   0.254   4.057  14.755 -0.4609  0.4540 -0.1743
   34DOPE  H14X 4372   0.205   3.995  14.833  1.9981  1.2735  2.1656
   34DOPE  H14Y 4373   0.295   4.143  14.812 -2.8606  1.4634  0.1603
   34DOPE  C315 4374   0.370   3.970  14.696 -0.5326 -0.3709 -0.4535
   34DOPE  H15X 4375   0.391   4.013  14.596  3.2062 -0.9672 -0.0827
   34DOPE  H15Y 4376   0.330   3.868  14.679  0.4780 -1.0691  1.0957
   34DOPE  C316 4377   0.496   3.969  14.786 -0.2738  0.9594  0.8495
   34DOPE  H16X 4378   0.557   4.062  14.777  1.9276 -0.3352  1.5518
   34DOPE  H16Y 4379   0.561   3.883  14.757 -1.9889 -0.5840  1.4118
   34DOPE  C317 4380   0.463   3.930  14.929  0.2024  0.0658  0.3905
   34DOPE  H17X 4381   0.366   3.967  14.969 -1.2676 -2.2541 -0.8175
   34DOPE  H17Y 4382   0.462   3.819  14.937  0.2794  0.1335  1.5397
   34DOPE  C318 4383   0.566   3.985  15.029 -0.8200  0.1565  0.0674
   34DOPE  H18X 4384   0.660   3.927  15.014 -1.3566 -0.7499  0.1363
   34DOPE  H18Y 4385   0.583   4.094  15.020  1.6071 -0.2576 -1.1817
   34DOPE  H18Z 4386   0.532   3.971  15.134  0.2693  0.0573  0.4180
   35DOPE     N 4387   5.552   3.038  12.956  0.0592  0.2755  0.4200
   35DOPE   HN1 4388   5.629   2.978  12.991  0.4213  0.7017  0.3728
   35DOPE   HN2 4389   5.593   3.087  12.874  1.1809 -1.1445  0.1072
   35DOPE   HN3 4390   5.520   3.104  13.030  1.9819 -0.8149  2.3417
   35DOPE   C12 4391   5.434   2.968  12.909  1.0056  0.1609  0.0744
   35DOPE  H12A 4392   5.405   2.899  12.990 -0.7862  2.5876  1.6637
   35DOPE  H12B 4393   5.445   2.913  12.813  0.0176  0.7835 -0.4220
   35DOPE   C11 4394   5.319   3.069  12.892 -0.4283 -0.4022  0.0815
   35DOPE  H11A 4395   5.242   3.020  12.829  0.4734 -0.6214 -0.8776
   35DOPE  H11B 4396   5.362   3.158  12.842  0.6918 -0.0803  1.5646
   35DOPE     P 4397   5.120   3.095  13.063  0.0932 -0.3752 -0.2182
   35DOPE   O13 4398   5.024   3.076  12.952  0.0023 -0.1364  0.3263
   35DOPE   O14 4399   5.090   3.209  13.150  0.3509 -0.3180 -0.5096
   35DOPE   O11 4400   5.117   2.964  13.146  0.2355 -0.1649 -0.3583
   35DOPE   O12 4401   5.265   3.119  13.013 -0.0097  0.4229 -0.1253
   35DOPE    C1 4402   5.208   2.942  13.258  0.6523 -0.2305  0.8163
   35DOPE    HA 4403   5.310   2.980  13.237  0.8281 -0.2569  1.6000
   35DOPE    HB 4404   5.210   2.833  13.279 -3.0664 -0.5478  0.3034
   35DOPE    C2 4405   5.163   3.015  13.381 -0.0790 -0.1161 -0.2351
   35DOPE    HS 4406   5.174   3.123  13.357  0.5083  0.0037  0.5386
   35DOPE   O21 4407   5.258   2.973  13.484 -0.2580 -0.0809  0.5866
   35DOPE   C21 4408   5.279   3.065  13.576  0.3607 -0.6542 -0.1413
   35DOPE   O22 4409   5.236   3.182  13.567  0.2561  0.0556  0.1998
   35DOPE   C22 4410   5.378   3.004  13.681  0.5434  0.5381  0.1434
   35DOPE   H2R 4411   5.457   3.080  13.695 -0.8358  2.1030 -0.2086
   35DOPE   H2S 4412   5.411   2.909  13.634  0.2349 -0.5199  1.9796
   35DOPE    C3 4413   5.022   2.984  13.427  0.5787  0.5384 -0.3163
   35DOPE    HX 4414   5.019   2.873  13.438 -1.7767  0.4981 -0.9171
   35DOPE    HY 4415   4.941   3.003  13.353  0.4763 -0.9022 -0.6080
   35DOPE   O31 4416   5.000   3.019  13.566 -0.3423  0.0134 -0.9857
   35DOPE   C31 4417   4.936   3.134  13.573  0.3903  0.0702 -0.4978
   35DOPE   O32 4418   4.898   3.202  13.479  0.2841 -0.1495 -0.3973
   35DOPE   C32 4419   4.922   3.176  13.714 -0.3865  0.8749  0.4038
   35DOPE   H2X 4420   4.912   3.090  13.784 -0.5635 -1.5934 -2.4694
   35DOPE   H2Y 4421   5.014   3.229  13.746  1.3187 -1.7944  0.2372
   35DOPE   C23 4422   5.299   2.972  13.810  0.5005  0.0706 -0.2541
   35DOPE   H3R 4423   5.355   2.898  13.870  0.3979  0.1849 -0.0144
   35DOPE   H3S 4424   5.213   2.913  13.771  0.4832  0.0929 -0.2510
   35DOPE   C24 4425   5.264   3.090  13.902 -0.3739 -0.7665  1.0821
   35DOPE   H4R 4426   5.199   3.058  13.986 -0.6350  1.3002  1.7436
   35DOPE   H4S 4427   5.206   3.162  13.840  2.2971  0.1880 -0.4672
   35DOPE   C25 4428   5.393   3.157  13.960 -0.4110 -0.0740 -0.2458
   35DOPE   H5R 4429   5.452   3.207  13.881 -0.4265 -1.7894 -1.4009
   35DOPE   H5S 4430   5.469   3.082  13.992  1.3990  2.6100  2.3892
   35DOPE   C26 4431   5.363   3.253  14.080 -0.6526 -0.1861  0.7805
   35DOPE   H6R 4432   5.284   3.320  14.041 -1.1228 -0.5876  1.0222
   35DOPE   H6S 4433   5.454   3.312  14.101  0.6866 -1.4888 -1.0116
   35DOPE   C27 4434   5.306   3.195  14.201 -0.6255  0.4161  0.1996
   35DOPE   H7R 4435   5.352   3.098  14.229  0.3362  0.5388 -0.9010
   35DOPE   H7S 4436   5.201   3.160  14.186 -0.6869 -0.2594  1.9984
   35DOPE   C28 4437   5.306   3.295  14.320  0.0776  0.2399  0.1278
   35DOPE   H8R 4438   5.413   3.320  14.339  0.1787  0.6515 -0.9013
   35DOPE   H8S 4439   5.262   3.249  14.411  0.5732  1.5597  1.0707
   35DOPE   C29 4440   5.224   3.418  14.282 -0.5518  0.4584 -0.0061
   35DOPE   H9R 4441   5.280   3.503  14.242  0.4676 -0.3238 -0.2749
   35DOPE  C210 4442   5.087   3.417  14.290 -0.2408 -0.1950 -0.2216
   35DOPE  H10R 4443   5.035   3.510  14.264  0.4345  0.1480 -0.3550
   35DOPE  C211 4444   4.992   3.306  14.329 -0.5663  0.3212  0.7389
   35DOPE  H11R 4445   5.041   3.208  14.351 -1.0673 -0.2694 -0.6286
   35DOPE  H11S 4446   4.920   3.278  14.249 -0.2124 -1.3703  0.9576
   35DOPE  C212 4447   4.913   3.333  14.453  0.5998 -0.3439  0.5931
   35DOPE  H12R 4448   4.843   3.249  14.474  3.2104 -2.7264  0.4150
   35DOPE  H12S 4449   4.863   3.431  14.458  0.1736 -0.5086 -0.3600
   35DOPE  C213 4450   5.000   3.340  14.575  0.2316  0.2395  0.3552
   35DOPE  H13R 4451   5.057   3.435  14.565 -2.6413  2.0152 -0.1926
   35DOPE  H13S 4452   5.072   3.257  14.567 -0.3567 -0.1193 -1.8859
   35DOPE  C214 4453   4.935   3.337  14.713  0.0003 -0.7385 -0.7211
   35DOPE  H14R 4454   4.869   3.249  14.728 -0.8785 -0.0086 -0.2323
   35DOPE  H14S 4455   4.863   3.421  14.715 -1.5352 -1.9422 -2.3739
   35DOPE  C215 4456   5.029   3.347  14.830 -0.3144  0.4245 -0.8580
   35DOPE  H15R 4457   4.965   3.319  14.916  0.0630 -0.8117 -0.9486
   35DOPE  H15S 4458   5.061   3.452  14.845  2.9488 -0.3818 -1.4331
   35DOPE  C216 4459   5.154   3.255  14.818 -0.2502  0.3051  0.0271
   35DOPE  H16R 4460   5.237   3.306  14.765 -1.1664  1.0915 -0.6788
   35DOPE  H16S 4461   5.124   3.167  14.758 -0.8430  0.6296 -0.1604
   35DOPE  C217 4462   5.214   3.194  14.949 -0.4214 -1.0086 -0.4954
   35DOPE  H17R 4463   5.303   3.140  14.910 -1.3255 -2.7836 -0.2051
   35DOPE  H17S 4464   5.155   3.111  14.992 -0.8024 -0.4980 -0.0176
   35DOPE  C218 4465   5.261   3.298  15.058  0.4057 -0.1705  0.4194
   35DOPE  H18R 4466   5.319   3.374  15.003 -1.6468 -0.7484 -2.7673
   35DOPE  H18S 4467   5.322   3.252  15.139  0.4960 -1.5275 -0.3955
   35DOPE  H18T 4468   5.175   3.359  15.094  0.0973  1.0521 -2.1520
   35DOPE   C33 4469   4.800   3.273  13.729  0.1568 -0.1021  0.2577
   35DOPE   H3X 4470   4.709   3.231  13.680 -1.4608  3.5476 -0.2264
   35DOPE   H3Y 4471   4.836   3.367  13.682  0.9877 -0.1539  0.7863
   35DOPE   C34 4472   4.770   3.308  13.872 -0.0137 -0.2241 -0.5762
   35DOPE   H4X 4473   4.743   3.220  13.934  0.6045  0.2228  0.3545
   35DOPE   H4Y 4474   4.863   3.353  13.912  0.3100  0.1096 -1.6624
   35DOPE   C35 4475   4.651   3.402  13.884  0.1429 -0.0927  0.1961
   35DOPE   H5X 4476   4.557   3.343  13.880 -0.8057  1.4468 -1.1708
   35DOPE   H5Y 4477   4.652   3.477  13.802 -1.4122  0.4564  0.6521
   35DOPE   C36 4478   4.656   3.489  14.013 -0.4399  0.4024  0.7868
   35DOPE   H6X 4479   4.759   3.532  14.019 -0.8112  1.3654  0.5297
   35DOPE   H6Y 4480   4.643   3.422  14.100  1.1110  1.3357  1.7989
   35DOPE   C37 4481   4.543   3.589  14.018 -0.3783 -0.1025  0.4372
   35DOPE   H7X 4482   4.525   3.643  13.922  0.7000  2.8455  1.7622
   35DOPE   H7Y 4483   4.452   3.526  14.025  0.3181 -1.1578  0.2556
   35DOPE   C38 4484   4.559   3.691  14.129 -0.4639 -0.7431 -0.2485
   35DOPE   H8X 4485   4.544   3.640  14.226  1.8042 -0.4670  0.3010
   35DOPE   H8Y 4486   4.474   3.762  14.120  0.0979 -0.2893 -2.9603
   35DOPE   C39 4487   4.675   3.796  14.120  0.0331  0.1573  0.1495
   35DOPE   H9X 4488   4.680   3.857  14.028 -1.3834 -0.0204 -0.0598
   35DOPE  C310 4489   4.770   3.812  14.213  0.9529  0.1121 -0.8988
   35DOPE  H10X 4490   4.843   3.892  14.193 -1.4902  3.1873  1.4571
   35DOPE  C311 4491   4.784   3.740  14.346 -0.2796 -0.1219  0.2642
   35DOPE  H11X 4492   4.721   3.648  14.344  0.1752 -0.4340 -0.0299
   35DOPE  H11Y 4493   4.886   3.696  14.343 -0.6799 -1.1131  0.6684
   35DOPE  C312 4494   4.766   3.815  14.476 -0.3585  0.0733 -0.5683
   35DOPE  H12X 4495   4.661   3.850  14.468 -0.2204  0.4073 -0.9399
   35DOPE  H12Y 4496   4.829   3.904  14.456  1.0596 -1.2640 -2.3767
   35DOPE  C313 4497   4.778   3.739  14.617  0.7539 -0.0684 -0.2919
   35DOPE  H13X 4498   4.705   3.656  14.624 -0.8643  1.0224 -2.8657
   35DOPE  H13Y 4499   4.884   3.704  14.618 -0.0999 -2.8867  0.6134
   35DOPE  C314 4500   4.750   3.831  14.742 -0.1196 -0.1104 -0.1803
   35DOPE  H14X 4501   4.641   3.852  14.754  0.2336  2.2020 -0.5541
   35DOPE  H14Y 4502   4.796   3.926  14.707 -0.3895 -1.2791 -4.1562
   35DOPE  C315 4503   4.823   3.781  14.870  0.2849 -0.5823  0.6209
   35DOPE  H15X 4504   4.822   3.868  14.939  1.7429 -0.0722  0.0384
   35DOPE  H15Y 4505   4.928   3.751  14.851  0.3965  1.2152 -2.2251
   35DOPE  C316 4506   4.751   3.655  14.930  0.1701 -0.2403  0.2862
   35DOPE  H16X 4507   4.816   3.621  15.014 -0.2575 -0.2214  0.6289
   35DOPE  H16Y 4508   4.735   3.573  14.857  1.0402  0.2307 -0.4580
   35DOPE  C317 4509   4.606   3.678  14.985 -0.9089  0.0243 -0.0967
   35DOPE  H17X 4510   4.542   3.687  14.894  1.2910  0.5535 -1.6705
   35DOPE  H17Y 4511   4.578   3.586  15.042  0.9940 -0.0674  0.7691
   35DOPE  C318 4512   4.587   3.811  15.066 -0.2642  0.3079  0.2179
   35DOPE  H18X 4513   4.483   3.809  15.105  0.5546 -1.2396  2.4986
   35DOPE  H18Y 4514   4.651   3.828  15.155 -3.0729 -0.0914  2.4556
   35DOPE  H18Z 4515   4.600   3.902  15.003  1.6428 -0.7678 -1.0166
   36DOPE     N 4516   3.701   5.216  12.640 -0.2639  0.0041  0.1626
   36DOPE   HN1 4517   3.670   5.234  12.542  0.3959  3.6348  0.4724
   36DOPE   HN2 4518   3.804   5.219  12.627 -0.4503 -0.5935 -1.6302
   36DOPE   HN3 4519   3.681   5.115  12.646 -0.7148 -0.0547 -1.6443
   36DOPE   C12 4520   3.667   5.306  12.749 -0.4478 -0.1969  0.7699
   36DOPE  H12A 4521   3.559   5.284  12.767 -0.3587 -0.7305  0.6715
   36DOPE  H12B 4522   3.679   5.414  12.729  0.1541 -0.7010 -1.8678
   36DOPE   C11 4523   3.762   5.278  12.868  0.4136 -0.2256  0.3648
   36DOPE  H11A 4524   3.742   5.337  12.959 -0.4459 -1.3331  0.9111
   36DOPE  H11B 4525   3.861   5.304  12.826 -0.3943  0.2864 -1.3200
   36DOPE     P 4526   3.885   5.066  12.978  0.2533  0.1201  0.0688
   36DOPE   O13 4527   4.006   5.079  12.896  0.4328  0.1798  0.1530
   36DOPE   O14 4528   3.839   4.929  13.003 -0.0560 -0.3976  0.0170
   36DOPE   O11 4529   3.900   5.127  13.123 -0.4605  0.2735 -0.1775
   36DOPE   O12 4530   3.758   5.139  12.908  0.8959 -0.0233  0.1495
   36DOPE    C1 4531   3.804   5.096  13.219 -0.0195  0.7679  0.0333
   36DOPE    HA 4532   3.710   5.053  13.177  2.2119 -3.4274 -1.3038
   36DOPE    HB 4533   3.777   5.191  13.270  0.5946  1.3575 -0.7180
   36DOPE    C2 4534   3.849   4.983  13.323 -0.0849  0.0784 -0.2423
   36DOPE    HS 4535   3.823   4.888  13.271  1.0209 -1.2213  1.4922
   36DOPE   O21 4536   3.781   5.011  13.451 -0.3507 -0.2923  0.1753
   36DOPE   C21 4537   3.658   4.960  13.451 -0.4794 -0.1965  0.6625
   36DOPE   O22 4538   3.598   4.911  13.353 -0.1357  0.3499 -0.4547
   36DOPE   C22 4539   3.612   4.988  13.592  0.2184 -0.3517  0.7200
   36DOPE   H2R 4540   3.501   4.993  13.594  0.2409  0.3595  0.5778
   36DOPE   H2S 4541   3.650   5.089  13.618  1.0528 -0.2827 -0.6710
   36DOPE    C3 4542   4.003   4.982  13.344  0.0531 -0.2432 -0.1508
   36DOPE    HX 4543   4.021   5.058  13.423  0.4049  1.4906 -1.8290
   36DOPE    HY 4544   4.046   5.024  13.251 -0.9866  0.1155 -0.4735
   36DOPE   O31 4545   4.047   4.850  13.376  0.3998  0.2049 -0.0106
   36DOPE   C31 4546   4.168   4.842  13.434 -0.0926  0.8589  0.8759
   36DOPE   O32 4547   4.234   4.939  13.471  0.2010  0.3601 -0.2716
   36DOPE   C32 4548   4.217   4.703  13.417  0.2680  0.3017  0.7621
   36DOPE   H2X 4549   4.133   4.630  13.413 -0.5628  1.3014 -0.7137
   36DOPE   H2Y 4550   4.287   4.692  13.332 -1.0061 -1.4327 -0.1401
   36DOPE   C23 4551   3.673   4.898  13.700 -0.1064 -0.6814 -0.4924
   36DOPE   H3R 4552   3.782   4.910  13.685 -0.1168  0.9174  0.5187
   36DOPE   H3S 4553   3.640   4.795  13.672  2.0697 -2.0590  1.5760
   36DOPE   C24 4554   3.628   4.945  13.848  0.2943 -0.4386 -0.6641
   36DOPE   H4R 4555   3.687   5.037  13.871 -2.1909  0.9616  0.5635
   36DOPE   H4S 4556   3.656   4.862  13.916  2.0805  0.3552 -0.3861
   36DOPE   C25 4557   3.479   4.992  13.850  0.1690  0.8494 -0.8743
   36DOPE   H5R 4558   3.413   4.924  13.793 -0.6369 -0.2820  1.3100
   36DOPE   H5S 4559   3.462   5.088  13.797 -1.6488  0.1132 -1.6832
   36DOPE   C26 4560   3.421   4.994  13.990  0.1577  0.1024 -0.9546
   36DOPE   H6R 4561   3.480   5.069  14.046 -1.2364  2.1849 -2.1346
   36DOPE   H6S 4562   3.414   4.898  14.045 -0.4403  0.3307 -0.6252
   36DOPE   C27 4563   3.272   5.039  13.989 -0.0177  0.5595  0.4220
   36DOPE   H7R 4564   3.205   4.960  13.950  1.3557 -0.2257 -0.4480
   36DOPE   H7S 4565   3.269   5.119  13.913  2.3115 -0.8913 -1.3562
   36DOPE   C28 4566   3.227   5.089  14.126 -0.6335  0.0890  0.7320
   36DOPE   H8R 4567   3.132   5.143  14.109 -0.7167 -0.4240 -0.4841
   36DOPE   H8S 4568   3.308   5.162  14.148 -0.5794  0.5066 -0.7870
   36DOPE   C29 4569   3.216   5.002  14.250  0.3561 -0.2276 -0.0064
   36DOPE   H9R 4570   3.164   4.907  14.229 -2.1275  1.2323 -0.9437
   36DOPE  C210 4571   3.231   5.051  14.382  0.5039  0.0500  0.0995
   36DOPE  H10R 4572   3.217   4.993  14.474 -0.1657  0.2620  0.1374
   36DOPE  C211 4573   3.264   5.198  14.411 -0.4054 -0.2695  0.1644
   36DOPE  H11R 4574   3.207   5.234  14.500 -0.7524  1.6561 -0.7861
   36DOPE  H11S 4575   3.234   5.264  14.327  1.7130 -0.3561 -0.7328
   36DOPE  C212 4576   3.421   5.214  14.421 -0.0767  0.1170 -0.0593
   36DOPE  H12R 4577   3.449   5.320  14.402 -0.7910  0.6395  1.6695
   36DOPE  H12S 4578   3.469   5.151  14.343 -0.4558  1.6189 -1.5858
   36DOPE  C213 4579   3.458   5.180  14.566  0.5815 -0.3884  0.4716
   36DOPE  H13R 4580   3.419   5.080  14.593  1.2894 -0.8097 -0.0590
   36DOPE  H13S 4581   3.410   5.255  14.634  0.5842  0.1101 -0.0717
   36DOPE  C214 4582   3.607   5.174  14.590  0.3597 -0.5634  0.3472
   36DOPE  H14R 4583   3.645   5.277  14.574  1.2664 -1.2699 -2.6665
   36DOPE  H14S 4584   3.657   5.110  14.513  0.3757 -0.3168  0.1531
   36DOPE  C215 4585   3.637   5.111  14.731 -0.2960 -0.3258 -0.0788
   36DOPE  H15R 4586   3.598   5.007  14.725 -0.9734 -0.0215 -1.3940
   36DOPE  H15S 4587   3.573   5.164  14.805 -0.7186 -1.7815  0.6353
   36DOPE  C216 4588   3.783   5.115  14.774  0.1408 -0.0893  0.0771
   36DOPE  H16R 4589   3.791   5.074  14.877  1.1768  1.4323  0.6252
   36DOPE  H16S 4590   3.816   5.220  14.780 -0.4171  0.0330  1.3958
   36DOPE  C217 4591   3.883   5.037  14.682  0.4988  0.1694  0.7764
   36DOPE  H17R 4592   3.875   5.073  14.578  0.7319 -0.5791  0.4911
   36DOPE  H17S 4593   3.851   4.931  14.684  2.8334 -0.6249 -0.3633
   36DOPE  C218 4594   4.027   5.037  14.726  0.2788 -0.2056 -0.3624
   36DOPE  H18R 4595   4.073   4.948  14.680  2.9136 -0.6302  2.7186
   36DOPE  H18S 4596   4.046   5.026  14.835 -0.7322 -1.4921 -0.2961
   36DOPE  H18T 4597   4.082   5.124  14.683 -0.4235 -0.8353 -2.6665
   36DOPE   C33 4598   4.308   4.671  13.539  1.0844  0.4366  0.6335
   36DOPE   H3X 4599   4.390   4.746  13.545  1.4549  0.4992 -3.0434
   36DOPE   H3Y 4600   4.359   4.577  13.509  1.6219  1.0202 -0.3099
   36DOPE   C34 4601   4.240   4.658  13.677  0.0271 -0.4174  0.1353
   36DOPE   H4X 4602   4.196   4.755  13.707 -0.9081 -0.7160 -0.2398
   36DOPE   H4Y 4603   4.160   4.583  13.657  2.9014 -2.9182 -3.4607
   36DOPE   C35 4604   4.335   4.615  13.785  0.1125  0.2104 -0.4043
   36DOPE   H5X 4605   4.438   4.640  13.753  0.8979 -0.2140  1.6235
   36DOPE   H5Y 4606   4.346   4.505  13.783 -0.3272  0.0804  1.7975
   36DOPE   C36 4607   4.304   4.671  13.925 -0.2380 -0.2619 -0.3188
   36DOPE   H6X 4608   4.213   4.636  13.979 -0.5435  3.2909  1.8275
   36DOPE   H6Y 4609   4.298   4.782  13.921 -2.5182 -0.3740 -1.7890
   36DOPE   C37 4610   4.410   4.637  14.026 -0.0468 -0.0738 -0.0245
   36DOPE   H7X 4611   4.412   4.526  14.029  0.4309 -0.1094 -1.4110
   36DOPE   H7Y 4612   4.504   4.685  13.994  0.2978 -0.1922  0.7914
   36DOPE   C38 4613   4.383   4.690  14.168 -0.0206 -0.4038  0.0984
   36DOPE   H8X 4614   4.289   4.654  14.216 -1.6692  2.5086 -0.7052
   36DOPE   H8Y 4615   4.361   4.799  14.167  1.2086 -0.1438  0.3058
   36DOPE   C39 4616   4.505   4.675  14.245  0.2880 -0.6715 -0.9190
   36DOPE   H9X 4617   4.593   4.685  14.180  0.3884  0.2086 -0.6667
   36DOPE  C310 4618   4.522   4.612  14.365 -0.5293 -0.0713 -0.0420
   36DOPE  H10X 4619   4.627   4.602  14.397  0.8105  2.6915 -3.0309
   36DOPE  C311 4620   4.424   4.542  14.444 -0.4546 -0.0495  0.1136
   36DOPE  H11X 4621   4.320   4.572  14.419  0.7351  3.3443 -1.4102
   36DOPE  H11Y 4622   4.434   4.436  14.415  0.0653  0.0499 -0.0979
   36DOPE  C312 4623   4.447   4.544  14.593  0.5118 -0.0529  0.1322
   36DOPE  H12X 4624   4.446   4.645  14.640 -0.4266 -0.0024  0.0308
   36DOPE  H12Y 4625   4.547   4.503  14.619  0.6023 -1.0605 -1.6258
   36DOPE  C313 4626   4.338   4.462  14.671 -0.3884 -0.3827 -0.6318
   36DOPE  H13X 4627   4.331   4.496  14.776  0.2431  1.1321 -1.0368
   36DOPE  H13Y 4628   4.241   4.483  14.620 -1.1024 -2.5532 -0.2532
   36DOPE  C314 4629   4.361   4.311  14.668  0.0566  0.0354  0.3680
   36DOPE  H14X 4630   4.462   4.288  14.710  0.2622 -1.6917 -0.9719
   36DOPE  H14Y 4631   4.359   4.270  14.565 -0.7482  0.2416  0.2969
   36DOPE  C315 4632   4.256   4.241  14.748  0.4520  0.5430 -0.3898
   36DOPE  H15X 4633   4.243   4.135  14.716  0.3212 -0.2484  2.0700
   36DOPE  H15Y 4634   4.160   4.296  14.736  0.5169  1.2897  2.0428
   36DOPE  C316 4635   4.290   4.233  14.900 -0.5064 -0.3085  0.4508
   36DOPE  H16X 4636   4.200   4.202  14.957 -0.0706 -0.2127  1.2008
   36DOPE  H16Y 4637   4.317   4.336  14.932  0.2765 -0.5877  0.7161
   36DOPE  C317 4638   4.406   4.139  14.937 -0.0941  0.3042  1.0001
   36DOPE  H17X 4639   4.388   4.038  14.895 -0.3033 -0.5107  2.9447
   36DOPE  H17Y 4640   4.499   4.178  14.890  0.0518  0.2009  1.1997
   36DOPE  C318 4641   4.425   4.123  15.088 -0.3779  0.1093  0.5098
   36DOPE  H18X 4642   4.405   4.222  15.133 -1.1050  0.3286 -0.2744
   36DOPE  H18Y 4643   4.353   4.050  15.130 -0.9373 -0.1187 -0.8076
   36DOPE  H18Z 4644   4.531   4.092  15.100  0.1683  1.2093 -1.2307
   37DOPE     N 4645   1.061   3.817  12.848 -0.6438 -0.0012  0.1441
   37DOPE   HN1 4646   1.070   3.897  12.913 -1.7390 -0.4136  0.8348
   37DOPE   HN2 4647   1.019   3.849  12.758  1.0359 -0.8345 -1.0002
   37DOPE   HN3 4648   0.990   3.750  12.884 -1.5904  1.2618  0.7103
   37DOPE   C12 4649   1.203   3.768  12.840  0.7077  0.0008 -0.5156
   37DOPE  H12A 4650   1.263   3.850  12.795 -0.6575  0.6344 -1.2417
   37DOPE  H12B 4651   1.204   3.682  12.769 -1.1170 -1.9410  1.6689
   37DOPE   C11 4652   1.257   3.729  12.986 -0.0535  0.2168  0.9423
   37DOPE  H11A 4653   1.271   3.831  13.029  1.6769  0.8402 -0.9475
   37DOPE  H11B 4654   1.351   3.670  12.985  0.8165  1.5442  0.3547
   37DOPE     P 4655   1.163   3.494  13.067 -0.4327  0.1196 -0.2484
   37DOPE   O13 4656   1.193   3.450  12.928 -0.2845  0.1020 -0.3767
   37DOPE   O14 4657   1.037   3.452  13.128 -0.4504 -0.3638  0.0140
   37DOPE   O11 4658   1.283   3.457  13.168 -0.1131 -0.3874 -0.2152
   37DOPE   O12 4659   1.164   3.654  13.067  1.1675 -0.0342  0.1913
   37DOPE    C1 4660   1.309   3.520  13.295 -0.1006 -1.0427  0.8627
   37DOPE    HA 4661   1.245   3.611  13.306 -0.0939 -0.9992  0.5634
   37DOPE    HB 4662   1.415   3.549  13.311 -0.3174 -0.5942  1.5049
   37DOPE    C2 4663   1.262   3.438  13.425  0.0365  0.4068 -0.0248
   37DOPE    HS 4664   1.289   3.333  13.405 -0.8547  0.2337 -0.3416
   37DOPE   O21 4665   1.124   3.449  13.440  0.3502  0.2098  0.2543
   37DOPE   C21 4666   1.068   3.355  13.518  0.3437 -0.1329 -0.4906
   37DOPE   O22 4667   1.120   3.253  13.555  0.1955  0.4838  0.2298
   37DOPE   C22 4668   0.917   3.395  13.549 -0.4850 -0.0686 -0.2147
   37DOPE   H2R 4669   0.864   3.388  13.452 -0.3662  0.5681 -0.3326
   37DOPE   H2S 4670   0.905   3.497  13.591 -2.7539 -0.1311 -0.6218
   37DOPE    C3 4671   1.333   3.495  13.553  0.2834  0.1180  0.1566
   37DOPE    HX 4672   1.310   3.599  13.587  1.4138  0.1110  0.9889
   37DOPE    HY 4673   1.442   3.499  13.533  0.0877  0.6786 -0.9285
   37DOPE   O31 4674   1.310   3.415  13.662  0.1702 -0.0928  0.1985
   37DOPE   C31 4675   1.384   3.297  13.677 -0.5245  0.5781  0.1379
   37DOPE   O32 4676   1.461   3.259  13.589 -0.2999 -0.0653 -0.1220
   37DOPE   C32 4677   1.349   3.237  13.813  0.2642  0.6054 -0.0697
   37DOPE   H2X 4678   1.363   3.310  13.895  0.3860 -0.2835  0.7183
   37DOPE   H2Y 4679   1.245   3.199  13.818  1.0406 -1.4733  1.9625
   37DOPE   C23 4680   0.844   3.291  13.639 -0.9255 -0.0766 -0.3612
   37DOPE   H3R 4681   0.852   3.192  13.591  0.5914  0.0558 -0.4260
   37DOPE   H3S 4682   0.739   3.325  13.647 -0.4195  1.4253  0.3513
   37DOPE   C24 4683   0.910   3.276  13.777  0.2723  1.2792 -0.3716
   37DOPE   H4R 4684   0.925   3.373  13.829 -2.9970  1.6768  0.0158
   37DOPE   H4S 4685   1.010   3.226  13.771 -0.8113 -1.0852  0.1306
   37DOPE   C25 4686   0.834   3.176  13.865  0.6916  0.3114 -0.0266
   37DOPE   H5R 4687   0.816   3.092  13.796  0.2210 -0.1907  0.6888
   37DOPE   H5S 4688   0.732   3.210  13.894  0.0217 -0.3334 -1.5127
   37DOPE   C26 4689   0.905   3.114  13.982 -0.1147  0.3872 -0.1927
   37DOPE   H6R 4690   0.832   3.089  14.061  0.2772 -2.2364 -0.5486
   37DOPE   H6S 4691   0.962   3.196  14.030 -2.1759  0.8432  1.6090
   37DOPE   C27 4692   0.988   2.996  13.947 -0.0049 -0.6502  0.5599
   37DOPE   H7R 4693   1.032   3.021  13.848 -0.3468 -1.5858  0.1596
   37DOPE   H7S 4694   0.930   2.901  13.940  2.6473 -2.5133  2.2070
   37DOPE   C28 4695   1.100   2.969  14.049  0.7802 -0.5583 -0.0290
   37DOPE   H8R 4696   1.076   2.910  14.141  1.5600 -0.3134  0.3388
   37DOPE   H8S 4697   1.142   3.063  14.091  1.9577 -1.8927  1.9810
   37DOPE   C29 4698   1.207   2.879  13.986 -0.0814  0.2171 -0.1155
   37DOPE   H9R 4699   1.185   2.837  13.887  1.1984  1.0862 -0.7894
   37DOPE  C210 4700   1.329   2.860  14.044 -0.2764 -0.0262 -0.4698
   37DOPE  H10R 4701   1.395   2.791  13.990 -0.4222  0.0881 -0.8016
   37DOPE  C211 4702   1.380   2.924  14.177 -0.4202  0.4909  0.7411
   37DOPE  H11R 4703   1.299   2.981  14.228  1.8808  2.4090  2.4726
   37DOPE  H11S 4704   1.452   3.005  14.156 -1.2203  0.6581 -1.5918
   37DOPE  C212 4705   1.448   2.828  14.279  0.0566  0.5304  0.0136
   37DOPE  H12R 4706   1.373   2.752  14.310 -0.4506  1.6023  1.5255
   37DOPE  H12S 4707   1.484   2.884  14.368  1.8387  1.3958 -1.2114
   37DOPE  C213 4708   1.574   2.754  14.228  0.0372 -0.6227  0.0749
   37DOPE  H13R 4709   1.640   2.831  14.184 -0.5969 -0.3476 -0.4095
   37DOPE  H13S 4710   1.538   2.678  14.155  1.2588 -2.7838  1.6084
   37DOPE  C214 4711   1.655   2.687  14.342 -0.2714  0.7439 -0.1318
   37DOPE  H14R 4712   1.579   2.653  14.416 -0.7022  1.5345 -0.2044
   37DOPE  H14S 4713   1.706   2.772  14.392 -0.5495  0.0360  1.4363
   37DOPE  C215 4714   1.765   2.583  14.309 -0.4747  0.0173 -0.3922
   37DOPE  H15R 4715   1.845   2.641  14.259  1.5841 -2.2207  0.1144
   37DOPE  H15S 4716   1.725   2.501  14.246 -0.1635  0.5531 -1.2989
   37DOPE  C216 4717   1.811   2.518  14.440 -0.1290  0.2475  0.4399
   37DOPE  H16R 4718   1.881   2.434  14.420 -0.2484  0.5083 -1.2707
   37DOPE  H16S 4719   1.725   2.467  14.489 -1.1670  0.2982 -1.2312
   37DOPE  C217 4720   1.894   2.619  14.526 -0.0545  0.5587  0.1817
   37DOPE  H17R 4721   1.819   2.695  14.557 -0.6084 -0.0546  0.3678
   37DOPE  H17S 4722   1.969   2.676  14.469 -1.0217  0.6688 -1.0172
   37DOPE  C218 4723   1.959   2.551  14.651 -0.2350 -0.1910 -0.3365
   37DOPE  H18R 4724   1.884   2.528  14.729 -0.4613 -1.2125 -0.8413
   37DOPE  H18S 4725   2.038   2.621  14.686  0.7307 -2.3458  2.0417
   37DOPE  H18T 4726   2.013   2.458  14.622  0.6078 -0.3190  1.5308
   37DOPE   C33 4727   1.439   3.119  13.851  0.8498 -0.0246 -0.9587
   37DOPE   H3X 4728   1.437   3.036  13.777  2.0660  0.1774 -1.2440
   37DOPE   H3Y 4729   1.407   3.078  13.950  0.2383 -0.5618 -1.3737
   37DOPE   C34 4730   1.578   3.164  13.881  0.0158 -0.4641  0.2289
   37DOPE   H4X 4731   1.619   3.225  13.798 -0.6065  1.3981  1.2455
   37DOPE   H4Y 4732   1.585   3.231  13.969  2.7950 -0.6036  0.2002
   37DOPE   C35 4733   1.671   3.054  13.931 -0.4579  0.0949  0.2240
   37DOPE   H5X 4734   1.669   2.973  13.854 -3.8833  0.8072 -0.5963
   37DOPE   H5Y 4735   1.631   3.002  14.021 -1.7580 -1.1993 -1.0438
   37DOPE   C36 4736   1.816   3.080  13.976  0.0605 -0.4171  0.1308
   37DOPE   H6X 4737   1.824   3.123  14.078  0.5420 -3.0497  1.2990
   37DOPE   H6Y 4738   1.862   3.149  13.902  1.2501 -1.2643  0.0493
   37DOPE   C37 4739   1.894   2.951  13.994 -0.2452 -0.2669 -0.5587
   37DOPE   H7X 4740   1.855   2.890  14.078  0.4549  0.9545  0.7025
   37DOPE   H7Y 4741   1.886   2.889  13.902 -1.5037 -0.2699 -0.4743
   37DOPE   C38 4742   2.039   2.983  14.030 -0.3262 -0.4204  0.2751
   37DOPE   H8X 4743   2.087   2.895  14.079  0.6905 -0.3564 -0.5778
   37DOPE   H8Y 4744   2.053   3.069  14.097  0.3616  0.3623 -0.8465
   37DOPE   C39 4745   2.126   3.009  13.911 -0.1209 -0.3538 -0.5271
   37DOPE   H9X 4746   2.074   3.067  13.833  2.4671  0.5835 -1.6616
   37DOPE  C310 4747   2.247   2.956  13.878  0.4318 -0.2655  0.3853
   37DOPE  H10X 4748   2.292   2.990  13.784 -1.0925 -0.2252 -0.3622
   37DOPE  C311 4749   2.337   2.857  13.949  0.0706 -0.5534  0.4205
   37DOPE  H11X 4750   2.279   2.789  14.014  1.1630 -0.7522  1.2166
   37DOPE  H11Y 4751   2.392   2.797  13.873  2.8260 -1.2778  2.8184
   37DOPE  C312 4752   2.440   2.927  14.040 -0.0996 -0.0174  0.3475
   37DOPE  H12X 4753   2.397   2.982  14.127 -1.7884  0.3701 -0.6724
   37DOPE  H12Y 4754   2.493   3.002  13.978  1.2177 -1.1006  0.1081
   37DOPE  C313 4755   2.539   2.820  14.094  0.1956 -0.7873  0.0667
   37DOPE  H13X 4756   2.486   2.738  14.146  0.5871 -0.5624  0.8374
   37DOPE  H13Y 4757   2.579   2.776  13.999 -1.0154 -0.1409 -0.7667
   37DOPE  C314 4758   2.649   2.875  14.181  0.3060 -0.4755 -0.0084
   37DOPE  H14X 4759   2.721   2.946  14.135  1.6926 -0.5491  1.9483
   37DOPE  H14Y 4760   2.724   2.795  14.201 -0.8572 -1.6591 -0.2074
   37DOPE  C315 4761   2.603   2.940  14.310  0.1022  0.9480 -0.9625
   37DOPE  H15X 4762   2.528   3.017  14.283  0.1244  0.9244 -1.0911
   37DOPE  H15Y 4763   2.693   2.989  14.354  0.9058  0.0968 -1.6070
   37DOPE  C316 4764   2.538   2.839  14.408 -0.5256 -0.0618  0.2598
   37DOPE  H16X 4765   2.605   2.754  14.435  0.8848  1.4345  1.7249
   37DOPE  H16Y 4766   2.449   2.788  14.365 -0.2383 -2.4844  2.2764
   37DOPE  C317 4767   2.502   2.908  14.544  0.0734 -0.0668 -0.1373
   37DOPE  H17X 4768   2.595   2.949  14.590 -0.0102  1.9583 -1.5951
   37DOPE  H17Y 4769   2.439   2.995  14.515 -0.1038  0.1963  0.9733
   37DOPE  C318 4770   2.414   2.820  14.636  0.0940 -0.8630  0.5780
   37DOPE  H18X 4771   2.324   2.783  14.582  0.1466 -0.8614  0.4886
   37DOPE  H18Y 4772   2.467   2.727  14.665 -0.7776 -0.9470  1.9746
   37DOPE  H18Z 4773   2.384   2.871  14.730 -2.0485 -1.0667  0.0426
   38DOPE     N 4774   2.943   5.871  13.076  0.0512  0.6556 -0.1535
   38DOPE   HN1 4775   2.903   5.964  13.101 -1.9999 -0.1219 -0.3759
   38DOPE   HN2 4776   3.044   5.882  13.099 -0.2251 -2.5185  3.8198
   38DOPE   HN3 4777   2.939   5.876  12.972 -1.5079  0.9222 -0.1110
   38DOPE   C12 4778   2.865   5.758  13.154 -0.2015 -0.4336  0.0467
   38DOPE  H12A 4779   2.758   5.786  13.150  0.3800  1.8733 -1.3030
   38DOPE  H12B 4780   2.906   5.752  13.257  1.3105  3.1687 -0.1997
   38DOPE   C11 4781   2.895   5.635  13.086  0.1054  0.2344  0.1930
   38DOPE  H11A 4782   2.896   5.646  12.976 -0.7871 -2.3172 -0.1410
   38DOPE  H11B 4783   2.816   5.559  13.102 -1.4577  1.6621 -0.4525
   38DOPE     P 4784   3.053   5.432  13.136  0.3256  0.1097  0.3641
   38DOPE   O13 4785   3.184   5.415  13.069 -0.1921  0.3390 -0.1223
   38DOPE   O14 4786   2.937   5.358  13.070 -0.9679 -0.0256 -0.2964
   38DOPE   O11 4787   3.062   5.378  13.293  0.6168  0.5769  0.7535
   38DOPE   O12 4788   3.017   5.590  13.143  0.1791 -0.4960 -0.2037
   38DOPE    C1 4789   3.004   5.451  13.406  0.0151 -0.5409  0.1123
   38DOPE    HA 4790   2.894   5.438  13.414 -0.5333  1.2373 -2.9598
   38DOPE    HB 4791   3.020   5.560  13.397 -0.6999 -0.4219  0.2410
   38DOPE    C2 4792   3.072   5.398  13.531  0.2797  0.2819  1.0200
   38DOPE    HS 4793   3.183   5.393  13.527  0.1980 -0.7993 -0.3904
   38DOPE   O21 4794   3.018   5.265  13.546  0.3568  0.8322 -0.5476
   38DOPE   C21 4795   3.091   5.181  13.613 -0.6441  0.2556 -0.0888
   38DOPE   O22 4796   3.210   5.197  13.645  0.1489  0.3254  0.4256
   38DOPE   C22 4797   3.014   5.057  13.649  0.2019  0.3012 -0.1762
   38DOPE   H2R 4798   2.928   5.047  13.580 -0.9443  2.4533  0.8358
   38DOPE   H2S 4799   2.964   5.086  13.744  2.3378 -0.3392  1.2069
   38DOPE    C3 4800   3.044   5.486  13.658  0.1020 -0.0742  0.0795
   38DOPE    HX 4801   2.945   5.533  13.673 -1.0753 -2.4118  0.0889
   38DOPE    HY 4802   3.122   5.565  13.654  1.1955 -0.8975  2.7680
   38DOPE   O31 4803   3.068   5.411  13.777 -0.0484 -0.0828 -0.1111
   38DOPE   C31 4804   3.096   5.491  13.883 -0.2413 -0.1924  0.3422
   38DOPE   O32 4805   3.087   5.613  13.884  0.2110 -0.0075  0.2189
   38DOPE   C32 4806   3.156   5.400  13.994 -1.0288 -0.1418  0.0207
   38DOPE   H2X 4807   3.078   5.388  14.072 -1.3714  0.7859 -0.1761
   38DOPE   H2Y 4808   3.175   5.302  13.945 -0.8421 -0.4012  0.5989
   38DOPE   C23 4809   3.087   4.920  13.666 -0.2035 -0.1610  0.4583
   38DOPE   H3R 4810   3.145   4.935  13.759  0.5217 -0.2816  0.0364
   38DOPE   H3S 4811   3.166   4.897  13.591 -0.2819 -0.2912  0.4171
   38DOPE   C24 4812   2.996   4.797  13.675  0.1803  0.7102  0.0608
   38DOPE   H4R 4813   3.059   4.706  13.685 -1.6457 -0.5392  0.4875
   38DOPE   H4S 4814   2.953   4.790  13.573  2.5278  1.4756 -1.0649
   38DOPE   C25 4815   2.882   4.791  13.783  0.5376  0.3805 -0.1453
   38DOPE   H5R 4816   2.835   4.690  13.781  0.3956  0.4003  1.4213
   38DOPE   H5S 4817   2.803   4.866  13.762  1.0122  0.9061 -0.0594
   38DOPE   C26 4818   2.938   4.808  13.920  0.0693  0.0812 -0.1192
   38DOPE   H6R 4819   2.961   4.917  13.925  1.4287 -0.2538  1.6240
   38DOPE   H6S 4820   3.025   4.743  13.942 -0.9895 -1.2600  0.2060
   38DOPE   C27 4821   2.837   4.777  14.034  0.8310  0.0867  0.1182
   38DOPE   H7R 4822   2.793   4.677  14.013  0.8242 -0.3217  1.9351
   38DOPE   H7S 4823   2.749   4.844  14.022  0.5288 -0.3978 -0.3888
   38DOPE   C28 4824   2.890   4.786  14.177  0.4588 -0.1675 -0.0753
   38DOPE   H8R 4825   2.935   4.887  14.188 -0.5541  0.2028  0.8440
   38DOPE   H8S 4826   2.974   4.713  14.183  0.7529 -0.0729 -2.1544
   38DOPE   C29 4827   2.778   4.779  14.276 -0.0214  0.5770  0.8102
   38DOPE   H9R 4828   2.697   4.854  14.270 -1.2479 -0.7830 -0.1833
   38DOPE  C210 4829   2.770   4.701  14.389 -1.0411  0.0233  0.8047
   38DOPE  H10R 4830   2.677   4.700  14.448 -1.6242  1.5622 -0.0426
   38DOPE  C211 4831   2.874   4.595  14.423  0.3007 -0.0019  0.2706
   38DOPE  H11R 4832   2.935   4.555  14.338  1.0810  0.0387  0.8035
   38DOPE  H11S 4833   2.820   4.508  14.465  1.4269 -0.5619  0.6045
   38DOPE  C212 4834   2.977   4.654  14.525  0.4762 -0.3280 -0.2411
   38DOPE  H12R 4835   3.031   4.740  14.480 -1.8220  0.9359 -0.7344
   38DOPE  H12S 4836   3.047   4.570  14.545 -1.1852 -1.9028 -0.7407
   38DOPE  C213 4837   2.910   4.688  14.657 -0.2576 -0.0930 -0.0896
   38DOPE  H13R 4838   2.833   4.614  14.686 -1.2971  1.0667  0.1703
   38DOPE  H13S 4839   2.856   4.784  14.653  0.3318  0.2464 -0.1171
   38DOPE  C214 4840   3.001   4.695  14.789  0.0743 -0.0071  0.2824
   38DOPE  H14R 4841   3.078   4.771  14.765  1.1952 -1.5840 -1.4585
   38DOPE  H14S 4842   3.054   4.600  14.812 -1.3337 -1.5221 -2.2276
   38DOPE  C215 4843   2.921   4.764  14.904 -0.4638  0.2308  0.0307
   38DOPE  H15R 4844   2.842   4.697  14.945  0.5155 -1.7952 -1.1921
   38DOPE  H15S 4845   2.869   4.857  14.874 -1.7994 -0.5600 -0.2129
   38DOPE  C216 4846   3.023   4.816  15.006  0.0124  0.2437 -0.0039
   38DOPE  H16R 4847   2.977   4.876  15.088 -0.5237  1.1148 -0.9170
   38DOPE  H16S 4848   3.087   4.888  14.950  2.4281 -1.5807  0.2586
   38DOPE  C217 4849   3.118   4.725  15.077  0.3826  0.2290  0.5057
   38DOPE  H17R 4850   3.185   4.783  15.145 -0.7957  1.2797  0.8033
   38DOPE  H17S 4851   3.187   4.678  15.004 -0.9512  0.5741 -1.0227
   38DOPE  C218 4852   3.049   4.601  15.147 -0.0746  0.7136 -0.0505
   38DOPE  H18R 4853   2.976   4.628  15.226 -0.1416  3.9679 -1.0755
   38DOPE  H18S 4854   3.119   4.525  15.188 -0.0642  0.6010 -0.2740
   38DOPE  H18T 4855   2.985   4.537  15.082  0.1299 -0.4075  0.8227
   38DOPE   C33 4856   3.275   5.467  14.061 -1.1260 -0.5634  0.6142
   38DOPE   H3X 4857   3.287   5.421  14.161  0.5548 -1.2368  0.1362
   38DOPE   H3Y 4858   3.246   5.573  14.081  1.1465  0.0954  0.6880
   38DOPE   C34 4859   3.413   5.456  13.992  0.0952  0.3441  0.1170
   38DOPE   H4X 4860   3.409   5.351  13.957 -2.0812 -0.3700  2.2464
   38DOPE   H4Y 4861   3.412   5.523  13.903 -1.0655 -1.1741 -1.0659
   38DOPE   C35 4862   3.535   5.473  14.087 -0.1500 -0.0811  0.8538
   38DOPE   H5X 4863   3.501   5.434  14.185 -0.4478 -0.9444  0.4122
   38DOPE   H5Y 4864   3.552   5.583  14.094  1.0014 -0.2722  1.2896
   38DOPE   C36 4865   3.667   5.408  14.031  0.5192 -0.2972  0.6826
   38DOPE   H6X 4866   3.701   5.460  13.939 -0.7518 -1.8254 -0.7267
   38DOPE   H6Y 4867   3.641   5.306  13.995 -0.1554 -0.2348  0.9779
   38DOPE   C37 4868   3.780   5.387  14.139  0.6599 -0.3852 -0.6874
   38DOPE   H7X 4869   3.869   5.350  14.083  0.6813 -1.3894 -0.0269
   38DOPE   H7Y 4870   3.806   5.478  14.196 -0.2304 -0.8784  0.5613
   38DOPE   C38 4871   3.762   5.273  14.238  0.2499 -0.0351 -0.6065
   38DOPE   H8X 4872   3.714   5.192  14.179 -1.2680 -0.0272  0.5518
   38DOPE   H8Y 4873   3.693   5.312  14.315  1.2490  0.8484 -0.1385
   38DOPE   C39 4874   3.881   5.214  14.311 -0.3712  0.5213 -0.7513
   38DOPE   H9X 4875   3.927   5.274  14.391  0.8867 -1.2570 -0.0540
   38DOPE  C310 4876   3.947   5.094  14.278  0.0708 -0.1663 -0.2703
   38DOPE  H10X 4877   4.024   5.070  14.353 -2.2735  1.2672  2.8695
   38DOPE  C311 4878   3.916   4.994  14.167 -0.6256  0.3152  0.7689
   38DOPE  H11X 4879   3.861   5.042  14.083  0.3597 -0.3172 -0.2665
   38DOPE  H11Y 4880   4.007   4.970  14.108  0.9528  2.4329  2.1864
   38DOPE  C312 4881   3.846   4.869  14.218  0.1638  0.1163  0.5842
   38DOPE  H12X 4882   3.910   4.804  14.281  0.0516  1.3687  2.0598
   38DOPE  H12Y 4883   3.821   4.809  14.128  0.2574  3.2249 -1.6574
   38DOPE  C313 4884   3.711   4.889  14.292  0.1141  0.0607 -0.5522
   38DOPE  H13X 4885   3.722   4.955  14.380 -1.0142  1.0013 -1.0929
   38DOPE  H13Y 4886   3.634   4.939  14.230 -1.8839  0.3684  1.9893
   38DOPE  C314 4887   3.653   4.756  14.329  0.5631  0.2347 -0.0476
   38DOPE  H14X 4888   3.737   4.699  14.374 -0.1793 -1.8709 -1.1768
   38DOPE  H14Y 4889   3.614   4.712  14.235  0.1537 -0.0506  0.2539
   38DOPE  C315 4890   3.531   4.774  14.420  0.2886 -0.6857  0.0783
   38DOPE  H15X 4891   3.444   4.708  14.397  0.9670 -2.7062  2.7863
   38DOPE  H15Y 4892   3.490   4.873  14.392  2.6433  0.1856 -0.4651
   38DOPE  C316 4893   3.556   4.764  14.578 -0.7100  0.5697 -0.0748
   38DOPE  H16X 4894   3.600   4.862  14.605 -1.8797  1.1003 -0.0524
   38DOPE  H16Y 4895   3.626   4.680  14.600  1.7068  2.4007 -0.2935
   38DOPE  C317 4896   3.434   4.756  14.662  0.3460  0.7773  0.2380
   38DOPE  H17X 4897   3.349   4.817  14.625 -0.2050 -0.5820 -0.8478
   38DOPE  H17Y 4898   3.403   4.651  14.643  2.2167 -0.1665  1.9921
   38DOPE  C318 4899   3.450   4.765  14.814  0.2079  0.0365 -0.0527
   38DOPE  H18X 4900   3.497   4.863  14.838  0.6756  0.3402 -1.9997
   38DOPE  H18Y 4901   3.347   4.765  14.855 -0.4452 -0.6607 -1.6209
   38DOPE  H18Z 4902   3.521   4.684  14.842 -0.3849 -0.7068 -0.6226
   39DOPE     N 4903   0.538   3.517  12.732 -0.0811  0.0047  0.1493
   39DOPE   HN1 4904   0.637   3.521  12.764 -0.0674 -0.1673  0.1286
   39DOPE   HN2 4905   0.539   3.540  12.631  2.2364  0.9596  0.3254
   39DOPE   HN3 4906   0.470   3.571  12.788 -1.5518 -1.1005 -0.5084
   39DOPE   C12 4907   0.487   3.369  12.732 -0.2916 -0.5181 -0.0940
   39DOPE  H12A 4908   0.577   3.308  12.709  1.1855  0.7879  1.8950
   39DOPE  H12B 4909   0.402   3.352  12.663 -1.1058  0.0873  0.7513
   39DOPE   C11 4910   0.446   3.339  12.874 -0.1555  0.6736  0.2890
   39DOPE  H11A 4911   0.529   3.335  12.948 -0.9994 -0.0194  1.2436
   39DOPE  H11B 4912   0.418   3.232  12.877 -0.8718  0.8457 -0.0643
   39DOPE     P 4913   0.325   3.553  12.997  0.2075  0.6577  0.1622
   39DOPE   O13 4914   0.194   3.555  13.058  0.3332  0.4195 -0.1753
   39DOPE   O14 4915   0.355   3.657  12.894  0.1266 -0.2777  0.4050
   39DOPE   O11 4916   0.436   3.546  13.112 -0.0722 -0.2793 -0.4182
   39DOPE   O12 4917   0.336   3.414  12.924  0.1990  0.2765  0.1830
   39DOPE    C1 4918   0.462   3.432  13.184 -1.0348  0.7592 -0.1420
   39DOPE    HA 4919   0.569   3.407  13.166 -1.4117 -2.4142  1.3243
   39DOPE    HB 4920   0.402   3.342  13.162  2.0290 -1.6951  0.8711
   39DOPE    C2 4921   0.435   3.455  13.339  1.0193 -0.3726  0.2443
   39DOPE    HS 4922   0.328   3.473  13.360  1.0149  0.8008 -0.6941
   39DOPE   O21 4923   0.512   3.569  13.384  0.0872  0.4729  0.1234
   39DOPE   C21 4924   0.476   3.651  13.488 -0.2234 -0.2457  0.0173
   39DOPE   O22 4925   0.367   3.648  13.545  0.1927 -0.2927  0.1807
   39DOPE   C22 4926   0.592   3.751  13.518  0.4024 -0.1834  0.2386
   39DOPE   H2R 4927   0.578   3.848  13.465  1.7294 -1.6283 -3.0023
   39DOPE   H2S 4928   0.682   3.701  13.478  2.0769  1.2954  1.9458
   39DOPE    C3 4929   0.480   3.327  13.415 -0.1595  0.4077 -0.5650
   39DOPE    HX 4930   0.591   3.322  13.411 -0.1401 -1.9935  0.8369
   39DOPE    HY 4931   0.441   3.239  13.359  0.1258 -1.0991  1.4603
   39DOPE   O31 4932   0.415   3.329  13.551 -0.6091 -0.0569 -0.7611
   39DOPE   C31 4933   0.439   3.225  13.623 -0.2418 -0.5961 -0.9139
   39DOPE   O32 4934   0.500   3.128  13.583  0.2291 -0.5733  0.5601
   39DOPE   C32 4935   0.385   3.236  13.769 -0.8609 -0.6408 -0.3556
   39DOPE   H2X 4936   0.275   3.241  13.757 -0.6982 -1.2486 -2.5562
   39DOPE   H2Y 4937   0.426   3.146  13.821 -0.7044  1.7940  4.3127
   39DOPE   C23 4938   0.612   3.775  13.672  0.2961  0.0296  0.1085
   39DOPE   H3R 4939   0.517   3.793  13.726 -0.0691 -0.1438 -0.4687
   39DOPE   H3S 4940   0.674   3.867  13.676  1.5223 -0.7761  0.1974
   39DOPE   C24 4941   0.690   3.662  13.743  0.2067 -0.5273 -0.3798
   39DOPE   H4R 4942   0.790   3.655  13.696 -1.1624 -1.9704 -3.3220
   39DOPE   H4S 4943   0.645   3.563  13.720 -0.0517  0.0099 -2.3193
   39DOPE   C25 4944   0.704   3.689  13.897 -0.2007 -0.4811 -0.5467
   39DOPE   H5R 4945   0.606   3.683  13.950  1.7037  0.9879  3.5733
   39DOPE   H5S 4946   0.751   3.789  13.910 -1.3794  0.0912 -0.5488
   39DOPE   C26 4947   0.790   3.577  13.959  0.4496 -0.4133 -0.4978
   39DOPE   H6R 4948   0.899   3.599  13.952  0.2251  0.9991  0.1323
   39DOPE   H6S 4949   0.764   3.480  13.911 -1.5617  1.0265 -2.5183
   39DOPE   C27 4950   0.781   3.564  14.109  0.3625  0.3790  0.6686
   39DOPE   H7R 4951   0.675   3.550  14.139 -0.0172  0.7248 -0.4556
   39DOPE   H7S 4952   0.818   3.658  14.153  1.4190  0.8741 -1.1438
   39DOPE   C28 4953   0.857   3.434  14.159  0.7827  0.1668  0.1189
   39DOPE   H8R 4954   0.954   3.443  14.105  0.3898  1.1962 -0.4315
   39DOPE   H8S 4955   0.805   3.347  14.112 -1.0822  1.2675  0.0578
   39DOPE   C29 4956   0.867   3.409  14.306 -0.8573  0.4606 -0.4449
   39DOPE   H9R 4957   0.791   3.348  14.357 -0.0052 -0.7577 -0.5814
   39DOPE  C210 4958   0.966   3.461  14.379  0.6088 -0.1600 -0.4003
   39DOPE  H10R 4959   0.974   3.441  14.487 -2.0823 -0.8666 -0.2472
   39DOPE  C211 4960   1.069   3.553  14.319 -0.2492 -0.8399  0.1466
   39DOPE  H11R 4961   1.090   3.629  14.398 -1.0377 -1.0367  0.5559
   39DOPE  H11S 4962   1.018   3.618  14.245 -2.8598  0.6726  3.0038
   39DOPE  C212 4963   1.187   3.474  14.279 -0.3911 -0.0252  0.1525
   39DOPE  H12R 4964   1.277   3.528  14.242  0.0908  0.6404  2.1555
   39DOPE  H12S 4965   1.151   3.409  14.197 -1.2316 -1.4409  1.5825
   39DOPE  C213 4966   1.250   3.384  14.389  0.5911 -0.4654  0.3429
   39DOPE  H13R 4967   1.173   3.319  14.436 -0.7429  1.1530  0.5088
   39DOPE  H13S 4968   1.275   3.449  14.475 -1.5666 -0.8529  1.3410
   39DOPE  C214 4969   1.371   3.295  14.345  0.1147 -0.2855 -0.1009
   39DOPE  H14R 4970   1.419   3.336  14.253  0.1097 -2.4746 -1.1385
   39DOPE  H14S 4971   1.321   3.204  14.305  0.5128  0.6395 -2.9517
   39DOPE  C215 4972   1.472   3.263  14.458  0.2864 -0.5894  0.0589
   39DOPE  H15R 4973   1.427   3.184  14.523 -1.7233 -0.2313 -0.8419
   39DOPE  H15S 4974   1.491   3.352  14.521 -1.3968 -1.9518  2.6959
   39DOPE  C216 4975   1.606   3.205  14.409 -0.2836  0.0389  0.6942
   39DOPE  H16R 4976   1.660   3.279  14.346 -0.1396  0.1427  0.9378
   39DOPE  H16S 4977   1.592   3.115  14.345 -0.0905  1.9417 -2.2436
   39DOPE  C217 4978   1.712   3.163  14.523  0.2771  0.3077  0.5321
   39DOPE  H17R 4979   1.714   3.249  14.593  0.7396 -0.3342  1.3285
   39DOPE  H17S 4980   1.811   3.139  14.480 -0.0445  0.8852 -0.5642
   39DOPE  C218 4981   1.666   3.033  14.593 -0.0783  0.1291 -0.0155
   39DOPE  H18R 4982   1.657   2.949  14.521  3.2263  0.5744 -1.1475
   39DOPE  H18S 4983   1.564   3.041  14.635  0.0953  0.8643  0.3030
   39DOPE  H18T 4984   1.739   3.003  14.671  0.4628 -0.3374 -0.6926
   39DOPE   C33 4985   0.429   3.368  13.844 -0.0778 -0.5638 -0.4625
   39DOPE   H3X 4986   0.372   3.450  13.795 -0.9193 -0.5685  0.4696
   39DOPE   H3Y 4987   0.537   3.393  13.841 -0.5891  1.8060 -2.0280
   39DOPE   C34 4988   0.388   3.370  13.995  0.4551 -1.0199  0.4078
   39DOPE   H4X 4989   0.416   3.469  14.036 -1.5288 -0.7460  1.2172
   39DOPE   H4Y 4990   0.277   3.366  14.002  0.4695 -0.3763  1.1093
   39DOPE   C35 4991   0.463   3.274  14.086  0.3429  0.1323 -0.0486
   39DOPE   H5X 4992   0.569   3.306  14.081 -0.6067  3.9928  1.2046
   39DOPE   H5Y 4993   0.442   3.171  14.049  1.1936 -0.0876  0.0676
   39DOPE   C36 4994   0.421   3.298  14.234 -0.1811  0.3384  0.3422
   39DOPE   H6X 4995   0.313   3.278  14.248  0.1494 -0.3175  2.3008
   39DOPE   H6Y 4996   0.458   3.395  14.274 -0.1989 -0.6031  2.7985
   39DOPE   C37 4997   0.490   3.199  14.333 -0.4287 -0.1084 -0.2943
   39DOPE   H7X 4998   0.444   3.099  14.319 -2.7583  0.6379  1.4351
   39DOPE   H7Y 4999   0.599   3.200  14.310 -0.6153 -1.5120 -1.3959
   39DOPE   C38 5000   0.465   3.233  14.480 -0.3625  0.1881  0.6897
   39DOPE   H8X 5001   0.530   3.163  14.537  1.3667  1.3902  0.3048
   39DOPE   H8Y 5002   0.360   3.220  14.513 -0.6157  1.4316  0.4446
   39DOPE   C39 5003   0.531   3.368  14.516  0.1491 -0.2619  0.0294
   39DOPE   H9X 5004   0.636   3.386  14.488 -0.2576  1.0153 -0.7337
   39DOPE  C310 5005   0.467   3.472  14.578  0.0322  0.0482  0.2993
   39DOPE  H10X 5006   0.526   3.561  14.601  0.9987 -0.5535  0.1998
   39DOPE  C311 5007   0.328   3.478  14.627  0.5420 -0.2638 -0.4466
   39DOPE  H11X 5008   0.270   3.541  14.556  0.9835 -1.0820 -1.5610
   39DOPE  H11Y 5009   0.275   3.380  14.627  0.5177 -0.3068  1.8646
   39DOPE  C312 5010   0.313   3.534  14.767  0.2643 -0.2436 -0.3333
   39DOPE  H12X 5011   0.370   3.629  14.775 -0.4234  0.0264  3.4861
   39DOPE  H12Y 5012   0.367   3.467  14.838  3.1122  3.5687  1.5248
   39DOPE  C313 5013   0.167   3.561  14.819 -0.9140  0.8428  0.0677
   39DOPE  H13X 5014   0.110   3.620  14.743 -2.8937 -0.8539  0.1536
   39DOPE  H13Y 5015   0.123   3.461  14.833 -0.6018  0.6351 -0.4102
   39DOPE  C314 5016   0.178   3.632  14.956 -0.6263 -0.0653  0.1280
   39DOPE  H14X 5017   0.223   3.731  14.931  0.8365 -1.0601 -1.4057
   39DOPE  H14Y 5018   0.243   3.563  15.013 -0.2870 -0.5439 -0.8088
   39DOPE  C315 5019   0.044   3.644  15.032  0.0222  0.6491 -0.3508
   39DOPE  H15X 5020   0.059   3.700  15.127  0.1702  1.0102 -0.5877
   39DOPE  H15Y 5021   0.001   3.545  15.057 -0.2327  0.8965  0.2040
   39DOPE  C316 5022  -0.058   3.730  14.952  0.5553  0.0023  0.3281
   39DOPE  H16X 5023  -0.096   3.669  14.867  0.6491  1.9234 -1.1639
   39DOPE  H16Y 5024  -0.009   3.824  14.918  2.3618 -1.3175 -0.8739
   39DOPE  C317 5025  -0.185   3.764  15.033  0.1265 -0.0413  1.0291
   39DOPE  H17X 5026  -0.146   3.778  15.137  0.0628 -0.3976  1.1031
   39DOPE  H17Y 5027  -0.240   3.853  14.997  0.8796 -0.2688 -0.7610
   39DOPE  C318 5028  -0.293   3.655  15.029 -0.2718 -0.0579  0.3267
   39DOPE  H18X 5029  -0.333   3.654  14.925 -2.5276  1.3055  1.1065
   39DOPE  H18Y 5030  -0.257   3.554  15.055  0.3384  0.1444  0.2819
   39DOPE  H18Z 5031  -0.379   3.679  15.096 -0.9059 -1.9899  0.2456
   40DOPE     N 5032   3.577   6.976  12.989  0.4452  0.0112  0.0042
   40DOPE   HN1 5033   3.491   6.924  12.962  0.4920  0.6407 -1.4642
   40DOPE   HN2 5034   3.614   6.941  13.080 -1.8662 -1.4497  0.4714
   40DOPE   HN3 5035   3.554   7.077  13.002 -1.9487 -0.7861  3.5391
   40DOPE   C12 5036   3.691   6.955  12.883 -0.5473  0.2307  0.0450
   40DOPE  H12A 5037   3.773   7.029  12.896 -0.1312 -0.0409 -0.9476
   40DOPE  H12B 5038   3.648   6.967  12.782  1.9022  0.3590 -1.0616
   40DOPE   C11 5039   3.746   6.802  12.873 -0.1957 -0.8255 -0.1808
   40DOPE  H11A 5040   3.821   6.789  12.791  0.6862 -0.7179  0.5903
   40DOPE  H11B 5041   3.656   6.749  12.836 -0.3509 -0.8188  0.1806
   40DOPE     P 5042   3.813   6.597  13.019 -0.1206 -0.1775  0.0206
   40DOPE   O13 5043   3.947   6.572  13.083  0.2064  0.0264  0.9909
   40DOPE   O14 5044   3.781   6.524  12.888  0.1319  0.1222  0.0232
   40DOPE   O11 5045   3.689   6.558  13.108 -0.4833 -0.3985 -0.5007
   40DOPE   O12 5046   3.797   6.752  12.999 -0.1446 -0.1450 -0.2898
   40DOPE    C1 5047   3.554   6.600  13.078  0.2576  0.0262  0.4642
   40DOPE    HA 5048   3.498   6.527  13.017 -1.4152  1.0175  0.7595
   40DOPE    HB 5049   3.544   6.687  13.010 -0.2783  1.2661  2.0511
   40DOPE    C2 5050   3.470   6.630  13.206  0.3876 -0.7814  0.8134
   40DOPE    HS 5051   3.406   6.717  13.182 -0.1366 -0.6212  2.6287
   40DOPE   O21 5052   3.547   6.658  13.326  0.2339  0.2055  0.4412
   40DOPE   C21 5053   3.625   6.768  13.330 -0.6038 -0.0175  0.0362
   40DOPE   O22 5054   3.627   6.852  13.244  0.2080 -0.4931  0.5336
   40DOPE   C22 5055   3.671   6.790  13.473 -0.2694  0.5860  0.0091
   40DOPE   H2R 5056   3.765   6.849  13.463  0.0084  0.4041  1.3529
   40DOPE   H2S 5057   3.685   6.689  13.517 -0.9187  0.5895  0.2323
   40DOPE    C3 5058   3.367   6.515  13.235  0.5840 -0.0323  0.2077
   40DOPE    HX 5059   3.410   6.413  13.224  0.3377 -0.1127 -0.0271
   40DOPE    HY 5060   3.291   6.522  13.154 -0.2439  1.1896  1.0683
   40DOPE   O31 5061   3.297   6.538  13.354  0.0581 -0.2325  0.0099
   40DOPE   C31 5062   3.347   6.473  13.456  0.1527  0.1493 -0.1956
   40DOPE   O32 5063   3.433   6.389  13.464 -0.2649  0.0099 -0.6572
   40DOPE   C32 5064   3.278   6.520  13.581  0.2476  0.2327  0.5952
   40DOPE   H2X 5065   3.271   6.631  13.589  0.9142  0.3925 -0.8564
   40DOPE   H2Y 5066   3.179   6.469  13.575  1.6685 -2.4636 -2.8229
   40DOPE   C23 5067   3.570   6.870  13.554  0.0224  0.2675 -0.2440
   40DOPE   H3R 5068   3.477   6.812  13.573 -0.3268  1.1773  0.8925
   40DOPE   H3S 5069   3.543   6.964  13.500  0.8658 -0.3622 -1.8343
   40DOPE   C24 5070   3.625   6.897  13.695 -0.0542  0.7198 -0.0075
   40DOPE   H4R 5071   3.639   6.805  13.756  0.2771  0.2223 -0.8209
   40DOPE   H4S 5072   3.551   6.960  13.749 -0.3351  2.9760 -2.7436
   40DOPE   C25 5073   3.752   6.979  13.701 -0.2049  0.0261  0.5754
   40DOPE   H5R 5074   3.719   7.085  13.691 -0.1613  0.3114  2.8507
   40DOPE   H5S 5075   3.822   6.969  13.616 -0.9435  0.8597 -0.1625
   40DOPE   C26 5076   3.818   6.952  13.838 -0.0821  0.1046  0.4232
   40DOPE   H6R 5077   3.864   6.851  13.831  1.5093  0.7327  1.3202
   40DOPE   H6S 5078   3.749   6.957  13.924 -1.3084 -1.6294 -0.3987
   40DOPE   C27 5079   3.936   7.047  13.868  0.7394 -0.4074  0.2417
   40DOPE   H7R 5080   3.892   7.144  13.835  0.6277 -1.1203 -1.8800
   40DOPE   H7S 5081   4.018   7.024  13.797  1.6948  0.2999  1.0814
   40DOPE   C28 5082   3.983   7.044  14.009  0.2734  0.3708 -0.0831
   40DOPE   H8R 5083   4.089   7.074  14.023 -0.0198  1.6140 -0.4196
   40DOPE   H8S 5084   3.979   6.936  14.035  0.7064  0.6524  1.2133
   40DOPE   C29 5085   3.904   7.117  14.112  0.0871  0.4303 -0.7328
   40DOPE   H9R 5086   3.834   7.190  14.069  1.0319  0.1797 -2.7876
   40DOPE  C210 5087   3.927   7.116  14.245  0.4770  0.9667 -0.0828
   40DOPE  H10R 5088   3.855   7.170  14.308  0.3984  1.4798 -0.6074
   40DOPE  C211 5089   4.034   7.039  14.323  0.0861 -0.8814  0.0429
   40DOPE  H11R 5090   4.087   6.964  14.262  0.7553  0.7189 -1.4191
   40DOPE  H11S 5091   3.999   6.985  14.414  0.1432 -2.6641 -0.9664
   40DOPE  C212 5092   4.139   7.152  14.377 -0.4480  0.3447  0.4063
   40DOPE  H12R 5093   4.097   7.218  14.455  0.1788  1.7427 -0.4056
   40DOPE  H12S 5094   4.158   7.208  14.283 -3.2441  0.9600  0.1407
   40DOPE  C213 5095   4.266   7.090  14.436 -0.2006 -0.1066 -0.7625
   40DOPE  H13R 5096   4.342   7.165  14.467  0.6457 -1.7353  1.3740
   40DOPE  H13S 5097   4.308   7.025  14.356 -1.8825 -2.1793 -0.0457
   40DOPE  C214 5098   4.235   7.007  14.556 -0.0144  0.2777 -0.1552
   40DOPE  H14R 5099   4.165   6.926  14.525 -0.0204 -0.1217  0.8563
   40DOPE  H14S 5100   4.181   7.073  14.628  2.6767 -0.5193  2.8247
   40DOPE  C215 5101   4.365   6.948  14.609 -0.4464  0.6034  0.4922
   40DOPE  H15R 5102   4.450   7.019  14.604  1.1111 -1.2220 -1.0325
   40DOPE  H15S 5103   4.398   6.863  14.545 -2.2737  0.3127 -0.1420
   40DOPE  C216 5104   4.342   6.873  14.743  0.5669  0.0496  0.0617
   40DOPE  H16R 5105   4.295   6.774  14.724 -1.7273  0.8824  1.0146
   40DOPE  H16S 5106   4.281   6.929  14.818  1.1792 -0.3657  0.8848
   40DOPE  C217 5107   4.467   6.852  14.829  0.1130  0.2185 -0.1131
   40DOPE  H17R 5108   4.524   6.946  14.843 -1.1169  1.0386 -0.4561
   40DOPE  H17S 5109   4.524   6.792  14.756 -2.6195 -1.2243 -1.2240
   40DOPE  C218 5110   4.443   6.773  14.961  0.5940  0.0068 -0.3614
   40DOPE  H18R 5111   4.396   6.676  14.932  1.3577 -0.8059  0.9935
   40DOPE  H18S 5112   4.371   6.835  15.019  1.2566 -0.8412  1.4434
   40DOPE  H18T 5113   4.539   6.752  15.012  0.9007  0.5665 -0.7083
   40DOPE   C33 5114   3.363   6.467  13.704  0.4888  0.3856  0.0100
   40DOPE   H3X 5115   3.463   6.514  13.706  2.4131 -3.3771  0.6513
   40DOPE   H3Y 5116   3.378   6.358  13.692 -1.3189  0.1698 -0.6920
   40DOPE   C34 5117   3.298   6.488  13.844 -0.6759  0.3236  0.8392
   40DOPE   H4X 5118   3.286   6.595  13.871  0.3931  1.0725 -1.4361
   40DOPE   H4Y 5119   3.195   6.446  13.845 -0.0856 -1.1650  1.5549
   40DOPE   C35 5120   3.365   6.410  13.958  0.3116 -0.9213 -0.2431
   40DOPE   H5X 5121   3.475   6.425  13.950  0.1133  2.1405  1.4705
   40DOPE   H5Y 5122   3.342   6.302  13.946 -0.6271 -0.7464 -0.0684
   40DOPE   C36 5123   3.315   6.455  14.099  1.0635 -0.7450 -0.3573
   40DOPE   H6X 5124   3.207   6.434  14.116  1.5307 -2.0332  1.1957
   40DOPE   H6Y 5125   3.338   6.563  14.116 -0.4100 -0.3033 -1.0282
   40DOPE   C37 5126   3.387   6.384  14.214  0.0484  0.1143 -0.2871
   40DOPE   H7X 5127   3.383   6.276  14.189 -1.3435  0.5551 -2.1617
   40DOPE   H7Y 5128   3.494   6.409  14.229 -0.3053  2.2363 -1.0062
   40DOPE   C38 5129   3.320   6.406  14.348 -0.0948  0.0437 -0.1091
   40DOPE   H8X 5130   3.308   6.516  14.339 -2.8375 -0.2746 -1.4079
   40DOPE   H8Y 5131   3.389   6.366  14.425  0.8886 -0.8628 -1.4174
   40DOPE   C39 5132   3.179   6.364  14.365  0.3824  0.2584 -0.1406
   40DOPE   H9X 5133   3.135   6.311  14.280  2.1192 -0.1158 -0.8549
   40DOPE  C310 5134   3.102   6.378  14.482  0.3663  0.0202  1.1315
   40DOPE  H10X 5135   3.013   6.313  14.480 -0.7041  1.2772  3.6876
   40DOPE  C311 5136   3.131   6.440  14.612 -0.9678  0.5796  0.0786
   40DOPE  H11X 5137   3.218   6.507  14.596 -0.5114  0.1268  0.6395
   40DOPE  H11Y 5138   3.058   6.523  14.625  0.4859  1.7462  1.0543
   40DOPE  C312 5139   3.157   6.359  14.738  0.1456 -0.5938  0.2444
   40DOPE  H12X 5140   3.055   6.325  14.768 -0.2630  0.3370 -0.0565
   40DOPE  H12Y 5141   3.193   6.424  14.821 -1.2052  0.8157 -0.2158
   40DOPE  C313 5142   3.238   6.235  14.711  0.5356 -0.0414  1.0785
   40DOPE  H13X 5143   3.169   6.176  14.647 -1.2789  1.8762  1.1867
   40DOPE  H13Y 5144   3.328   6.266  14.654  0.3840  0.8468  1.3120
   40DOPE  C314 5145   3.283   6.159  14.835 -0.4606 -0.9614 -0.5809
   40DOPE  H14X 5146   3.196   6.112  14.886 -1.1910 -0.3538 -1.2482
   40DOPE  H14Y 5147   3.328   6.230  14.908 -0.4425 -1.8565  0.2981
   40DOPE  C315 5148   3.381   6.049  14.802 -0.2866 -0.2793 -0.2894
   40DOPE  H15X 5149   3.478   6.095  14.772 -0.7127  0.0199 -1.2522
   40DOPE  H15Y 5150   3.345   5.989  14.715  1.0593 -0.4017 -0.7848
   40DOPE  C316 5151   3.431   5.967  14.918 -0.0381 -0.1350 -0.0639
   40DOPE  H16X 5152   3.342   5.925  14.971 -1.0747  0.5552 -1.2045
   40DOPE  H16Y 5153   3.472   6.036  14.995  0.1752  0.8000 -0.9903
   40DOPE  C317 5154   3.537   5.866  14.877  0.2225  0.2312 -0.0991
   40DOPE  H17X 5155   3.472   5.784  14.839 -1.2437  0.3521  1.9333
   40DOPE  H17Y 5156   3.614   5.908  14.810 -0.1511  0.1218 -0.5994
   40DOPE  C318 5157   3.615   5.799  14.988 -0.2642  0.4306 -0.6783
   40DOPE  H18X 5158   3.650   5.875  15.061 -1.0011  1.2928 -1.2036
   40DOPE  H18Y 5159   3.556   5.723  15.044 -1.5706  2.4508  0.8080
   40DOPE  H18Z 5160   3.706   5.746  14.950 -0.1986  0.7746 -1.0075
   41DOPE     N 5161   0.259   5.491  12.696  0.4025 -0.6547  0.0044
   41DOPE   HN1 5162   0.341   5.488  12.760  0.2869  1.3927  0.3098
   41DOPE   HN2 5163   0.297   5.518  12.603  3.0637 -1.3739  0.7884
   41DOPE   HN3 5164   0.205   5.573  12.729  0.5335 -0.3412 -0.5521
   41DOPE   C12 5165   0.202   5.347  12.708  0.3900 -0.6120 -0.0368
   41DOPE  H12A 5166   0.147   5.326  12.615 -0.1150  0.4629 -0.0018
   41DOPE  H12B 5167   0.122   5.352  12.785 -0.9570  2.6500 -1.4511
   41DOPE   C11 5168   0.298   5.233  12.732  0.1023  0.2258 -0.4149
   41DOPE  H11A 5169   0.359   5.232  12.639  1.6962 -0.0855  0.6061
   41DOPE  H11B 5170   0.233   5.143  12.732 -0.5108  0.6562 -0.5703
   41DOPE     P 5171   0.470   5.131  12.903  0.0887 -0.0984 -0.5857
   41DOPE   O13 5172   0.604   5.184  12.939 -0.0374 -0.4042  0.0987
   41DOPE   O14 5173   0.474   5.011  12.813  0.0044  0.3385  0.0512
   41DOPE   O11 5174   0.396   5.094  13.041 -0.0409  0.0728  0.3810
   41DOPE   O12 5175   0.384   5.251  12.841  0.2189 -0.0808  0.2537
   41DOPE    C1 5176   0.294   5.171  13.095 -0.0495 -0.1059  1.0261
   41DOPE    HA 5177   0.242   5.105  13.168  0.3368 -0.0204  1.3825
   41DOPE    HB 5178   0.224   5.207  13.017  1.0093  0.9553  0.5255
   41DOPE    C2 5179   0.342   5.283  13.190  0.1918  0.3150 -0.1807
   41DOPE    HS 5180   0.403   5.353  13.129  1.4488 -0.6876 -0.1260
   41DOPE   O21 5181   0.420   5.215  13.296  0.0895  0.1530  0.3487
   41DOPE   C21 5182   0.502   5.298  13.366 -0.0268 -0.8123  0.4760
   41DOPE   O22 5183   0.521   5.416  13.347  0.0180 -0.4659 -0.2081
   41DOPE   C22 5184   0.566   5.229  13.480 -0.0346  0.0951 -0.5113
   41DOPE   H2R 5185   0.647   5.166  13.436  0.5241  0.0149  0.5936
   41DOPE   H2S 5186   0.494   5.170  13.540  0.7321  1.1950  1.6017
   41DOPE    C3 5187   0.221   5.372  13.249 -0.2067 -0.2698  0.2933
   41DOPE    HX 5188   0.164   5.386  13.154  0.0031  1.5083  0.3893
   41DOPE    HY 5189   0.260   5.471  13.281  0.4332 -0.0751 -1.0198
   41DOPE   O31 5190   0.139   5.308  13.356 -0.4781 -0.1728  0.0151
   41DOPE   C31 5191   0.174   5.342  13.480  0.0703 -0.3759  0.8057
   41DOPE   O32 5192   0.276   5.396  13.512  0.0010  0.0646 -0.1531
   41DOPE   C32 5193   0.068   5.295  13.577  0.2815 -0.5712 -0.0896
   41DOPE   H2X 5194  -0.027   5.347  13.550 -0.2035 -1.1603  0.4530
   41DOPE   H2Y 5195   0.065   5.185  13.571  0.6738 -0.6002  0.2760
   41DOPE   C23 5196   0.638   5.318  13.585 -0.4245  0.3392  0.0761
   41DOPE   H3R 5197   0.558   5.384  13.623  1.3511  2.5567  0.1893
   41DOPE   H3S 5198   0.712   5.374  13.524  0.5430 -1.8579 -0.8658
   41DOPE   C24 5199   0.710   5.239  13.700 -0.2283 -0.2312  0.2206
   41DOPE   H4R 5200   0.812   5.209  13.670 -0.5907 -2.9959  1.4239
   41DOPE   H4S 5201   0.645   5.151  13.722  1.0770 -1.4217 -0.5175
   41DOPE   C25 5202   0.723   5.341  13.817  0.6241  0.6921 -0.3539
   41DOPE   H5R 5203   0.626   5.344  13.872 -0.0959  3.6738 -1.5987
   41DOPE   H5S 5204   0.746   5.444  13.782  1.9856  0.8973  1.0419
   41DOPE   C26 5205   0.827   5.291  13.920  0.2232 -0.5325  0.1265
   41DOPE   H6R 5206   0.837   5.372  13.995  0.8724 -1.4359  1.0364
   41DOPE   H6S 5207   0.924   5.289  13.866  0.8937  0.1743  1.2780
   41DOPE   C27 5208   0.796   5.153  13.988 -0.3858 -0.4610 -0.2440
   41DOPE   H7R 5209   0.879   5.080  13.978 -1.3563 -2.0455  2.1870
   41DOPE   H7S 5210   0.711   5.109  13.934  1.3009 -1.4882 -2.2001
   41DOPE   C28 5211   0.768   5.154  14.132 -0.1264 -0.6094 -0.0917
   41DOPE   H8R 5212   0.712   5.060  14.155 -1.9681  0.9983  2.7058
   41DOPE   H8S 5213   0.696   5.234  14.159 -0.9216 -1.7188  1.2309
   41DOPE   C29 5214   0.894   5.171  14.217  0.0157 -0.2344 -0.3415
   41DOPE   H9R 5215   0.961   5.248  14.175 -1.5306  0.7585 -1.1100
   41DOPE  C210 5216   0.924   5.101  14.328  0.5830 -0.1847  0.4682
   41DOPE  H10R 5217   1.027   5.105  14.367  0.3394  0.2980  1.0822
   41DOPE  C211 5218   0.835   5.000  14.395 -0.2772  0.0995  0.4026
   41DOPE  H11R 5219   0.900   4.925  14.444  1.4746  0.7564 -0.8213
   41DOPE  H11S 5220   0.777   4.935  14.326  0.0386  0.8266 -0.5729
   41DOPE  C212 5221   0.733   5.058  14.493 -0.5308 -0.1546 -0.0216
   41DOPE  H12R 5222   0.675   4.980  14.548 -2.3467 -1.2472 -3.2394
   41DOPE  H12S 5223   0.661   5.126  14.444  2.7483  2.1181 -2.0602
   41DOPE  C213 5224   0.801   5.144  14.604  0.2738  0.0597  0.2063
   41DOPE  H13R 5225   0.857   5.231  14.562  0.8382 -1.1820 -1.7718
   41DOPE  H13S 5226   0.882   5.089  14.656  1.1130  0.1262 -0.9766
   41DOPE  C214 5227   0.707   5.201  14.712 -0.0207 -0.0179  0.1443
   41DOPE  H14R 5228   0.770   5.227  14.800  1.5825 -1.4930 -0.4872
   41DOPE  H14S 5229   0.629   5.125  14.735 -1.8181  1.3896 -1.0394
   41DOPE  C215 5230   0.626   5.333  14.672 -0.3606 -0.4076 -0.0183
   41DOPE  H15R 5231   0.576   5.322  14.573  0.6109 -1.2080 -0.4397
   41DOPE  H15S 5232   0.698   5.417  14.657  0.5687 -0.8058  1.9191
   41DOPE  C216 5233   0.508   5.363  14.770 -0.9864 -0.1831  0.3734
   41DOPE  H16R 5234   0.563   5.376  14.866  1.4542 -0.2537 -0.9365
   41DOPE  H16S 5235   0.440   5.275  14.776 -1.2278  0.1052  2.8868
   41DOPE  C217 5236   0.422   5.481  14.736 -0.3787  0.3231  0.3216
   41DOPE  H17R 5237   0.321   5.471  14.782 -0.1608  1.1634  1.0095
   41DOPE  H17S 5238   0.408   5.494  14.626 -1.1170 -0.1330  0.3527
   41DOPE  C218 5239   0.489   5.610  14.781  0.1058  0.2404  0.2538
   41DOPE  H18R 5240   0.499   5.610  14.892 -0.8284  0.0473  0.3436
   41DOPE  H18S 5241   0.433   5.700  14.750  0.8032  0.5535 -0.1087
   41DOPE  H18T 5242   0.584   5.634  14.728 -0.5021  0.8382 -0.5794
   41DOPE   C33 5243   0.100   5.345  13.719 -0.0674  0.0695  0.7358
   41DOPE   H3X 5244   0.123   5.452  13.736  0.1274 -0.1963  2.4063
   41DOPE   H3Y 5245   0.193   5.287  13.736 -0.7288 -1.8163 -1.6026
   41DOPE   C34 5246  -0.010   5.303  13.820  0.3701  0.7581  0.0035
   41DOPE   H4X 5247  -0.107   5.355  13.806  0.2566  0.8268  1.0056
   41DOPE   H4Y 5248  -0.022   5.194  13.805  0.2697  0.7379  0.2284
   41DOPE   C35 5249   0.041   5.321  13.964 -0.4479 -0.1247  0.3189
   41DOPE   H5X 5250   0.064   5.430  13.975  0.1153 -0.2360  0.2749
   41DOPE   H5Y 5251   0.135   5.265  13.982 -0.2657  0.5641  1.7170
   41DOPE   C36 5252  -0.067   5.272  14.057  0.0702 -0.0823 -1.2837
   41DOPE   H6X 5253  -0.083   5.162  14.056 -1.2407  0.0069  1.2424
   41DOPE   H6Y 5254  -0.167   5.321  14.045 -0.4707 -0.5012  1.0538
   41DOPE   C37 5255  -0.028   5.294  14.204  0.5523  0.0145 -0.7892
   41DOPE   H7X 5256   0.074   5.252  14.214  0.0095 -1.2159 -0.2420
   41DOPE   H7Y 5257  -0.022   5.405  14.213  0.6205 -0.0802  0.4927
   41DOPE   C38 5258  -0.123   5.233  14.310 -0.2461 -0.5113 -0.3128
   41DOPE   H8X 5259  -0.098   5.125  14.314  0.2410 -0.3945 -0.1352
   41DOPE   H8Y 5260  -0.230   5.248  14.284 -0.3761  2.4618  1.4169
   41DOPE   C39 5261  -0.096   5.283  14.453 -0.2655 -0.0798 -0.2235
   41DOPE   H9X 5262   0.009   5.272  14.487 -0.0091 -0.2715 -1.0652
   41DOPE  C310 5263  -0.175   5.347  14.542  0.3859  0.1654 -0.2299
   41DOPE  H10X 5264  -0.136   5.349  14.645 -0.5609  1.5319  0.1204
   41DOPE  C311 5265  -0.317   5.385  14.521 -0.1005 -0.5232  0.2409
   41DOPE  H11X 5266  -0.346   5.471  14.586  0.5651 -1.0178  1.2205
   41DOPE  H11Y 5267  -0.328   5.408  14.413  0.7419 -0.5884  0.1377
   41DOPE  C312 5268  -0.412   5.266  14.553 -0.1011  0.5560  0.4297
   41DOPE  H12X 5269  -0.378   5.190  14.479  0.3109  2.2065 -1.1525
   41DOPE  H12Y 5270  -0.515   5.293  14.521  0.0164 -1.7999 -2.3614
   41DOPE  C313 5271  -0.400   5.211  14.693  0.9199  0.5668 -0.0288
   41DOPE  H13X 5272  -0.305   5.153  14.694  1.0261  0.6682 -1.6789
   41DOPE  H13Y 5273  -0.394   5.303  14.756  0.5347  1.1455 -0.8136
   41DOPE  C314 5274  -0.498   5.109  14.743  0.4379 -0.8785 -0.0126
   41DOPE  H14X 5275  -0.519   5.034  14.664  1.4445 -2.0651  0.8177
   41DOPE  H14Y 5276  -0.592   5.157  14.779  0.5091 -1.1419  0.5318
   41DOPE  C315 5277  -0.446   5.046  14.871  0.2646 -0.6595  0.0687
   41DOPE  H15X 5278  -0.410   5.134  14.928  0.2824 -1.4107  1.2552
   41DOPE  H15Y 5279  -0.358   4.981  14.848  0.9681  0.0657  0.6443
   41DOPE  C316 5280  -0.548   4.987  14.956  0.2137  0.5817 -0.2005
   41DOPE  H16X 5281  -0.612   4.913  14.903 -1.4375  2.5253 -1.0669
   41DOPE  H16Y 5282  -0.622   5.069  14.969 -0.0664  0.5110 -1.1821
   41DOPE  C317 5283  -0.501   4.921  15.090  0.1925  0.2898 -0.3475
   41DOPE  H17X 5284  -0.440   5.008  15.122 -2.7510  2.1493  0.6896
   41DOPE  H17Y 5285  -0.589   4.913  15.157  1.5187 -1.8111  1.2541
   41DOPE  C318 5286  -0.427   4.790  15.079 -0.3139  0.4485 -0.0680
   41DOPE  H18X 5287  -0.340   4.789  15.010  0.8169 -1.4712  1.2794
   41DOPE  H18Y 5288  -0.375   4.772  15.175 -0.5902  0.4907  0.0918
   41DOPE  H18Z 5289  -0.497   4.705  15.066 -0.7628  0.8930 -0.5714
   42DOPE     N 5290   0.115   3.893  13.049 -0.0957  0.2725 -0.3329
   42DOPE   HN1 5291   0.046   3.960  13.088  0.5291 -0.4403  2.1831
   42DOPE   HN2 5292   0.079   3.796  13.040 -2.6003  0.8245  2.1500
   42DOPE   HN3 5293   0.195   3.893  13.116  1.2003 -0.2746 -1.8338
   42DOPE   C12 5294   0.158   3.959  12.920  0.0639 -0.3872 -0.1960
   42DOPE  H12A 5295   0.088   3.931  12.839 -0.3713 -1.1900  0.4366
   42DOPE  H12B 5296   0.254   3.909  12.898  0.2537 -0.3733  0.5561
   42DOPE   C11 5297   0.161   4.108  12.934  0.4017  0.0550  0.5660
   42DOPE  H11A 5298   0.061   4.149  12.908  0.5471 -0.2533 -0.5107
   42DOPE  H11B 5299   0.238   4.141  12.861 -2.5931  1.6797 -2.0948
   42DOPE     P 5300   0.277   4.292  13.085 -0.1832  0.2485 -0.1750
   42DOPE   O13 5301   0.188   4.394  13.020 -0.3288 -0.3908 -0.0743
   42DOPE   O14 5302   0.412   4.282  13.029 -0.1067 -0.2129  0.0265
   42DOPE   O11 5303   0.288   4.314  13.242 -0.6961  0.1351 -0.7664
   42DOPE   O12 5304   0.209   4.149  13.065  0.2039  0.1419  0.7075
   42DOPE    C1 5305   0.343   4.197  13.310  0.0543 -0.0380  0.2166
   42DOPE    HA 5306   0.453   4.212  13.314  0.2321 -1.3152  0.6154
   42DOPE    HB 5307   0.314   4.100  13.265  0.5838 -0.5223  0.8936
   42DOPE    C2 5308   0.305   4.175  13.460  0.0160  0.0072  0.6107
   42DOPE    HS 5309   0.375   4.097  13.498  1.3361  0.2196 -1.2618
   42DOPE   O21 5310   0.174   4.135  13.457  0.4348  0.0037 -0.3061
   42DOPE   C21 5311   0.144   4.057  13.560 -0.1777  0.0051  0.0416
   42DOPE   O22 5312   0.229   3.994  13.622 -0.0184  0.9051  0.2386
   42DOPE   C22 5313  -0.009   4.067  13.601  0.0088 -0.3927  0.3456
   42DOPE   H2R 5314  -0.070   3.978  13.577 -0.3948  0.1358 -0.6421
   42DOPE   H2S 5315  -0.050   4.143  13.531  0.8300 -1.9221 -1.9083
   42DOPE    C3 5316   0.306   4.298  13.557 -0.5023 -0.2522 -0.4864
   42DOPE    HX 5317   0.220   4.362  13.528  0.4204  0.8115 -0.9555
   42DOPE    HY 5318   0.399   4.357  13.540  0.2018 -0.5633  1.9184
   42DOPE   O31 5319   0.294   4.267  13.695  0.3013  0.1828 -0.3327
   42DOPE   C31 5320   0.415   4.240  13.756 -0.1113  0.5839  0.4412
   42DOPE   O32 5321   0.517   4.229  13.692  0.8062 -0.8098  1.2480
   42DOPE   C32 5322   0.404   4.238  13.901 -0.4649 -0.2837  0.1807
   42DOPE   H2X 5323   0.327   4.315  13.925  1.0169  1.7460 -1.1775
   42DOPE   H2Y 5324   0.366   4.138  13.929  1.0789 -0.6595  1.0388
   42DOPE   C23 5325  -0.039   4.119  13.747 -0.2627  1.1763  0.9529
   42DOPE   H3R 5326  -0.145   4.152  13.745 -1.0628 -1.2611 -0.9639
   42DOPE   H3S 5327   0.031   4.200  13.776 -1.2790  2.7785 -0.8600
   42DOPE   C24 5328  -0.041   4.013  13.855 -0.0645  0.2900 -0.2520
   42DOPE   H4R 5329  -0.039   3.912  13.808 -1.0402 -0.1184  0.5274
   42DOPE   H4S 5330  -0.126   4.021  13.926 -1.5078 -3.3683 -1.3431
   42DOPE   C25 5331   0.087   4.022  13.941 -0.1227  0.3954  0.1350
   42DOPE   H5R 5332   0.111   4.128  13.965  0.1277  0.4250 -0.2418
   42DOPE   H5S 5333   0.168   3.982  13.877  0.5114 -0.4079  1.4003
   42DOPE   C26 5334   0.082   3.924  14.061 -0.1561  0.0936 -0.4293
   42DOPE   H6R 5335   0.080   3.829  14.004 -2.4200  0.3361 -0.8158
   42DOPE   H6S 5336  -0.015   3.932  14.114  0.8979  0.6545  1.5121
   42DOPE   C27 5337   0.200   3.935  14.165  0.7103 -0.0999  0.2405
   42DOPE   H7R 5338   0.173   3.877  14.257  0.6018  1.0268  0.9341
   42DOPE   H7S 5339   0.209   4.043  14.189  0.4986 -0.1625  0.6159
   42DOPE   C28 5340   0.337   3.898  14.109  0.0605 -0.8100  0.2856
   42DOPE   H8R 5341   0.408   3.976  14.144 -1.7223  2.3334 -2.4910
   42DOPE   H8S 5342   0.334   3.909  13.998 -1.6758  1.3854  0.4787
   42DOPE   C29 5343   0.393   3.768  14.156  0.0048  0.6118 -0.7437
   42DOPE   H9R 5344   0.370   3.681  14.093 -1.2485 -1.3353  2.1646
   42DOPE  C210 5345   0.468   3.743  14.262  0.1312  0.3517  0.1948
   42DOPE  H10R 5346   0.515   3.647  14.289  1.3287  0.8245 -0.1702
   42DOPE  C211 5347   0.519   3.846  14.359  0.9420  0.9190  0.4036
   42DOPE  H11R 5348   0.504   3.807  14.463 -0.1714 -1.5073 -0.5858
   42DOPE  H11S 5349   0.455   3.937  14.355  1.7191  1.4108 -1.3227
   42DOPE  C212 5350   0.666   3.882  14.336 -0.4290  0.2376  0.5463
   42DOPE  H12R 5351   0.710   3.975  14.379  1.5421 -0.7078  0.7119
   42DOPE  H12S 5352   0.686   3.889  14.226 -2.2387  0.2092  0.1913
   42DOPE  C213 5353   0.758   3.769  14.395  0.3325 -0.2510  0.1298
   42DOPE  H13R 5354   0.855   3.780  14.342  0.8877  0.4460  1.2557
   42DOPE  H13S 5355   0.712   3.668  14.383  0.4052 -0.3274  0.5038
   42DOPE  C214 5356   0.788   3.802  14.547  0.0026  0.3962 -0.6695
   42DOPE  H14R 5357   0.693   3.837  14.591 -1.4637 -0.3532 -3.0464
   42DOPE  H14S 5358   0.869   3.878  14.559  1.8250 -1.3321 -1.4281
   42DOPE  C215 5359   0.834   3.666  14.613 -0.0805  0.4141  0.1667
   42DOPE  H15R 5360   0.935   3.655  14.568  0.0297 -0.7381  0.6742
   42DOPE  H15S 5361   0.768   3.584  14.576  0.5083  0.6025 -1.4010
   42DOPE  C216 5362   0.833   3.676  14.764  0.0370  0.3088 -0.4500
   42DOPE  H16R 5363   0.867   3.585  14.819  1.8068  1.1622 -0.0463
   42DOPE  H16S 5364   0.726   3.689  14.791 -0.9727 -3.3774 -1.9684
   42DOPE  C217 5365   0.912   3.789  14.832  0.0627 -0.3943  0.5905
   42DOPE  H17R 5366   0.888   3.771  14.939  0.0165 -1.4146  0.4191
   42DOPE  H17S 5367   0.866   3.889  14.813  1.1378 -0.0173 -0.1625
   42DOPE  C218 5368   1.058   3.782  14.813 -0.1289  0.0013  0.0183
   42DOPE  H18R 5369   1.094   3.678  14.832 -1.7061 -0.9562 -1.8388
   42DOPE  H18S 5370   1.116   3.846  14.882  0.8039  0.4830 -1.1697
   42DOPE  H18T 5371   1.096   3.791  14.709 -0.5717  1.9423  0.0012
   42DOPE   C33 5372   0.539   4.274  13.970  0.8650 -1.0120 -0.6893
   42DOPE   H3X 5373   0.562   4.378  13.939  0.0365 -1.1879 -1.9400
   42DOPE   H3Y 5374   0.623   4.208  13.938 -0.6285 -2.6258 -1.3867
   42DOPE   C34 5375   0.521   4.269  14.123 -0.5393 -0.1815  0.3157
   42DOPE   H4X 5376   0.449   4.352  14.142 -0.1634 -0.2512  2.2627
   42DOPE   H4Y 5377   0.485   4.168  14.151 -0.4926  0.2842  2.1907
   42DOPE   C35 5378   0.652   4.285  14.204  0.0584 -0.1450 -0.4467
   42DOPE   H5X 5379   0.692   4.385  14.176  0.8953 -0.0598  0.9683
   42DOPE   H5Y 5380   0.722   4.205  14.173  0.1142 -0.5929  0.8124
   42DOPE   C36 5381   0.645   4.270  14.355  0.9500  0.0560 -0.4969
   42DOPE   H6X 5382   0.748   4.260  14.396  0.3040 -2.1339  0.8011
   42DOPE   H6Y 5383   0.591   4.176  14.380 -0.2869  0.5172 -1.3689
   42DOPE   C37 5384   0.591   4.396  14.428  0.2677  0.7518 -0.4370
   42DOPE   H7X 5385   0.652   4.489  14.417 -0.4654  1.1185 -1.6253
   42DOPE   H7Y 5386   0.486   4.418  14.400  0.1113  2.5114  1.3077
   42DOPE   C38 5387   0.585   4.357  14.582 -0.0336 -0.0700 -0.2344
   42DOPE   H8X 5388   0.584   4.247  14.589  2.1803 -0.0413  1.8592
   42DOPE   H8Y 5389   0.488   4.401  14.614  0.2448 -0.1420  0.7295
   42DOPE   C39 5390   0.691   4.430  14.660 -0.1475  0.6221 -0.2023
   42DOPE   H9X 5391   0.673   4.539  14.660  2.2603  1.0616  0.0371
   42DOPE  C310 5392   0.792   4.372  14.728 -0.1114 -0.6208 -0.7483
   42DOPE  H10X 5393   0.870   4.442  14.761 -0.4002  0.4452 -2.2033
   42DOPE  C311 5394   0.807   4.218  14.739 -0.2374 -0.1175  0.1856
   42DOPE  H11X 5395   0.770   4.194  14.841 -2.1956  1.9361  0.0394
   42DOPE  H11Y 5396   0.751   4.161  14.662  1.0821  0.1746 -1.0519
   42DOPE  C312 5397   0.957   4.174  14.737  0.1252  0.7699 -0.4009
   42DOPE  H12X 5398   1.003   4.186  14.636  0.8237 -1.8999 -0.4683
   42DOPE  H12Y 5399   0.959   4.065  14.758 -0.9360  1.0489  1.3565
   42DOPE  C313 5400   1.040   4.249  14.844  0.1296  0.7920 -0.0455
   42DOPE  H13X 5401   1.143   4.209  14.832 -0.5583 -1.1049  0.1266
   42DOPE  H13Y 5402   1.036   4.358  14.823 -1.5153  0.5402 -1.1811
   42DOPE  C314 5403   0.997   4.208  14.983  0.0457 -0.3548  0.4355
   42DOPE  H14X 5404   0.980   4.099  14.999  2.1341 -0.8517 -0.3162
   42DOPE  H14Y 5405   0.905   4.268  14.995  0.4109  0.1747  0.6481
   42DOPE  C315 5406   1.095   4.255  15.092 -0.5047 -0.0377 -0.1707
   42DOPE  H15X 5407   1.109   4.365  15.103  1.4166 -0.2808  0.2697
   42DOPE  H15Y 5408   1.195   4.214  15.064 -0.7059 -0.3506 -0.4331
   42DOPE  C316 5409   1.045   4.210  15.228  0.4508  0.8390  0.1455
   42DOPE  H16X 5410   1.134   4.184  15.289  0.7851 -0.3349 -0.8164
   42DOPE  H16Y 5411   0.991   4.115  15.213  0.7193  0.4355  1.6408
   42DOPE  C317 5412   0.973   4.314  15.313 -0.0894  0.5872  0.2237
   42DOPE  H17X 5413   1.018   4.414  15.330 -0.3745  0.9288 -0.9507
   42DOPE  H17Y 5414   0.882   4.337  15.253  0.2249  2.1427  0.3129
   42DOPE  C318 5415   0.943   4.252  15.452 -0.2937 -0.1863  0.0508
   42DOPE  H18X 5416   0.913   4.331  15.524 -0.3976 -0.3361  0.1712
   42DOPE  H18Y 5417   0.864   4.174  15.450  0.1778 -0.6615 -0.8419
   42DOPE  H18Z 5418   1.036   4.208  15.495 -0.4008  0.4125  0.9205
   43DOPE     N 5419   0.128   3.213  12.992 -0.4694  0.3936 -0.0833
   43DOPE   HN1 5420   0.107   3.200  12.891 -1.3033  0.9307  0.0113
   43DOPE   HN2 5421   0.047   3.271  13.021 -2.4026 -2.1111 -0.1801
   43DOPE   HN3 5422   0.224   3.253  12.994 -0.0770 -0.4918 -0.4308
   43DOPE   C12 5423   0.118   3.088  13.070 -0.1255  0.3824  0.0621
   43DOPE  H12A 5424   0.135   2.999  13.006 -0.6479  0.6823 -0.5024
   43DOPE  H12B 5425   0.013   3.077  13.104 -0.3578 -0.4625 -0.9034
   43DOPE   C11 5426   0.209   3.085  13.192 -0.1804  0.5756  0.2622
   43DOPE  H11A 5427   0.196   2.986  13.241 -3.5922  0.0377 -1.4308
   43DOPE  H11B 5428   0.165   3.146  13.274 -2.1544  0.2897 -0.5247
   43DOPE     P 5429   0.441   3.015  13.080  0.0585  0.1292 -0.5330
   43DOPE   O13 5430   0.566   3.084  13.064 -0.1045 -0.1584 -0.5824
   43DOPE   O14 5431   0.374   2.969  12.956 -0.2165  0.0305  0.4934
   43DOPE   O11 5432   0.460   2.903  13.184  0.1955 -0.2060  0.0032
   43DOPE   O12 5433   0.344   3.114  13.161  0.3676  0.2199  0.2624
   43DOPE    C1 5434   0.481   2.915  13.320  0.1170 -0.7444  0.7941
   43DOPE    HA 5435   0.394   2.965  13.368  0.5106  1.3631 -0.5253
   43DOPE    HB 5436   0.561   2.991  13.336 -0.4303 -0.0509  0.2802
   43DOPE    C2 5437   0.508   2.778  13.385  0.0677  0.1991 -0.1075
   43DOPE    HS 5438   0.601   2.744  13.333  1.3545  3.5332 -0.2244
   43DOPE   O21 5439   0.393   2.691  13.362 -0.5955 -0.6403 -0.2275
   43DOPE   C21 5440   0.419   2.556  13.365  0.5038  0.1804 -0.3285
   43DOPE   O22 5441   0.529   2.516  13.356 -0.2696 -0.4536  0.0603
   43DOPE   C22 5442   0.299   2.465  13.372 -0.3204  0.5179 -0.0439
   43DOPE   H2R 5443   0.293   2.394  13.287 -0.8609 -0.5341  0.8278
   43DOPE   H2S 5444   0.205   2.519  13.349 -1.3361 -2.0026 -2.3108
   43DOPE    C3 5445   0.537   2.794  13.534  0.4001 -0.6405  0.3775
   43DOPE    HX 5446   0.441   2.832  13.575 -0.3920 -0.7436 -1.2726
   43DOPE    HY 5447   0.618   2.870  13.540  1.0454 -1.1878 -0.9375
   43DOPE   O31 5448   0.569   2.665  13.599  0.4684 -0.0707  0.2608
   43DOPE   C31 5449   0.687   2.664  13.660  0.5374  0.4154  0.1385
   43DOPE   O32 5450   0.748   2.761  13.695  0.0145  0.0150 -0.1697
   43DOPE   C32 5451   0.734   2.514  13.675  0.4359 -0.2857  0.4412
   43DOPE   H2X 5452   0.643   2.458  13.705  0.8555 -0.8050  0.7661
   43DOPE   H2Y 5453   0.762   2.484  13.572 -2.7221 -0.3892 -0.5105
   43DOPE   C23 5454   0.296   2.383  13.504  0.1059  0.7858 -0.4701
   43DOPE   H3R 5455   0.395   2.334  13.516 -0.3850  0.3998  3.0553
   43DOPE   H3S 5456   0.219   2.302  13.502  1.6308 -0.6972 -1.3854
   43DOPE   C24 5457   0.275   2.460  13.635 -0.0776 -0.4737 -0.1405
   43DOPE   H4R 5458   0.172   2.500  13.636  0.4432  0.9406  1.0830
   43DOPE   H4S 5459   0.345   2.545  13.650  0.0659 -0.4491 -0.9539
   43DOPE   C25 5460   0.296   2.376  13.754 -0.4148  0.6245  0.1839
   43DOPE   H5R 5461   0.397   2.329  13.746 -0.1249  1.4445 -1.4219
   43DOPE   H5S 5462   0.218   2.297  13.757 -1.0591  1.1831 -1.0467
   43DOPE   C26 5463   0.298   2.465  13.873 -0.4111 -0.3834  0.0562
   43DOPE   H6R 5464   0.215   2.539  13.880  0.7914  0.9070  1.1844
   43DOPE   H6S 5465   0.385   2.528  13.846 -1.1380  0.3956 -0.5190
   43DOPE   C27 5466   0.305   2.393  14.012  0.1145 -0.8762 -0.3787
   43DOPE   H7R 5467   0.346   2.477  14.073  0.5760 -0.8411 -0.7343
   43DOPE   H7S 5468   0.376   2.311  13.992  0.3233 -0.1623 -3.0268
   43DOPE   C28 5469   0.163   2.358  14.051  0.3118  0.6326  0.4289
   43DOPE   H8R 5470   0.121   2.291  13.974  1.0167  0.0715  0.5199
   43DOPE   H8S 5471   0.102   2.450  14.041 -0.6809 -0.2715 -2.5310
   43DOPE   C29 5472   0.161   2.299  14.195  0.3109 -0.0547 -0.3523
   43DOPE   H9R 5473   0.258   2.252  14.219  0.2381 -0.4933 -0.9036
   43DOPE  C210 5474   0.081   2.319  14.304  0.2362 -0.3441 -0.5186
   43DOPE  H10R 5475   0.098   2.274  14.403  1.0880 -2.9817 -1.7874
   43DOPE  C211 5476  -0.044   2.413  14.301 -0.6396  0.0365  0.4326
   43DOPE  H11R 5477  -0.137   2.352  14.308 -2.0857  2.0344 -0.4110
   43DOPE  H11S 5478  -0.059   2.461  14.203  0.7060 -1.4658 -0.5678
   43DOPE  C212 5479  -0.031   2.523  14.405  0.2757  0.2476 -0.2772
   43DOPE  H12R 5480  -0.017   2.479  14.506  2.1170 -1.9882 -1.4080
   43DOPE  H12S 5481  -0.123   2.583  14.391  0.7656  0.8125 -1.1985
   43DOPE  C213 5482   0.076   2.626  14.365  0.3675  0.0500  0.7406
   43DOPE  H13R 5483   0.025   2.713  14.320 -1.8163 -0.2994  2.3948
   43DOPE  H13S 5484   0.140   2.581  14.286  1.6049  0.9529  1.2089
   43DOPE  C214 5485   0.171   2.664  14.480  0.7151  0.2218  0.3129
   43DOPE  H14R 5486   0.199   2.574  14.539  0.6134 -0.6776 -0.9815
   43DOPE  H14S 5487   0.121   2.730  14.554 -1.3270 -0.7821 -0.1296
   43DOPE  C215 5488   0.293   2.736  14.438 -0.0125 -0.2804  0.8903
   43DOPE  H15R 5489   0.259   2.826  14.384  0.2079  0.2417  1.6005
   43DOPE  H15S 5490   0.347   2.665  14.371 -0.1209 -0.2139  0.7315
   43DOPE  C216 5491   0.385   2.771  14.557  0.9128  0.1321  0.0361
   43DOPE  H16R 5492   0.476   2.796  14.497  1.0327 -1.7242 -0.6085
   43DOPE  H16S 5493   0.412   2.677  14.609 -1.4171 -2.6426 -3.2950
   43DOPE  C217 5494   0.344   2.894  14.635  0.4614  0.1143 -0.0056
   43DOPE  H17R 5495   0.247   2.871  14.684 -0.1051  0.6320 -0.8570
   43DOPE  H17S 5496   0.331   2.977  14.563 -0.3460  2.0202  2.2189
   43DOPE  C218 5497   0.453   2.936  14.739  0.5145 -0.3294 -0.4670
   43DOPE  H18R 5498   0.418   3.024  14.798 -2.3942 -0.3576 -1.9296
   43DOPE  H18S 5499   0.551   2.946  14.689  0.0910 -0.9858 -1.4618
   43DOPE  H18T 5500   0.465   2.858  14.817 -0.2602  2.7190  3.0614
   43DOPE   C33 5501   0.838   2.494  13.787 -0.2037 -0.5364 -1.3605
   43DOPE   H3X 5502   0.833   2.392  13.831  2.5789  0.0508  0.5773
   43DOPE   H3Y 5503   0.816   2.557  13.876  1.4565  0.4173 -1.5859
   43DOPE   C34 5504   0.984   2.514  13.755  0.4222 -0.3194 -0.1075
   43DOPE   H4X 5505   1.006   2.431  13.684 -1.8745 -0.3898 -0.8245
   43DOPE   H4Y 5506   1.001   2.613  13.708  1.0981  0.9039  2.5207
   43DOPE   C35 5507   1.070   2.506  13.877 -0.3480  0.1740 -0.5111
   43DOPE   H5X 5508   1.018   2.569  13.953 -0.7951  0.1021 -0.7515
   43DOPE   H5Y 5509   1.171   2.545  13.856 -0.4032  1.5308  1.4069
   43DOPE   C36 5510   1.096   2.363  13.921 -0.4027 -0.0557  0.0713
   43DOPE   H6X 5511   1.145   2.300  13.843 -1.0492  0.8926 -1.1320
   43DOPE   H6Y 5512   0.999   2.313  13.940 -0.6849  0.5842  0.3051
   43DOPE   C37 5513   1.194   2.374  14.035  0.3235 -0.0371 -0.1053
   43DOPE   H7X 5514   1.300   2.357  14.004  1.4852  1.9381  2.3831
   43DOPE   H7Y 5515   1.188   2.476  14.078 -0.4330  0.9660 -2.4506
   43DOPE   C38 5516   1.155   2.264  14.132 -0.2555 -0.2257 -0.2694
   43DOPE   H8X 5517   1.052   2.277  14.171 -0.5875 -0.6224 -1.0058
   43DOPE   H8Y 5518   1.225   2.267  14.218 -2.9360 -1.8866  2.1033
   43DOPE   C39 5519   1.162   2.127  14.071  0.2539  0.4442  0.0731
   43DOPE   H9X 5520   1.157   2.119  13.961  1.7543 -2.3774  0.1010
   43DOPE  C310 5521   1.169   2.015  14.141 -0.7052 -0.4846 -0.1866
   43DOPE  H10X 5522   1.161   1.916  14.093  0.2925 -1.3808  1.3907
   43DOPE  C311 5523   1.178   1.998  14.291 -0.2525  0.0101 -0.3307
   43DOPE  H11X 5524   1.129   2.083  14.344  1.5793 -0.2019  1.9079
   43DOPE  H11Y 5525   1.121   1.905  14.314 -0.0622  0.1535  0.7967
   43DOPE  C312 5526   1.320   1.976  14.347  0.2493 -0.0666 -0.3897
   43DOPE  H12X 5527   1.381   2.069  14.352  0.4996 -0.1487 -1.6425
   43DOPE  H12Y 5528   1.381   1.917  14.275  0.7922  0.1764 -0.1371
   43DOPE  C313 5529   1.308   1.911  14.486 -0.1825 -0.0903 -0.6916
   43DOPE  H13X 5530   1.242   1.976  14.548 -0.9707 -1.4430 -0.0708
   43DOPE  H13Y 5531   1.266   1.809  14.486  2.5498 -1.3272  0.9957
   43DOPE  C314 5532   1.441   1.886  14.563  0.1807 -0.3557 -0.7353
   43DOPE  H14X 5533   1.497   1.982  14.573  1.2443 -1.0806  0.5616
   43DOPE  H14Y 5534   1.506   1.821  14.500  0.6702  0.8320 -1.4987
   43DOPE  C315 5535   1.425   1.827  14.702  0.0330  0.0391 -0.2500
   43DOPE  H15X 5536   1.367   1.734  14.682 -0.4141  0.6661 -2.0754
   43DOPE  H15Y 5537   1.362   1.890  14.768  0.9297 -0.3811  1.0427
   43DOPE  C316 5538   1.557   1.805  14.766  0.4551  0.3758  0.0446
   43DOPE  H16X 5539   1.624   1.890  14.743  1.0031  0.1263  0.6698
   43DOPE  H16Y 5540   1.615   1.722  14.720  2.4240  1.3911  0.5595
   43DOPE  C317 5541   1.540   1.777  14.918 -0.5924  0.9387  0.5585
   43DOPE  H17X 5542   1.478   1.860  14.961 -2.7263 -1.2630  2.0181
   43DOPE  H17Y 5543   1.481   1.683  14.918  1.4618 -0.4435 -1.2907
   43DOPE  C318 5544   1.675   1.747  14.974 -0.3652 -0.6443  0.4654
   43DOPE  H18X 5545   1.672   1.720  15.082  1.6570 -0.5789  0.5841
   43DOPE  H18Y 5546   1.725   1.669  14.913 -1.1105 -0.3237 -0.5757
   43DOPE  H18Z 5547   1.741   1.836  14.966 -2.2853  0.7531 -0.8834
   44DOPE     N 5548   2.138   2.477  12.995  0.2616 -0.7508  0.4834
   44DOPE   HN1 5549   2.158   2.495  12.894  1.8309 -1.1061  0.7033
   44DOPE   HN2 5550   2.104   2.560  13.046  0.3881 -1.0478  1.0547
   44DOPE   HN3 5551   2.228   2.451  13.040  0.1183 -0.5356  0.8942
   44DOPE   C12 5552   2.048   2.360  13.013 -0.0213 -0.7916  0.1543
   44DOPE  H12A 5553   1.951   2.381  12.961 -0.1576 -1.1785  0.2463
   44DOPE  H12B 5554   2.040   2.345  13.122  0.7884 -0.0692  0.3226
   44DOPE   C11 5555   2.115   2.236  12.953  0.3125  0.7957  0.3845
   44DOPE  H11A 5556   2.138   2.265  12.848 -2.2906  0.1752 -0.4137
   44DOPE  H11B 5557   2.050   2.147  12.937 -1.8513  2.3136  0.2872
   44DOPE     P 5558   2.223   2.107  13.145  0.1418  0.2029 -0.3073
   44DOPE   O13 5559   2.147   2.173  13.254  0.6750 -0.2103 -0.5962
   44DOPE   O14 5560   2.358   2.072  13.189 -0.8980  0.2222 -0.9316
   44DOPE   O11 5561   2.142   1.978  13.100 -0.0454 -0.5609  0.2119
   44DOPE   O12 5562   2.234   2.204  13.025 -0.1359  0.2086  0.1055
   44DOPE    C1 5563   2.196   1.866  13.031 -0.4376 -0.2594 -0.4929
   44DOPE    HA 5564   2.307   1.860  13.042 -0.6522 -2.4668  1.0041
   44DOPE    HB 5565   2.179   1.878  12.922  2.8103 -0.1146 -1.0851
   44DOPE    C2 5566   2.138   1.737  13.094  0.4574 -0.0575  0.2344
   44DOPE    HS 5567   2.029   1.749  13.107  0.2124  0.7159 -2.1617
   44DOPE   O21 5568   2.207   1.701  13.213  0.1935 -0.4608  0.1820
   44DOPE   C21 5569   2.150   1.756  13.324 -0.1430  0.5654 -0.2813
   44DOPE   O22 5570   2.051   1.827  13.322  0.4937 -0.0110 -0.1269
   44DOPE   C22 5571   2.222   1.694  13.444  0.0995  0.7367  0.5212
   44DOPE   H2R 5572   2.320   1.658  13.407 -1.0728 -2.0244 -0.0890
   44DOPE   H2S 5573   2.164   1.602  13.469 -1.5135  0.8852 -2.2451
   44DOPE    C3 5574   2.148   1.622  12.997  0.2124 -0.0859 -0.4137
   44DOPE    HX 5575   2.249   1.620  12.951  0.2578 -1.4050 -0.2958
   44DOPE    HY 5576   2.072   1.629  12.916 -0.4463 -0.2954  0.1754
   44DOPE   O31 5577   2.119   1.502  13.077 -0.7494  0.6812 -0.2294
   44DOPE   C31 5578   2.215   1.439  13.124 -0.3378 -0.3530  0.1975
   44DOPE   O32 5579   2.331   1.458  13.102  0.2673  0.2096 -0.0877
   44DOPE   C32 5580   2.163   1.349  13.236  0.2390 -0.0069  0.9258
   44DOPE   H2X 5581   2.122   1.420  13.311  1.2306  1.0395  0.5077
   44DOPE   H2Y 5582   2.086   1.274  13.209 -1.3254  1.2102  1.8167
   44DOPE   C23 5583   2.226   1.787  13.560 -0.0415 -0.0653 -0.2382
   44DOPE   H3R 5584   2.124   1.831  13.557 -1.5388 -3.1756  0.8629
   44DOPE   H3S 5585   2.298   1.869  13.542  0.7006 -0.3668  1.2172
   44DOPE   C24 5586   2.246   1.723  13.700  0.5437  0.0220  0.7066
   44DOPE   H4R 5587   2.162   1.652  13.719  1.0922 -1.0054 -0.5442
   44DOPE   H4S 5588   2.237   1.809  13.770 -1.5433  1.7656 -1.5400
   44DOPE   C25 5589   2.379   1.645  13.709  0.3056 -0.6145  0.0247
   44DOPE   H5R 5590   2.453   1.714  13.663 -0.8063  0.5714 -0.0199
   44DOPE   H5S 5591   2.371   1.557  13.641  0.1336 -0.9558  0.4826
   44DOPE   C26 5592   2.422   1.605  13.845  0.2468  0.0955 -0.1848
   44DOPE   H6R 5593   2.364   1.518  13.883 -5.2963  3.1890 -0.4498
   44DOPE   H6S 5594   2.393   1.690  13.911 -0.9519  0.4557 -1.1467
   44DOPE   C27 5595   2.583   1.600  13.860  0.3558 -0.1704 -0.4188
   44DOPE   H7R 5596   2.634   1.699  13.853  0.3587 -0.0488  1.0356
   44DOPE   H7S 5597   2.617   1.532  13.779 -2.3452 -2.9504  0.6016
   44DOPE   C28 5598   2.617   1.546  13.990 -0.0054  0.6284  0.6105
   44DOPE   H8R 5599   2.552   1.458  14.003 -0.7078  1.2187  1.1453
   44DOPE   H8S 5600   2.580   1.615  14.068  0.7663  1.0572  0.6140
   44DOPE   C29 5601   2.761   1.507  14.016 -0.5752 -0.0189  0.8262
   44DOPE   H9R 5602   2.801   1.437  13.942 -1.9190  0.4372 -0.3680
   44DOPE  C210 5603   2.829   1.542  14.128  0.7576 -0.5078  0.4569
   44DOPE  H10R 5604   2.934   1.509  14.127  0.0403 -3.0249 -1.6531
   44DOPE  C211 5605   2.792   1.634  14.241  0.8791  0.5692  0.4520
   44DOPE  H11R 5606   2.711   1.704  14.210  1.0611 -0.2399 -2.1054
   44DOPE  H11S 5607   2.881   1.697  14.262  1.1240  0.0982  0.8375
   44DOPE  C212 5608   2.738   1.562  14.361  0.6718  0.2783 -0.1314
   44DOPE  H12R 5609   2.811   1.495  14.410  0.8464 -0.3432 -1.2163
   44DOPE  H12S 5610   2.657   1.489  14.339 -1.4552  2.3169  0.5280
   44DOPE  C213 5611   2.689   1.656  14.466 -0.1689  0.0317 -0.6990
   44DOPE  H13R 5612   2.628   1.744  14.437  0.9861  1.0326 -0.2049
   44DOPE  H13S 5613   2.784   1.700  14.504  0.3259 -2.3088  0.9712
   44DOPE  C214 5614   2.648   1.581  14.597 -0.0352 -0.9085 -0.0720
   44DOPE  H14R 5615   2.740   1.518  14.601  0.9697  0.3354 -1.8088
   44DOPE  H14S 5616   2.555   1.527  14.569 -0.4892  0.0153 -0.3749
   44DOPE  C215 5617   2.628   1.677  14.715 -0.3608 -0.3692 -0.0252
   44DOPE  H15R 5618   2.714   1.745  14.734 -0.2924 -0.4628  0.0032
   44DOPE  H15S 5619   2.617   1.605  14.800  0.2491  0.1994  0.5478
   44DOPE  C216 5620   2.499   1.754  14.707  0.5489 -0.1628 -0.6480
   44DOPE  H16R 5621   2.435   1.686  14.648  0.9514 -1.3232  0.2024
   44DOPE  H16S 5622   2.511   1.850  14.654  0.3165  0.0906 -0.2447
   44DOPE  C217 5623   2.438   1.778  14.844 -0.2735 -0.2830  0.4018
   44DOPE  H17R 5624   2.408   1.683  14.894 -3.0787  1.1367  1.6884
   44DOPE  H17S 5625   2.338   1.824  14.832 -0.5347  0.2400  3.5954
   44DOPE  C218 5626   2.532   1.857  14.943 -0.1594 -0.5723  0.7449
   44DOPE  H18R 5627   2.473   1.850  15.037  0.6337  0.0194  1.2980
   44DOPE  H18S 5628   2.541   1.961  14.907 -1.1161 -0.4138  0.9538
   44DOPE  H18T 5629   2.634   1.812  14.953  2.3960  3.5920 -3.0021
   44DOPE   C33 5630   2.284   1.285  13.310 -0.3592  0.6279 -0.0361
   44DOPE   H3X 5631   2.366   1.358  13.322  1.8070 -1.7046  0.3464
   44DOPE   H3Y 5632   2.324   1.211  13.238  0.4926  0.2840  0.7662
   44DOPE   C34 5633   2.256   1.246  13.453  0.9847 -0.1402  0.0159
   44DOPE   H4X 5634   2.235   1.329  13.523  0.8260  0.2091 -0.4481
   44DOPE   H4Y 5635   2.167   1.180  13.444  1.0251 -0.1945  0.0122
   44DOPE   C35 5636   2.382   1.175  13.510 -0.5569 -0.2767 -0.2856
   44DOPE   H5X 5637   2.465   1.248  13.504  0.2496 -1.1880 -0.6176
   44DOPE   H5Y 5638   2.416   1.081  13.461 -1.4579 -1.3667  1.1148
   44DOPE   C36 5639   2.352   1.143  13.658  0.1810 -0.0882  0.7913
   44DOPE   H6X 5640   2.283   1.056  13.663 -0.2964  0.3207  1.4896
   44DOPE   H6Y 5641   2.302   1.230  13.705 -1.5083 -0.7548  0.3044
   44DOPE   C37 5642   2.478   1.116  13.738  0.0698 -0.7656  0.6747
   44DOPE   H7X 5643   2.559   1.071  13.676 -0.3793 -1.0133  0.2673
   44DOPE   H7Y 5644   2.540   1.204  13.765 -2.0216  1.2987 -0.9181
   44DOPE   C38 5645   2.456   1.023  13.862  0.1372 -0.2626 -0.0325
   44DOPE   H8X 5646   2.391   0.938  13.833 -4.0023  2.3265  0.7799
   44DOPE   H8Y 5647   2.391   1.082  13.931  1.3143  0.7507  0.2422
   44DOPE   C39 5648   2.581   0.977  13.931 -0.4233  0.1694  0.0111
   44DOPE   H9X 5649   2.660   0.944  13.862  0.5088  2.8150 -0.2893
   44DOPE  C310 5650   2.606   0.986  14.060 -0.7794 -0.1633 -0.4631
   44DOPE  H10X 5651   2.698   0.934  14.089 -0.8719 -0.0360  0.0751
   44DOPE  C311 5652   2.519   1.035  14.176 -0.1830 -0.0561  0.5026
   44DOPE  H11X 5653   2.420   0.992  14.147  0.3807  0.9310 -3.6202
   44DOPE  H11Y 5654   2.557   1.007  14.276  0.5878  0.2139  0.2912
   44DOPE  C312 5655   2.508   1.190  14.170 -0.6638  0.4270  0.0800
   44DOPE  H12X 5656   2.490   1.225  14.066 -1.8488 -1.1552 -0.2849
   44DOPE  H12Y 5657   2.605   1.227  14.209 -0.2556  0.5380 -0.9934
   44DOPE  C313 5658   2.385   1.231  14.247 -0.3521  0.1712 -0.9326
   44DOPE  H13X 5659   2.301   1.163  14.220 -1.2202  0.4356  0.9287
   44DOPE  H13Y 5660   2.412   1.216  14.354  1.5507 -1.0140 -1.5334
   44DOPE  C314 5661   2.333   1.375  14.218  0.6363  0.0808 -0.2678
   44DOPE  H14X 5662   2.342   1.390  14.108  1.7225  1.3139 -0.0460
   44DOPE  H14Y 5663   2.420   1.434  14.256  2.3504 -0.9178 -2.4041
   44DOPE  C315 5664   2.206   1.417  14.292  0.7583 -0.1926 -0.2611
   44DOPE  H15X 5665   2.211   1.379  14.396 -0.6267 -1.1544 -0.5192
   44DOPE  H15Y 5666   2.119   1.364  14.248  0.2540  2.2344 -2.4598
   44DOPE  C316 5667   2.172   1.566  14.280 -0.0581 -0.0739  0.2249
   44DOPE  H16X 5668   2.246   1.608  14.351 -1.1055 -1.4323  2.2100
   44DOPE  H16Y 5669   2.069   1.578  14.321  0.4249  0.3421  1.3489
   44DOPE  C317 5670   2.179   1.621  14.137 -0.5701 -0.1324 -0.4737
   44DOPE  H17X 5671   2.155   1.728  14.153  3.5516  0.6391  2.2780
   44DOPE  H17Y 5672   2.285   1.606  14.104  0.2854  1.2882  1.4503
   44DOPE  C318 5673   2.089   1.558  14.030  0.1545 -0.2067 -0.3506
   44DOPE  H18X 5674   1.982   1.575  14.053 -0.0658 -0.3211 -1.2303
   44DOPE  H18Y 5675   2.097   1.614  13.934  3.4038  0.8715  0.4122
   44DOPE  H18Z 5676   2.099   1.450  14.009  4.1797 -0.0152 -0.2238
   45DOPE     N 5677   2.959   1.707  13.253  0.4158  0.6924 -0.0800
   45DOPE   HN1 5678   2.901   1.705  13.339  0.1380 -0.6337 -0.2787
   45DOPE   HN2 5679   2.942   1.797  13.202 -0.8505 -0.0057 -0.9404
   45DOPE   HN3 5680   2.914   1.637  13.191 -0.8603  2.4684 -1.2642
   45DOPE   C12 5681   3.097   1.660  13.258 -0.6220 -1.0045  0.3010
   45DOPE  H12A 5682   3.158   1.734  13.315 -2.1373  1.5734 -1.2426
   45DOPE  H12B 5683   3.140   1.670  13.157 -1.6942  0.5343 -0.0380
   45DOPE   C11 5684   3.108   1.528  13.324 -0.2553  0.2860  0.4478
   45DOPE  H11A 5685   3.069   1.534  13.427 -0.1034  1.2311  0.4624
   45DOPE  H11B 5686   3.215   1.500  13.337 -0.5876 -0.0160  3.0116
   45DOPE     P 5687   3.114   1.349  13.128 -0.2711  0.0641 -0.2521
   45DOPE   O13 5688   3.186   1.450  13.048 -0.0130  0.0395 -0.7995
   45DOPE   O14 5689   3.021   1.256  13.060  0.1150 -1.2131  0.1118
   45DOPE   O11 5690   3.219   1.270  13.209 -0.5845  1.0432  0.0032
   45DOPE   O12 5691   3.044   1.422  13.251 -0.2968  0.8771  0.6634
   45DOPE    C1 5692   3.202   1.128  13.224  0.0116  0.6058  0.1398
   45DOPE    HA 5693   3.260   1.075  13.145  1.1021  2.6001 -0.4821
   45DOPE    HB 5694   3.097   1.093  13.215 -0.2900  1.7527 -1.1336
   45DOPE    C2 5695   3.251   1.087  13.362  0.7499 -0.3508 -0.0143
   45DOPE    HS 5696   3.209   0.991  13.399  2.5955  0.2385  4.2874
   45DOPE   O21 5697   3.224   1.184  13.467  0.2296  0.3930 -0.3931
   45DOPE   C21 5698   3.094   1.194  13.496  0.3242 -0.3076  0.2304
   45DOPE   O22 5699   3.003   1.135  13.442  1.0012  0.1855  0.2630
   45DOPE   C22 5700   3.071   1.290  13.614 -0.0061 -0.4904  0.4116
   45DOPE   H2R 5701   2.998   1.366  13.580 -0.1652 -1.6712 -2.0953
   45DOPE   H2S 5702   3.171   1.337  13.625  1.0020 -2.1318 -1.2288
   45DOPE    C3 5703   3.403   1.068  13.355  0.8929  0.5309 -0.4918
   45DOPE    HX 5704   3.455   1.153  13.305 -0.4555  2.0073  0.4947
   45DOPE    HY 5705   3.411   0.986  13.281  0.0707 -1.0990  1.1411
   45DOPE   O31 5706   3.458   1.031  13.481 -0.5046  0.0876 -0.4448
   45DOPE   C31 5707   3.488   1.138  13.554 -0.2114  0.4142 -0.1474
   45DOPE   O32 5708   3.497   1.252  13.513 -0.0456  0.4535 -0.3312
   45DOPE   C32 5709   3.506   1.090  13.699  0.6542  0.2889 -0.1028
   45DOPE   H2X 5710   3.408   1.049  13.732  0.0439  1.1031 -0.8644
   45DOPE   H2Y 5711   3.572   1.001  13.710  0.6420  0.2740 -0.1511
   45DOPE   C23 5712   3.030   1.205  13.739 -0.0583 -0.0978 -0.1040
   45DOPE   H3R 5713   2.956   1.125  13.715  0.4777  0.2380 -3.3459
   45DOPE   H3S 5714   2.981   1.283  13.801 -2.9738  0.2222 -2.5758
   45DOPE   C24 5715   3.148   1.162  13.827  0.1377  0.0756 -0.3414
   45DOPE   H4R 5716   3.196   1.257  13.857 -1.1728  1.3545 -2.0788
   45DOPE   H4S 5717   3.211   1.106  13.754  2.0997  0.1215  1.2051
   45DOPE   C25 5718   3.114   1.077  13.953 -0.2491 -0.4890  0.6120
   45DOPE   H5R 5719   3.204   1.046  14.009  0.0831  1.2537  1.0891
   45DOPE   H5S 5720   3.061   0.992  13.903 -0.8662  1.2099 -1.8104
   45DOPE   C26 5721   3.014   1.144  14.048 -0.0516  0.4955  0.2591
   45DOPE   H6R 5722   2.910   1.161  14.012  0.0776  1.1863  0.2085
   45DOPE   H6S 5723   3.050   1.246  14.072  0.4950  0.8827 -2.0036
   45DOPE   C27 5724   2.978   1.055  14.174  0.0049 -0.6231  0.3066
   45DOPE   H7R 5725   3.061   1.019  14.238  0.6178 -0.9238 -0.6375
   45DOPE   H7S 5726   2.938   0.963  14.126 -1.1661 -1.9180  3.5113
   45DOPE   C28 5727   2.863   1.107  14.257  0.4331  0.3374 -0.2277
   45DOPE   H8R 5728   2.804   1.026  14.305 -0.9358  0.8595 -0.9668
   45DOPE   H8S 5729   2.795   1.149  14.179  0.6434  0.6388 -0.2510
   45DOPE   C29 5730   2.907   1.228  14.338  0.3019 -0.0509  0.3242
   45DOPE   H9R 5731   2.984   1.294  14.295 -0.8431 -0.4367 -2.5370
   45DOPE  C210 5732   2.879   1.250  14.464 -1.0544 -0.7268 -0.2146
   45DOPE  H10R 5733   2.923   1.337  14.514 -3.6181  0.5970 -0.0772
   45DOPE  C211 5734   2.805   1.159  14.553  0.1559  0.2967 -0.5391
   45DOPE  H11R 5735   2.736   1.095  14.493  2.1666 -0.6312 -1.9557
   45DOPE  H11S 5736   2.755   1.216  14.634  2.0921  0.9071  0.2621
   45DOPE  C212 5737   2.892   1.064  14.642 -0.2691 -0.1960  0.6481
   45DOPE  H12R 5738   2.821   1.030  14.720 -2.5945 -2.6988 -2.3108
   45DOPE  H12S 5739   2.981   1.120  14.677  0.8260  0.3778 -2.6640
   45DOPE  C213 5740   2.928   0.941  14.558 -0.3027  0.9022 -0.3720
   45DOPE  H13R 5741   3.007   0.967  14.485  0.8555  3.3728  1.6102
   45DOPE  H13S 5742   2.836   0.897  14.514 -0.2402 -1.5518  1.7119
   45DOPE  C214 5743   2.983   0.819  14.638 -0.5162 -0.4906 -0.2626
   45DOPE  H14R 5744   2.917   0.803  14.726  0.1106  0.6972  0.4475
   45DOPE  H14S 5745   3.081   0.850  14.679 -1.6443 -0.1725  2.4149
   45DOPE  C215 5746   2.997   0.682  14.575 -0.3715  0.2003 -0.1873
   45DOPE  H15R 5747   3.061   0.685  14.484  0.8762  0.3853  0.6644
   45DOPE  H15S 5748   2.899   0.650  14.534 -0.2117 -0.8421  0.2284
   45DOPE  C216 5749   3.049   0.582  14.681 -0.1785  0.2501 -0.4715
   45DOPE  H16R 5750   2.985   0.597  14.770 -0.3205 -0.0310 -0.5258
   45DOPE  H16S 5751   3.153   0.612  14.706  0.1160  0.1118 -1.4909
   45DOPE  C217 5752   3.042   0.434  14.635 -0.0389  0.3422 -0.0281
   45DOPE  H17R 5753   3.092   0.365  14.707  0.0594 -0.4376 -0.8243
   45DOPE  H17S 5754   3.098   0.428  14.538 -2.6879 -0.5614 -1.6066
   45DOPE  C218 5755   2.908   0.368  14.601  0.3361  0.0897 -0.0057
   45DOPE  H18R 5756   2.829   0.387  14.678 -0.4512  0.9817 -0.9861
   45DOPE  H18S 5757   2.922   0.260  14.582  0.5337  0.3672 -1.4966
   45DOPE  H18T 5758   2.853   0.413  14.516 -0.5331  2.5211  1.7168
   45DOPE   C33 5759   3.550   1.203  13.793 -0.8156  0.2137 -0.1831
   45DOPE   H3X 5760   3.501   1.301  13.780  1.1220  1.1346 -0.7931
   45DOPE   H3Y 5761   3.658   1.211  13.769 -0.6407 -0.3591  0.3640
   45DOPE   C34 5762   3.556   1.156  13.943  0.5720 -0.3155  0.4513
   45DOPE   H4X 5763   3.448   1.142  13.967  0.6124 -0.3524  0.6053
   45DOPE   H4Y 5764   3.605   1.057  13.942 -0.4386 -0.8488  1.5160
   45DOPE   C35 5765   3.606   1.263  14.031  0.1997  0.8244 -0.6104
   45DOPE   H5X 5766   3.540   1.353  14.025 -0.2008  0.6157  0.3910
   45DOPE   H5Y 5767   3.710   1.292  14.004  1.2030 -0.3982  1.6344
   45DOPE   C36 5768   3.607   1.201  14.177  0.3684  0.2760  0.6768
   45DOPE   H6X 5769   3.667   1.265  14.245 -1.9169  1.6634  1.5160
   45DOPE   H6Y 5770   3.659   1.104  14.187 -0.3549 -0.1217  0.6510
   45DOPE   C37 5771   3.466   1.190  14.244 -0.4444  0.1374 -0.0107
   45DOPE   H7X 5772   3.415   1.288  14.236  0.1237  0.4195 -0.1695
   45DOPE   H7Y 5773   3.418   1.109  14.184  0.1914  1.1976 -2.0207
   45DOPE   C38 5774   3.475   1.140  14.385  0.0356  0.6715 -0.0784
   45DOPE   H8X 5775   3.531   1.218  14.442 -0.5245  0.3712  0.9159
   45DOPE   H8Y 5776   3.548   1.056  14.377  0.2291  0.9169 -1.0232
   45DOPE   C39 5777   3.356   1.094  14.460 -1.0326 -0.7912 -0.3416
   45DOPE   H9X 5778   3.296   1.178  14.498  1.3763  0.8147  0.1416
   45DOPE  C310 5779   3.314   0.970  14.474  0.1662  0.8799  0.6023
   45DOPE  H10X 5780   3.238   0.957  14.553 -0.2032  0.1521  0.1335
   45DOPE  C311 5781   3.367   0.843  14.419  0.1731 -0.6627 -0.3822
   45DOPE  H11X 5782   3.470   0.851  14.379 -0.1654  2.4166 -0.8968
   45DOPE  H11Y 5783   3.355   0.759  14.491 -1.1435  0.5010  0.8390
   45DOPE  C312 5784   3.280   0.809  14.294  0.5706  0.5389 -0.6118
   45DOPE  H12X 5785   3.313   0.867  14.205  0.5739 -1.0888 -1.7325
   45DOPE  H12Y 5786   3.176   0.829  14.326  1.3761  1.8192  1.3831
   45DOPE  C313 5787   3.302   0.662  14.255 -0.0485 -0.0111  0.2614
   45DOPE  H13X 5788   3.413   0.659  14.260 -0.1159 -0.0127  2.7340
   45DOPE  H13Y 5789   3.284   0.595  14.341  1.2717  2.3446  2.5159
   45DOPE  C314 5790   3.236   0.613  14.126  0.1822 -0.3352 -0.3873
   45DOPE  H14X 5791   3.292   0.526  14.086  1.3036 -1.6597  3.5698
   45DOPE  H14Y 5792   3.255   0.700  14.059  1.8150 -1.2367 -1.1429
   45DOPE  C315 5793   3.089   0.583  14.128  0.2857 -0.3882 -0.3787
   45DOPE  H15X 5794   3.040   0.665  14.186  1.9635 -0.2847  0.9888
   45DOPE  H15Y 5795   3.074   0.488  14.183  0.6340  0.1038  0.6008
   45DOPE  C316 5796   3.018   0.588  13.994  0.1264 -0.1717 -0.4020
   45DOPE  H16X 5797   3.061   0.513  13.924 -2.3306 -1.1780 -0.9389
   45DOPE  H16Y 5798   3.022   0.684  13.940 -0.1903  0.3065  0.4026
   45DOPE  C317 5799   2.864   0.550  14.013 -0.1180 -0.0353  0.1874
   45DOPE  H17X 5800   2.855   0.455  14.070 -0.9299 -0.4470 -0.6099
   45DOPE  H17Y 5801   2.812   0.631  14.070  0.2332  1.4212 -1.4649
   45DOPE  C318 5802   2.792   0.532  13.873 -0.0368  0.7560 -0.2291
   45DOPE  H18X 5803   2.801   0.631  13.824  1.6623  1.6794  1.7783
   45DOPE  H18Y 5804   2.836   0.445  13.819  1.2435  0.4706  1.2036
   45DOPE  H18Z 5805   2.683   0.517  13.883  0.1389 -0.3287  0.2110
   46DOPE     N 5806   3.820   7.625  13.030 -0.3707  0.1456  0.0447
   46DOPE   HN1 5807   3.818   7.728  13.043  0.9010  0.2010 -0.0517
   46DOPE   HN2 5808   3.752   7.587  13.099  0.6689  1.0314  1.6132
   46DOPE   HN3 5809   3.916   7.600  13.063  0.2603  1.0409 -1.0510
   46DOPE   C12 5810   3.787   7.581  12.894 -0.1765  0.5795 -0.4495
   46DOPE  H12A 5811   3.875   7.599  12.829  0.1821  0.1661 -0.0877
   46DOPE  H12B 5812   3.727   7.663  12.849  0.7726  1.2045 -0.6194
   46DOPE   C11 5813   3.712   7.441  12.879 -0.0045 -0.5756  0.0097
   46DOPE  H11A 5814   3.773   7.364  12.931  3.2002 -0.5557 -3.3601
   46DOPE  H11B 5815   3.715   7.417  12.771  2.6682 -1.2962  0.1841
   46DOPE     P 5816   3.482   7.354  12.926 -0.0791  0.4652 -0.3779
   46DOPE   O13 5817   3.522   7.250  13.016  0.1309  0.3650  0.4797
   46DOPE   O14 5818   3.449   7.319  12.789 -0.2110  0.2315  0.0533
   46DOPE   O11 5819   3.358   7.429  12.984 -0.2644  0.2980 -0.6008
   46DOPE   O12 5820   3.588   7.465  12.930 -0.4101  0.0884  0.4623
   46DOPE    C1 5821   3.352   7.537  13.081 -0.3775  0.6461 -0.3215
   46DOPE    HA 5822   3.260   7.597  13.065 -0.9505  0.1770  1.1041
   46DOPE    HB 5823   3.441   7.602  13.072  0.2293  0.1932  1.8477
   46DOPE    C2 5824   3.360   7.487  13.229 -0.0927 -0.5784 -0.5036
   46DOPE    HS 5825   3.457   7.434  13.225  0.7306  0.9175 -1.5983
   46DOPE   O21 5826   3.243   7.411  13.249 -0.1074  0.2793  0.8955
   46DOPE   C21 5827   3.272   7.287  13.299  0.7295  0.9168 -0.6249
   46DOPE   O22 5828   3.378   7.247  13.339  0.1723  0.6975 -0.4793
   46DOPE   C22 5829   3.145   7.200  13.312  0.4128  0.2040  0.1065
   46DOPE   H2R 5830   3.083   7.224  13.224  0.9952 -1.0032 -0.6542
   46DOPE   H2S 5831   3.096   7.230  13.407 -0.7012  0.5833 -0.5710
   46DOPE    C3 5832   3.371   7.608  13.328 -0.2848  0.5580  0.6048
   46DOPE    HX 5833   3.291   7.680  13.298 -1.4868 -0.8861  0.2258
   46DOPE    HY 5834   3.473   7.651  13.328  0.4530 -1.0671 -1.2904
   46DOPE   O31 5835   3.331   7.570  13.461  0.0084 -0.0538 -0.1475
   46DOPE   C31 5836   3.419   7.498  13.528  0.7357  0.3258  0.8668
   46DOPE   O32 5837   3.539   7.484  13.498  0.1457 -0.2568  0.2512
   46DOPE   C32 5838   3.355   7.450  13.660 -0.3506  0.1186  0.1989
   46DOPE   H2X 5839   3.362   7.532  13.736 -1.9987  1.1530 -0.7096
   46DOPE   H2Y 5840   3.249   7.421  13.646 -0.9124 -0.1472  3.9520
   46DOPE   C23 5841   3.173   7.048  13.308  0.0370  0.2836  0.5476
   46DOPE   H3R 5842   3.234   7.010  13.393 -1.6988 -2.7986  0.5652
   46DOPE   H3S 5843   3.244   7.039  13.223 -1.5831 -2.4909 -0.6420
   46DOPE   C24 5844   3.053   6.965  13.283  0.6473  0.3450  0.4054
   46DOPE   H4R 5845   3.096   6.874  13.237 -0.7261  0.4989 -1.3282
   46DOPE   H4S 5846   2.983   7.018  13.214  0.8410  1.7785  1.2553
   46DOPE   C25 5847   2.984   6.924  13.409  0.1697  0.2197  0.1996
   46DOPE   H5R 5848   2.881   6.894  13.383  0.3441 -0.8690  0.7075
   46DOPE   H5S 5849   2.961   7.012  13.474 -2.6593 -0.1283 -0.2119
   46DOPE   C26 5850   3.045   6.797  13.476 -0.4157  0.3985  0.0887
   46DOPE   H6R 5851   3.148   6.826  13.507 -0.7071  3.5451 -1.5232
   46DOPE   H6S 5852   3.046   6.715  13.401 -1.4100 -1.3924  1.9616
   46DOPE   C27 5853   2.964   6.724  13.586 -0.0809 -0.1202 -0.2325
   46DOPE   H7R 5854   3.015   6.637  13.631  0.4181 -0.8785 -2.1570
   46DOPE   H7S 5855   2.864   6.686  13.555 -0.1575 -0.8055  0.7982
   46DOPE   C28 5856   2.922   6.821  13.703  0.6044 -0.0789  0.6517
   46DOPE   H8R 5857   2.849   6.790  13.780  1.2796  0.3011  1.4603
   46DOPE   H8S 5858   2.880   6.913  13.657 -0.0686 -0.9593 -0.5511
   46DOPE   C29 5859   3.048   6.860  13.772 -0.4255  0.7174  0.2739
   46DOPE   H9R 5860   3.117   6.924  13.714  1.1747 -0.1942  1.0986
   46DOPE  C210 5861   3.089   6.823  13.893 -0.0502  0.3836 -0.3161
   46DOPE  H10R 5862   3.186   6.861  13.928  0.5101 -1.6328  0.4607
   46DOPE  C211 5863   3.016   6.726  13.983  0.3269 -0.4673  0.0465
   46DOPE  H11R 5864   3.088   6.646  14.011  0.2867 -1.1062 -1.5409
   46DOPE  H11S 5865   2.926   6.683  13.935  0.3129 -0.2651 -0.1102
   46DOPE  C212 5866   2.943   6.800  14.102 -0.3877 -0.2852  0.5468
   46DOPE  H12R 5867   2.856   6.862  14.073 -0.8557  0.0056  2.3996
   46DOPE  H12S 5868   3.015   6.874  14.143 -2.4392  1.5615  1.0211
   46DOPE  C213 5869   2.897   6.707  14.216 -0.2404 -0.2445 -0.4512
   46DOPE  H13R 5870   2.988   6.650  14.246  1.2532  2.4167  0.4044
   46DOPE  H13S 5871   2.819   6.638  14.176 -0.3882  0.6643 -1.7977
   46DOPE  C214 5872   2.840   6.790  14.336 -0.4981 -0.3547 -0.2754
   46DOPE  H14R 5873   2.747   6.835  14.295 -0.9395 -1.2268 -0.2434
   46DOPE  H14S 5874   2.919   6.861  14.370  0.3173 -1.4935  0.2364
   46DOPE  C215 5875   2.807   6.699  14.456  0.4714 -0.0169 -0.0658
   46DOPE  H15R 5876   2.904   6.667  14.500  0.2270 -0.4558  0.1624
   46DOPE  H15S 5877   2.762   6.609  14.409 -1.0068  1.4354 -1.5563
   46DOPE  C216 5878   2.721   6.774  14.561 -0.1045  0.4152 -0.6732
   46DOPE  H16R 5879   2.624   6.798  14.513 -0.9319  0.2264  0.8434
   46DOPE  H16S 5880   2.768   6.867  14.598 -0.9190  0.4760  0.2557
   46DOPE  C217 5881   2.680   6.699  14.689  0.3608  0.0632  0.6647
   46DOPE  H17R 5882   2.630   6.601  14.673 -0.6631  0.8706 -1.5479
   46DOPE  H17S 5883   2.600   6.769  14.722 -1.2268 -0.0761 -2.5032
   46DOPE  C218 5884   2.805   6.685  14.784  0.6696  0.3697  0.3955
   46DOPE  H18R 5885   2.780   6.626  14.875 -1.1036 -2.3738 -1.7414
   46DOPE  H18S 5886   2.853   6.783  14.808  1.3027 -0.1614  1.3678
   46DOPE  H18T 5887   2.883   6.622  14.735  1.7086  0.3141  2.0259
   46DOPE   C33 5888   3.431   7.332  13.720 -0.0520 -0.1319  0.5994
   46DOPE   H3X 5889   3.532   7.369  13.747 -0.2731  1.6580 -0.8542
   46DOPE   H3Y 5890   3.443   7.265  13.631 -1.0556  0.8320 -0.2939
   46DOPE   C34 5891   3.360   7.262  13.837  0.4572 -0.1673 -0.4626
   46DOPE   H4X 5892   3.302   7.341  13.888 -3.1483 -2.2420 -0.9979
   46DOPE   H4Y 5893   3.274   7.199  13.806  0.0034 -0.4492  1.2737
   46DOPE   C35 5894   3.450   7.183  13.933 -0.6228 -0.8402  0.3841
   46DOPE   H5X 5895   3.540   7.248  13.945  0.1954 -2.0723  1.1563
   46DOPE   H5Y 5896   3.482   7.097  13.871 -0.9527 -0.1862 -0.7155
   46DOPE   C36 5897   3.381   7.133  14.056 -0.0103  0.1827  0.6752
   46DOPE   H6X 5898   3.300   7.069  14.014  0.1867  0.0890  0.4326
   46DOPE   H6Y 5899   3.342   7.219  14.114  1.5416  0.1775  1.7804
   46DOPE   C37 5900   3.469   7.052  14.155  0.1869 -0.4986 -0.7505
   46DOPE   H7X 5901   3.513   6.967  14.098  0.3717 -0.3899 -0.7692
   46DOPE   H7Y 5902   3.549   7.119  14.194  0.7859 -1.5985 -0.0176
   46DOPE   C38 5903   3.412   6.988  14.281 -0.0704  0.6140 -0.3268
   46DOPE   H8X 5904   3.378   7.061  14.358  0.5989 -1.2026  1.8097
   46DOPE   H8Y 5905   3.500   6.930  14.317 -1.0504 -2.7758 -2.8249
   46DOPE   C39 5906   3.306   6.886  14.252 -0.6888 -1.1777 -0.6138
   46DOPE   H9X 5907   3.292   6.862  14.146 -0.9063 -0.9155 -0.6456
   46DOPE  C310 5908   3.243   6.810  14.340  0.4910 -0.0593 -0.1875
   46DOPE  H10X 5909   3.160   6.742  14.315  1.6131 -1.9313  0.9201
   46DOPE  C311 5910   3.275   6.815  14.492  0.6860  0.4915  0.9372
   46DOPE  H11X 5911   3.268   6.710  14.530  2.8416 -0.1504 -0.2202
   46DOPE  H11Y 5912   3.381   6.842  14.515  1.8356 -1.8629 -1.0845
   46DOPE  C312 5913   3.169   6.907  14.541  0.1532  0.2422 -0.2370
   46DOPE  H12X 5914   3.073   6.859  14.513  1.0766 -0.1051 -3.1399
   46DOPE  H12Y 5915   3.172   7.013  14.507  2.1921 -0.3656 -2.1854
   46DOPE  C313 5916   3.174   6.908  14.688 -0.0594  0.7811 -0.0576
   46DOPE  H13X 5917   3.146   6.806  14.721  0.4252  1.3605  2.3430
   46DOPE  H13Y 5918   3.280   6.919  14.719  0.6166  0.2637 -2.0358
   46DOPE  C314 5919   3.077   7.008  14.754  0.8833 -0.3890 -0.5799
   46DOPE  H14X 5920   2.976   7.007  14.709  0.1056  1.2636  1.0150
   46DOPE  H14Y 5921   3.094   7.117  14.751 -0.9012 -0.0380  0.5150
   46DOPE  C315 5922   3.060   6.975  14.910 -0.2875  0.3739  0.0200
   46DOPE  H15X 5923   3.010   6.878  14.933  1.2929  0.3487  4.4019
   46DOPE  H15Y 5924   2.992   7.057  14.943  0.6129  1.0182  0.3059
   46DOPE  C316 5925   3.188   6.971  14.995  0.0758 -0.1655 -0.9876
   46DOPE  H16X 5926   3.222   7.077  15.001  0.2538 -0.2178 -1.0533
   46DOPE  H16Y 5927   3.256   6.905  14.936 -0.5886 -1.0207 -0.8232
   46DOPE  C317 5928   3.169   6.900  15.132 -0.0632 -0.1233  0.0335
   46DOPE  H17X 5929   3.251   6.930  15.202 -1.8725  3.5913  0.8098
   46DOPE  H17Y 5930   3.072   6.926  15.179  0.0370 -0.8041  0.6345
   46DOPE  C318 5931   3.163   6.749  15.129 -0.3382  0.0353  0.2586
   46DOPE  H18X 5932   3.247   6.712  15.065 -0.8154 -2.1296  0.7985
   46DOPE  H18Y 5933   3.186   6.712  15.231  2.3140  0.8507  0.0347
   46DOPE  H18Z 5934   3.070   6.711  15.081 -0.0639 -0.6922  0.2797
   47DOPE     N 5935   0.420   5.981  12.896  0.6140 -0.1301  0.1003
   47DOPE   HN1 5936   0.489   6.025  12.832 -2.3850  0.6145 -2.9088
   47DOPE   HN2 5937   0.326   5.999  12.856  0.1183 -1.8155  0.4220
   47DOPE   HN3 5938   0.421   6.026  12.990  0.8337  0.7194 -0.2997
   47DOPE   C12 5939   0.429   5.836  12.900 -0.3642  0.0116  0.1484
   47DOPE  H12A 5940   0.532   5.809  12.934 -0.5819 -0.7706  0.2112
   47DOPE  H12B 5941   0.413   5.792  12.799 -1.7422 -0.0544  0.3778
   47DOPE   C11 5942   0.336   5.782  13.000 -0.1993 -0.0524  1.1546
   47DOPE  H11A 5943   0.377   5.812  13.099  2.6734 -0.9680  0.3324
   47DOPE  H11B 5944   0.336   5.672  12.992 -0.5171  0.0828 -1.5629
   47DOPE     P 5945   0.085   5.760  12.945 -0.1009  0.3128  0.0722
   47DOPE   O13 5946   0.138   5.702  12.817  0.5075 -0.4038  0.3533
   47DOPE   O14 5947  -0.032   5.848  12.930  0.5502  0.7377 -0.1481
   47DOPE   O11 5948   0.077   5.640  13.050  0.2645 -0.1176  0.4791
   47DOPE   O12 5949   0.204   5.843  12.999  0.6582 -0.4635 -0.0069
   47DOPE    C1 5950  -0.053   5.611  13.112 -0.5570 -0.4555  0.6518
   47DOPE    HA 5951  -0.071   5.502  13.115  0.5561 -0.7616 -1.5676
   47DOPE    HB 5952  -0.139   5.642  13.049  0.9243 -0.1551 -1.2989
   47DOPE    C2 5953  -0.076   5.673  13.257 -0.4098  0.0231 -0.7625
   47DOPE    HS 5954  -0.122   5.774  13.260 -0.6699 -0.1181  1.0060
   47DOPE   O21 5955   0.040   5.669  13.335  0.4413  0.8196 -0.4902
   47DOPE   C21 5956   0.122   5.777  13.335 -0.0650 -0.6981 -0.3237
   47DOPE   O22 5957   0.097   5.879  13.274 -0.1182  0.0657 -0.0533
   47DOPE   C22 5958   0.251   5.754  13.421  0.4851 -0.2687 -0.0771
   47DOPE   H2R 5959   0.305   5.850  13.402 -0.7084  0.4639  0.1070
   47DOPE   H2S 5960   0.304   5.668  13.375  0.4219  0.2633 -1.1932
   47DOPE    C3 5961  -0.182   5.587  13.325  0.0655  0.2174  0.0191
   47DOPE    HX 5962  -0.150   5.482  13.309  2.5130  0.2738  3.3173
   47DOPE    HY 5963  -0.283   5.601  13.281  0.9645 -0.2120 -2.3063
   47DOPE   O31 5964  -0.183   5.599  13.467  0.3148  0.0519 -0.0716
   47DOPE   C31 5965  -0.254   5.708  13.509 -0.0535  0.1600  0.4929
   47DOPE   O32 5966  -0.310   5.788  13.435 -0.0351  0.0441 -0.2586
   47DOPE   C32 5967  -0.225   5.730  13.651  0.0715 -0.0668 -0.0755
   47DOPE   H2X 5968  -0.115   5.736  13.664  0.1433 -0.6845 -0.3588
   47DOPE   H2Y 5969  -0.284   5.814  13.692 -1.7611 -1.9171  1.2900
   47DOPE   C23 5970   0.237   5.736  13.571  0.6538 -0.3201  0.2986
   47DOPE   H3R 5971   0.162   5.658  13.597 -0.6821  0.9775  0.4352
   47DOPE   H3S 5972   0.187   5.822  13.619  0.8521  1.3923 -2.3667
   47DOPE   C24 5973   0.360   5.691  13.642  0.1033  0.2973  0.6804
   47DOPE   H4R 5974   0.433   5.771  13.619  2.1644 -0.6544  3.3601
   47DOPE   H4S 5975   0.390   5.589  13.609  1.4816  0.4107  1.5074
   47DOPE   C25 5976   0.334   5.678  13.795  0.7647 -0.6858 -0.9413
   47DOPE   H5R 5977   0.275   5.586  13.815  1.5350 -0.9161  0.4585
   47DOPE   H5S 5978   0.278   5.765  13.834 -0.2683 -1.3481 -0.8987
   47DOPE   C26 5979   0.463   5.662  13.876 -0.4787  1.0422 -0.0408
   47DOPE   H6R 5980   0.528   5.749  13.855  0.6152  0.1856 -0.2380
   47DOPE   H6S 5981   0.502   5.573  13.823 -3.8019  0.1095 -1.1985
   47DOPE   C27 5982   0.451   5.645  14.029  0.0576  0.2898 -0.8590
   47DOPE   H7R 5983   0.378   5.569  14.065  1.3188 -0.2859  0.6282
   47DOPE   H7S 5984   0.404   5.737  14.070  1.8070  1.4102 -1.2529
   47DOPE   C28 5985   0.591   5.626  14.087  0.8047  0.3120 -0.2339
   47DOPE   H8R 5986   0.665   5.706  14.064  0.3789  0.0178 -2.9615
   47DOPE   H8S 5987   0.626   5.532  14.039 -0.4296 -0.4840  0.3672
   47DOPE   C29 5988   0.591   5.602  14.240 -0.3939  0.3221 -0.0642
   47DOPE   H9R 5989   0.531   5.516  14.273 -2.7055  1.0582 -2.0779
   47DOPE  C210 5990   0.647   5.689  14.329 -0.0162 -0.1077 -0.6235
   47DOPE  H10R 5991   0.647   5.652  14.432  0.1273 -1.5846 -1.1339
   47DOPE  C211 5992   0.723   5.824  14.306  0.4577  0.6833 -0.7028
   47DOPE  H11R 5993   0.654   5.903  14.342 -0.9675 -0.9683  0.3597
   47DOPE  H11S 5994   0.740   5.839  14.198  3.9046 -1.5887 -0.6098
   47DOPE  C212 5995   0.862   5.832  14.366 -0.1280  0.6173 -0.3550
   47DOPE  H12R 5996   0.914   5.748  14.314 -3.5213 -0.8237 -1.6552
   47DOPE  H12S 5997   0.867   5.809  14.475  0.2300  1.4541 -0.1883
   47DOPE  C213 5998   0.936   5.969  14.346 -0.6156  0.3510  0.0114
   47DOPE  H13R 5999   0.892   6.057  14.398  0.4735  0.8514  0.1053
   47DOPE  H13S 6000   0.927   5.984  14.236 -2.6620 -0.4656  0.0173
   47DOPE  C214 6001   1.086   5.969  14.392  0.3294  0.2665  0.1733
   47DOPE  H14R 6002   1.141   5.878  14.360 -1.3509 -0.0611 -2.0437
   47DOPE  H14S 6003   1.077   5.964  14.503 -1.0540 -1.8643  0.0182
   47DOPE  C215 6004   1.163   6.089  14.351  0.5771 -0.5674 -0.0249
   47DOPE  H15R 6005   1.114   6.185  14.378  0.9815  0.4306 -2.5586
   47DOPE  H15S 6006   1.164   6.084  14.240 -2.0147  1.8528 -0.2617
   47DOPE  C216 6007   1.296   6.082  14.409  0.6155  1.2133 -0.3528
   47DOPE  H16R 6008   1.346   5.989  14.377  0.4119  1.6926 -2.1904
   47DOPE  H16S 6009   1.278   6.077  14.518  0.8059  2.2999 -0.2544
   47DOPE  C217 6010   1.400   6.194  14.383 -0.1917  0.1222  0.0258
   47DOPE  H17R 6011   1.473   6.184  14.465 -0.2958 -0.7817  0.0130
   47DOPE  H17S 6012   1.340   6.287  14.397  0.2780  0.5307 -0.5985
   47DOPE  C218 6013   1.466   6.193  14.249 -0.7427  0.2922  0.1184
   47DOPE  H18R 6014   1.522   6.097  14.248  1.4130  1.4975 -1.0415
   47DOPE  H18S 6015   1.536   6.279  14.243 -0.7112  0.2838  0.3721
   47DOPE  H18T 6016   1.394   6.201  14.164 -0.7889  1.1935  0.2346
   47DOPE   C33 6017  -0.280   5.603  13.734 -0.0192 -0.4920 -1.0178
   47DOPE   H3X 6018  -0.215   5.522  13.693 -0.6348  0.0303 -3.1332
   47DOPE   H3Y 6019  -0.383   5.592  13.696 -0.5402 -2.4303  0.7351
   47DOPE   C34 6020  -0.265   5.602  13.892 -0.0860  0.3081  0.2228
   47DOPE   H4X 6021  -0.336   5.670  13.944 -1.4560  0.4021 -1.6487
   47DOPE   H4Y 6022  -0.262   5.498  13.931  1.4050 -0.4667 -1.7725
   47DOPE   C35 6023  -0.127   5.658  13.931  0.3699 -0.5073  0.3553
   47DOPE   H5X 6024  -0.122   5.768  13.914  0.2292 -0.5564 -0.0092
   47DOPE   H5Y 6025  -0.045   5.613  13.871 -0.7853  0.2929 -1.9664
   47DOPE   C36 6026  -0.101   5.639  14.079  0.0466 -0.0584 -0.3181
   47DOPE   H6X 6027  -0.095   5.529  14.091 -0.5961  0.0596  1.3774
   47DOPE   H6Y 6028  -0.185   5.679  14.141  0.9216 -1.0402  1.6107
   47DOPE   C37 6029   0.032   5.699  14.125 -0.6616 -0.6222  0.1134
   47DOPE   H7X 6030   0.109   5.640  14.070 -1.1642 -1.0374 -0.1551
   47DOPE   H7Y 6031   0.041   5.801  14.081  0.7626  0.0088  1.7726
   47DOPE   C38 6032   0.075   5.706  14.271  0.1052  0.1481  0.3088
   47DOPE   H8X 6033   0.103   5.605  14.308 -0.3813 -0.6090 -1.2807
   47DOPE   H8Y 6034  -0.012   5.748  14.326  0.8712  1.4400  0.5605
   47DOPE   C39 6035   0.184   5.808  14.282 -0.1305  0.0998  0.0787
   47DOPE   H9X 6036   0.222   5.859  14.192 -3.1275 -1.4535 -2.2284
   47DOPE  C310 6037   0.252   5.832  14.397 -0.1076 -0.0801 -0.2484
   47DOPE  H10X 6038   0.344   5.892  14.390  1.4254 -1.9203  2.4802
   47DOPE  C311 6039   0.233   5.757  14.532 -0.1222 -0.0696 -0.0496
   47DOPE  H11X 6040   0.246   5.648  14.513  2.6442 -0.0194  1.0987
   47DOPE  H11Y 6041   0.315   5.787  14.600  0.2481 -1.6650  0.2553
   47DOPE  C312 6042   0.100   5.788  14.599 -0.0826  0.0003  0.3882
   47DOPE  H12X 6043   0.027   5.715  14.558  0.1715 -1.0197  1.7022
   47DOPE  H12Y 6044   0.064   5.888  14.566  2.7361  0.9363 -0.1652
   47DOPE  C313 6045   0.097   5.786  14.757 -0.2643 -0.2521 -0.2437
   47DOPE  H13X 6046   0.150   5.693  14.787 -0.8897 -0.2849  0.8253
   47DOPE  H13Y 6047   0.156   5.874  14.791  0.5085 -0.1885 -1.6609
   47DOPE  C314 6048  -0.053   5.786  14.805 -0.0697 -0.0500  0.3346
   47DOPE  H14X 6049  -0.106   5.705  14.750  2.3255 -0.8274 -0.9840
   47DOPE  H14Y 6050  -0.092   5.889  14.787 -0.5870 -0.0692  1.2959
   47DOPE  C315 6051  -0.057   5.745  14.957 -0.6898  0.2029 -0.5482
   47DOPE  H15X 6052   0.029   5.791  15.010 -0.4139 -2.3050  1.3328
   47DOPE  H15Y 6053  -0.027   5.639  14.955  1.0948  0.6818 -0.9919
   47DOPE  C316 6054  -0.187   5.785  15.024  0.0488  0.6949 -0.6794
   47DOPE  H16X 6055  -0.210   5.893  15.015  0.9548  0.7855 -2.2680
   47DOPE  H16Y 6056  -0.172   5.757  15.130 -0.3594  0.9644 -0.5493
   47DOPE  C317 6057  -0.304   5.715  14.953 -0.2290 -0.7975 -0.2506
   47DOPE  H17X 6058  -0.397   5.723  15.013 -0.3129 -2.3730 -0.1332
   47DOPE  H17Y 6059  -0.325   5.758  14.853  0.0138 -2.8582 -1.2434
   47DOPE  C318 6060  -0.292   5.563  14.934 -1.2242  0.2335 -0.2830
   47DOPE  H18X 6061  -0.283   5.522  15.037 -0.0704  0.5003 -0.2609
   47DOPE  H18Y 6062  -0.383   5.526  14.882 -1.4629 -1.9221  1.5436
   47DOPE  H18Z 6063  -0.198   5.541  14.879 -1.3286 -0.7017 -0.1103
   48DOPE     N 6064   4.927   1.023  13.118 -0.1891 -0.3487  0.3033
   48DOPE   HN1 6065   4.949   0.992  13.021 -0.1649  0.8726 -0.1080
   48DOPE   HN2 6066   4.989   0.974  13.185  0.4793  0.8805  0.6031
   48DOPE   HN3 6067   4.825   1.009  13.132 -0.0188 -0.3044  1.7721
   48DOPE   C12 6068   4.965   1.162  13.124  0.1490  0.0301 -0.5343
   48DOPE  H12A 6069   4.914   1.214  13.208  0.1144  0.9395 -1.1059
   48DOPE  H12B 6070   4.940   1.212  13.028 -0.6890 -0.5470 -0.6248
   48DOPE   C11 6071   5.119   1.175  13.145  0.1012  0.0418 -0.5354
   48DOPE  H11A 6072   5.137   1.123  13.241  1.1211  2.3533  0.5962
   48DOPE  H11B 6073   5.156   1.278  13.160  2.7289 -1.1467  2.1017
   48DOPE     P 6074   5.337   1.058  13.049 -0.0847 -0.1877 -0.1816
   48DOPE   O13 6075   5.436   1.164  13.049  0.3482 -0.2065  0.0617
   48DOPE   O14 6076   5.361   0.944  12.953  0.0180 -0.2257  0.3249
   48DOPE   O11 6077   5.331   0.999  13.192 -0.3747 -0.8195 -0.4029
   48DOPE   O12 6078   5.188   1.113  13.031  0.2307 -0.0087  0.0671
   48DOPE    C1 6079   5.398   0.884  13.235 -0.1632  0.1294 -0.1457
   48DOPE    HA 6080   5.498   0.869  13.189 -0.9867 -2.3588 -1.2949
   48DOPE    HB 6081   5.340   0.799  13.193 -3.3646  2.4580 -0.7307
   48DOPE    C2 6082   5.409   0.864  13.390 -0.9069 -0.1865 -0.0609
   48DOPE    HS 6083   5.456   0.768  13.420 -0.9986 -0.0450  0.5361
   48DOPE   O21 6084   5.282   0.871  13.455 -0.6259 -0.4473 -0.1007
   48DOPE   C21 6085   5.261   0.803  13.567  0.1196  0.3528  0.4005
   48DOPE   O22 6086   5.338   0.719  13.618 -0.0378  0.8675  0.0999
   48DOPE   C22 6087   5.137   0.840  13.627 -0.3560 -0.4743  0.4840
   48DOPE   H2R 6088   5.074   0.888  13.550  0.2523  0.0624  0.3155
   48DOPE   H2S 6089   5.148   0.908  13.714  0.9348 -0.9545  0.7363
   48DOPE    C3 6090   5.508   0.969  13.445 -0.6096 -0.2421  0.4572
   48DOPE    HX 6091   5.491   1.070  13.402 -1.5315 -0.2252  0.8407
   48DOPE    HY 6092   5.605   0.934  13.404 -0.4948 -0.4955  0.9410
   48DOPE   O31 6093   5.502   0.977  13.585 -0.2149 -0.1871  0.1916
   48DOPE   C31 6094   5.604   0.959  13.655  0.3617  0.4289 -0.1981
   48DOPE   O32 6095   5.711   0.925  13.621 -0.0623 -0.0417  0.0178
   48DOPE   C32 6096   5.582   0.993  13.805  0.1058  0.1598  0.0455
   48DOPE   H2X 6097   5.569   1.103  13.813  0.5064  0.1214  1.5704
   48DOPE   H2Y 6098   5.483   0.948  13.832  0.8353 -1.4018  0.2320
   48DOPE   C23 6099   5.048   0.719  13.680 -0.3122  0.2868 -0.9660
   48DOPE   H3R 6100   5.103   0.656  13.752  0.0758 -1.1323 -2.4469
   48DOPE   H3S 6101   5.029   0.657  13.590  1.6279 -2.0762  0.1472
   48DOPE   C24 6102   4.910   0.760  13.731  0.4504 -0.3542 -0.0858
   48DOPE   H4R 6103   4.847   0.669  13.723 -0.7319  0.3154  1.1614
   48DOPE   H4S 6104   4.864   0.827  13.655  1.5325  0.2768 -0.2026
   48DOPE   C25 6105   4.913   0.822  13.874 -0.2683 -1.2703 -0.5091
   48DOPE   H5R 6106   4.939   0.930  13.866 -1.4456 -1.0166 -1.2155
   48DOPE   H5S 6107   4.992   0.766  13.928 -0.3553 -1.0493 -0.1528
   48DOPE   C26 6108   4.784   0.801  13.951 -0.1273  0.2309 -0.0304
   48DOPE   H6R 6109   4.761   0.694  13.935 -2.3512  0.4739  1.0224
   48DOPE   H6S 6110   4.695   0.852  13.907 -0.5609 -0.2748  0.2465
   48DOPE   C27 6111   4.801   0.835  14.104  0.0037  0.3862  0.1665
   48DOPE   H7R 6112   4.898   0.794  14.139  1.0136 -0.2093 -3.0213
   48DOPE   H7S 6113   4.720   0.777  14.153  1.7233 -1.7087  0.6899
   48DOPE   C28 6114   4.769   0.982  14.128 -0.1877 -0.1906  0.7582
   48DOPE   H8R 6115   4.838   1.048  14.071 -1.0386 -1.4332 -1.8786
   48DOPE   H8S 6116   4.796   0.993  14.235  2.6638  0.1533  0.0906
   48DOPE   C29 6117   4.633   1.035  14.110  0.3686 -0.8642 -0.2880
   48DOPE   H9R 6118   4.612   1.074  14.009 -0.8147 -2.6889 -0.8033
   48DOPE  C210 6119   4.537   1.037  14.203  0.1431  0.0658 -0.3810
   48DOPE  H10R 6120   4.436   1.069  14.173 -0.2698  0.6092  1.4733
   48DOPE  C211 6121   4.549   0.989  14.345 -0.3095 -0.0556 -0.0818
   48DOPE  H11R 6122   4.650   0.946  14.363 -0.2960 -0.2533 -0.6072
   48DOPE  H11S 6123   4.484   0.899  14.353  1.7754 -1.7421 -0.8603
   48DOPE  C212 6124   4.519   1.092  14.448 -0.3801  0.0616  0.5582
   48DOPE  H12R 6125   4.533   1.037  14.544  4.2299 -0.9386 -0.4723
   48DOPE  H12S 6126   4.413   1.127  14.451 -0.8088 -1.2070  0.8260
   48DOPE  C213 6127   4.611   1.218  14.451 -0.3818 -0.1225  0.7168
   48DOPE  H13R 6128   4.591   1.286  14.365 -1.1775  1.3522  1.9985
   48DOPE  H13S 6129   4.721   1.202  14.448 -0.1467  1.4029 -0.1708
   48DOPE  C214 6130   4.583   1.296  14.585  0.3395 -0.0433  0.4038
   48DOPE  H14R 6131   4.583   1.214  14.660  1.5901 -0.9717 -0.5484
   48DOPE  H14S 6132   4.489   1.355  14.586  0.7063  0.5691 -0.3316
   48DOPE  C215 6133   4.679   1.408  14.615  0.0720  0.1895  0.5146
   48DOPE  H15R 6134   4.679   1.474  14.526 -0.3801 -0.8034 -0.2368
   48DOPE  H15S 6135   4.782   1.367  14.625 -0.3183 -0.7796  0.7526
   48DOPE  C216 6136   4.642   1.474  14.746  0.8947 -0.3408 -0.1396
   48DOPE  H16R 6137   4.663   1.410  14.835 -0.3671 -1.2031 -0.4308
   48DOPE  H16S 6138   4.539   1.516  14.751  1.5518  1.3256 -0.0256
   48DOPE  C217 6139   4.715   1.608  14.772  0.2877 -0.2599  1.0643
   48DOPE  H17R 6140   4.824   1.587  14.765  0.7021  0.6837  3.4962
   48DOPE  H17S 6141   4.701   1.635  14.879 -1.7805  0.6939  0.5971
   48DOPE  C218 6142   4.693   1.729  14.674  0.4642  0.3250  0.0504
   48DOPE  H18R 6143   4.723   1.704  14.570  0.3515 -2.5226  0.6450
   48DOPE  H18S 6144   4.762   1.810  14.708 -0.7296  1.6165 -0.4801
   48DOPE  H18T 6145   4.588   1.763  14.688  0.1252 -0.2681 -0.9371
   48DOPE   C33 6146   5.696   0.962  13.905  0.2981 -0.5411 -0.1568
   48DOPE   H3X 6147   5.755   1.055  13.889 -0.2607 -0.2821 -0.7686
   48DOPE   H3Y 6148   5.753   0.869  13.883 -1.1387 -1.0186 -2.2382
   48DOPE   C34 6149   5.646   0.960  14.051  0.9419 -0.3702  0.3134
   48DOPE   H4X 6150   5.564   1.033  14.068 -0.1236 -0.9569 -1.8336
   48DOPE   H4Y 6151   5.608   0.857  14.071  1.8198 -1.0634 -1.3840
   48DOPE   C35 6152   5.783   0.995  14.123 -0.0780 -0.2321 -0.0048
   48DOPE   H5X 6153   5.812   1.100  14.100  1.2637 -0.8148 -1.1885
   48DOPE   H5Y 6154   5.875   0.938  14.095  0.0470 -1.1133  2.0240
   48DOPE   C36 6155   5.757   0.955  14.282 -0.4047  0.1358  0.1501
   48DOPE   H6X 6156   5.793   0.850  14.288  0.9887  0.4602 -1.5112
   48DOPE   H6Y 6157   5.650   0.971  14.308 -0.4538  1.1305 -0.5859
   48DOPE   C37 6158   5.829   1.044  14.387 -0.0207 -0.3515  0.0703
   48DOPE   H7X 6159   5.940   1.040  14.385  0.1381  2.4200 -0.0649
   48DOPE   H7Y 6160   5.806   1.151  14.372  0.0538 -0.1138  1.4640
   48DOPE   C38 6161   5.798   1.006  14.534  0.1923 -0.2124  1.1627
   48DOPE   H8X 6162   5.864   0.931  14.582  0.9026  0.1062  0.6966
   48DOPE   H8Y 6163   5.702   0.950  14.542  0.9446 -1.3263  3.1201
   48DOPE   C39 6164   5.795   1.115  14.640  0.4289 -0.1069  0.7485
   48DOPE   H9X 6165   5.890   1.125  14.695 -0.2808  1.9552  1.7041
   48DOPE  C310 6166   5.685   1.178  14.672  0.4386 -0.4634 -0.3850
   48DOPE  H10X 6167   5.685   1.234  14.767  1.7036 -2.7024  1.0178
   48DOPE  C311 6168   5.541   1.155  14.617 -0.7096  0.0975  0.4562
   48DOPE  H11X 6169   5.537   1.055  14.569  0.1788 -0.6220  1.7980
   48DOPE  H11Y 6170   5.469   1.143  14.701 -2.0914  1.3759 -0.4841
   48DOPE  C312 6171   5.494   1.262  14.517 -0.3439 -0.1087 -0.5917
   48DOPE  H12X 6172   5.569   1.283  14.437  0.2962 -0.0773  0.0128
   48DOPE  H12Y 6173   5.486   1.354  14.577  1.0251 -1.4102  1.7323
   48DOPE  C313 6174   5.353   1.225  14.448 -0.3231  0.2188 -1.2089
   48DOPE  H13X 6175   5.281   1.189  14.525 -0.2898 -2.0272 -2.1729
   48DOPE  H13Y 6176   5.313   1.320  14.408 -1.0384  0.8915  0.9456
   48DOPE  C314 6177   5.351   1.126  14.335  0.3130  0.2643 -0.4055
   48DOPE  H14X 6178   5.437   1.056  14.340 -0.1700 -0.5817 -2.6419
   48DOPE  H14Y 6179   5.355   1.183  14.240 -0.5314 -1.1647 -1.3450
   48DOPE  C315 6180   5.217   1.049  14.322  0.4748  0.0755 -0.0573
   48DOPE  H15X 6181   5.130   1.119  14.326  1.1430  1.0244 -1.3293
   48DOPE  H15Y 6182   5.207   0.983  14.410  1.5219  1.5066  1.1816
   48DOPE  C316 6183   5.217   0.972  14.184  0.2052 -0.3358 -0.3688
   48DOPE  H16X 6184   5.256   1.042  14.107  1.2272 -1.2333 -0.6878
   48DOPE  H16Y 6185   5.111   0.942  14.170 -0.4631  2.3056 -1.6448
   48DOPE  C317 6186   5.305   0.842  14.182 -0.1890  0.2323 -0.7243
   48DOPE  H17X 6187   5.409   0.868  14.212 -0.6931  0.2541  1.1459
   48DOPE  H17Y 6188   5.279   0.766  14.259 -0.8721 -0.3028 -1.4779
   48DOPE  C318 6189   5.298   0.772  14.045  0.1716 -0.3093 -0.3825
   48DOPE  H18X 6190   5.191   0.747  14.028 -0.5910  0.8730  2.2152
   48DOPE  H18Y 6191   5.342   0.838  13.968  2.4767 -1.3938 -0.1164
   48DOPE  H18Z 6192   5.353   0.675  14.041  0.7200  0.0344 -1.8844
   49DOPE     N 6193   0.477   6.555  13.262  0.0170 -0.2170 -0.1409
   49DOPE   HN1 6194   0.569   6.529  13.222  0.2401 -0.2442  0.3733
   49DOPE   HN2 6195   0.409   6.578  13.187  0.3506  2.4817  0.2893
   49DOPE   HN3 6196   0.490   6.639  13.321  0.0619  0.3066 -0.8892
   49DOPE   C12 6197   0.416   6.443  13.349 -0.1394 -0.3809 -0.2767
   49DOPE  H12A 6198   0.320   6.483  13.389  0.1300 -0.6575  0.6656
   49DOPE  H12B 6199   0.484   6.438  13.436  3.1969  0.9219 -2.5623
   49DOPE   C11 6200   0.403   6.315  13.268 -0.7746 -1.1737  0.1504
   49DOPE  H11A 6201   0.356   6.324  13.168  2.6090 -1.0755 -1.5470
   49DOPE  H11B 6202   0.349   6.249  13.340 -1.0967  1.2366  2.2870
   49DOPE     P 6203   0.551   6.114  13.213  0.0917  0.1396 -0.0256
   49DOPE   O13 6204   0.678   6.085  13.144  0.1097  0.2041  0.7949
   49DOPE   O14 6205   0.427   6.068  13.153 -0.2581  0.1899  0.7027
   49DOPE   O11 6206   0.547   6.064  13.362  0.1660 -0.1228 -0.4708
   49DOPE   O12 6207   0.532   6.259  13.249  0.5424  0.7555  0.2507
   49DOPE    C1 6208   0.636   6.115  13.460 -1.0605  0.8540  0.2752
   49DOPE    HA 6209   0.619   6.224  13.475 -2.4786  0.4251  2.3480
   49DOPE    HB 6210   0.740   6.092  13.432 -1.2668 -1.0310  0.9086
   49DOPE    C2 6211   0.611   6.045  13.594  0.0569 -0.3981  0.5805
   49DOPE    HS 6212   0.659   6.104  13.675 -2.7708  2.3674  0.4540
   49DOPE   O21 6213   0.650   5.910  13.595  0.2855  0.1935 -0.2690
   49DOPE   C21 6214   0.775   5.891  13.630 -0.4849  0.1298  0.0561
   49DOPE   O22 6215   0.863   5.974  13.649 -0.0912  0.8380 -0.0462
   49DOPE   C22 6216   0.787   5.743  13.632 -0.0679  0.2478 -0.0503
   49DOPE   H2R 6217   0.778   5.706  13.528 -0.4685  2.8645 -1.0337
   49DOPE   H2S 6218   0.708   5.698  13.696  1.5524  1.1844  2.7815
   49DOPE    C3 6219   0.462   6.057  13.625  0.3533  0.1250  0.1728
   49DOPE    HX 6220   0.402   5.995  13.555  2.5972 -1.4368 -0.4618
   49DOPE    HY 6221   0.450   6.164  13.598  2.6239  0.1580 -0.9292
   49DOPE   O31 6222   0.426   6.034  13.764 -0.0351  0.0491  0.3996
   49DOPE   C31 6223   0.329   6.101  13.815 -0.0972 -0.0535  0.3371
   49DOPE   O32 6224   0.269   6.196  13.770  0.3325 -0.5169 -0.1513
   49DOPE   C32 6225   0.314   6.040  13.952  0.2513 -0.6327  0.5370
   49DOPE   H2X 6226   0.256   5.946  13.941 -0.8359  0.3029 -2.6970
   49DOPE   H2Y 6227   0.410   5.994  13.982  0.8210 -1.6280 -2.5228
   49DOPE   C23 6228   0.929   5.690  13.676 -0.5066 -0.2157 -0.0774
   49DOPE   H3R 6229   1.004   5.753  13.624  0.3115 -1.9326 -1.0779
   49DOPE   H3S 6230   0.937   5.583  13.649  0.0514  0.0021 -0.8180
   49DOPE   C24 6231   0.935   5.710  13.827  0.0562  0.4093 -0.1291
   49DOPE   H4R 6232   0.846   5.658  13.868  0.2983 -1.7976 -2.1514
   49DOPE   H4S 6233   0.912   5.813  13.859  0.7144  0.7664 -0.7694
   49DOPE   C25 6234   1.058   5.650  13.886  0.2727 -0.8801  0.3737
   49DOPE   H5R 6235   1.154   5.701  13.866  0.9719 -2.5567 -0.8433
   49DOPE   H5S 6236   1.079   5.549  13.843  1.3085 -0.8866  0.8654
   49DOPE   C26 6237   1.036   5.634  14.041 -0.0819 -0.2718 -0.1453
   49DOPE   H6R 6238   0.955   5.560  14.057  1.7645 -2.6036 -1.1164
   49DOPE   H6S 6239   0.999   5.732  14.079  0.7943  0.8115 -1.9586
   49DOPE   C27 6240   1.158   5.579  14.111  0.1038 -0.0316 -1.0721
   49DOPE   H7R 6241   1.242   5.653  14.112 -0.7086  0.9308  0.2047
   49DOPE   H7S 6242   1.190   5.493  14.049  0.2121  0.0202 -1.0894
   49DOPE   C28 6243   1.140   5.521  14.253  0.0950 -0.1216 -0.2486
   49DOPE   H8R 6244   1.056   5.450  14.234 -0.4284  0.0806  1.2139
   49DOPE   H8S 6245   1.095   5.595  14.322 -1.7253 -2.4905  1.2912
   49DOPE   C29 6246   1.256   5.436  14.302 -0.1999 -0.6699  0.0734
   49DOPE   H9R 6247   1.273   5.350  14.236  1.3693  1.4285 -2.4616
   49DOPE  C210 6248   1.329   5.475  14.408 -0.1592  0.2847 -0.7785
   49DOPE  H10R 6249   1.410   5.411  14.445 -1.1821 -0.0203  1.0505
   49DOPE  C211 6250   1.311   5.600  14.487  0.6849 -0.7171 -0.6491
   49DOPE  H11R 6251   1.232   5.664  14.441  0.8981 -1.1272 -1.6177
   49DOPE  H11S 6252   1.405   5.659  14.489  0.4396 -0.3385  0.1880
   49DOPE  C212 6253   1.270   5.572  14.630  0.0247 -0.2620 -0.2906
   49DOPE  H12R 6254   1.292   5.665  14.687  2.8611  0.8793 -2.9480
   49DOPE  H12S 6255   1.327   5.482  14.660  0.8893 -0.2922 -1.9065
   49DOPE  C213 6256   1.125   5.543  14.649  0.1038  0.4131 -0.4091
   49DOPE  H13R 6257   1.099   5.438  14.624  0.3743  0.0740  0.6708
   49DOPE  H13S 6258   1.070   5.616  14.585  2.2716  0.5873 -2.2236
   49DOPE  C214 6259   1.078   5.564  14.792  0.6394  0.1205 -0.5806
   49DOPE  H14R 6260   1.102   5.670  14.816 -0.9935  0.3262  0.2778
   49DOPE  H14S 6261   1.131   5.489  14.853 -2.7476 -2.2799 -0.3134
   49DOPE  C215 6262   0.919   5.555  14.806 -1.0270  0.8557  0.2772
   49DOPE  H15R 6263   0.892   5.459  14.759  2.1562  1.1604 -2.6076
   49DOPE  H15S 6264   0.872   5.623  14.732 -2.8299 -0.8291 -0.1892
   49DOPE  C216 6265   0.866   5.572  14.940 -0.2709 -0.3008  0.6280
   49DOPE  H16R 6266   0.900   5.499  15.016  1.2677  0.0447  0.3030
   49DOPE  H16S 6267   0.755   5.565  14.936 -0.3033 -0.0024  0.9354
   49DOPE  C217 6268   0.901   5.712  14.996  0.7881 -0.1757 -0.2463
   49DOPE  H17R 6269   0.887   5.788  14.917  0.2859 -0.1394 -0.1268
   49DOPE  H17S 6270   1.009   5.710  15.019  0.4880  0.3363  1.3844
   49DOPE  C218 6271   0.826   5.745  15.134 -0.1016  0.0917  0.3709
   49DOPE  H18R 6272   0.723   5.785  15.121  0.0845  0.8226  1.0648
   49DOPE  H18S 6273   0.884   5.833  15.170  0.5483  0.6748 -1.9268
   49DOPE  H18T 6274   0.850   5.673  15.215  1.9029  2.7413  2.3249
   49DOPE   C33 6275   0.240   6.130  14.057 -0.3320 -0.5348  0.2192
   49DOPE   H3X 6276   0.201   6.071  14.143 -0.3496 -0.2982  0.3745
   49DOPE   H3Y 6277   0.150   6.169  14.005 -1.5215 -0.3220  2.3101
   49DOPE   C34 6278   0.340   6.236  14.109  0.0129 -0.0499 -0.2355
   49DOPE   H4X 6279   0.357   6.316  14.034 -0.5386  1.5548  1.2766
   49DOPE   H4Y 6280   0.284   6.298  14.182 -1.4267  0.0835 -1.4326
   49DOPE   C35 6281   0.474   6.184  14.170 -0.2106  0.0201  0.3250
   49DOPE   H5X 6282   0.540   6.139  14.093 -0.0610 -1.2907  1.1936
   49DOPE   H5Y 6283   0.446   6.108  14.246 -1.5963 -1.6954 -1.7893
   49DOPE   C36 6284   0.538   6.305  14.230  0.4542  0.3859 -0.1601
   49DOPE   H6X 6285   0.471   6.351  14.306 -0.7825  0.3375 -1.1776
   49DOPE   H6Y 6286   0.561   6.381  14.152  1.7080 -0.8113 -1.0095
   49DOPE   C37 6287   0.676   6.271  14.291 -0.3793  0.1931 -0.1482
   49DOPE   H7X 6288   0.673   6.173  14.344  2.3188  0.6902  1.0980
   49DOPE   H7Y 6289   0.757   6.266  14.215  1.6145 -0.5257  1.9101
   49DOPE   C38 6290   0.708   6.378  14.395 -0.4175 -0.1207  0.7460
   49DOPE   H8X 6291   0.624   6.394  14.466 -2.3424  1.9236 -1.7827
   49DOPE   H8Y 6292   0.707   6.475  14.341  0.3378 -0.0664  0.8176
   49DOPE   C39 6293   0.846   6.373  14.455  0.1920  0.1761 -0.6942
   49DOPE   H9X 6294   0.863   6.270  14.489 -0.5661 -0.7452 -2.9070
   49DOPE  C310 6295   0.936   6.465  14.473  0.1222  0.2215  0.1004
   49DOPE  H10X 6296   1.035   6.446  14.518 -1.2673 -0.2459  3.1862
   49DOPE  C311 6297   0.919   6.605  14.434 -0.4411 -0.8129  0.1188
   49DOPE  H11X 6298   1.001   6.631  14.363  2.0202  2.9538  3.8598
   49DOPE  H11Y 6299   0.823   6.628  14.384  0.2709  1.7470 -0.2140
   49DOPE  C312 6300   0.934   6.699  14.557  0.6962 -0.7333 -0.2088
   49DOPE  H12X 6301   0.845   6.675  14.619  0.0048  0.7845 -0.5663
   49DOPE  H12Y 6302   0.927   6.806  14.527  1.1809 -1.0738 -1.6422
   49DOPE  C313 6303   1.068   6.683  14.630 -1.0048 -0.3172  0.1998
   49DOPE  H13X 6304   1.076   6.594  14.696 -0.2587  1.1717  2.2580
   49DOPE  H13Y 6305   1.150   6.668  14.557 -1.6429 -0.5133 -0.4852
   49DOPE  C314 6306   1.106   6.803  14.712 -0.7361  0.1505  0.0632
   49DOPE  H14X 6307   1.098   6.892  14.646  0.6805  0.6329  0.5235
   49DOPE  H14Y 6308   1.211   6.793  14.746 -0.5783  0.8235 -0.2167
   49DOPE  C315 6309   1.018   6.825  14.833  0.2595  0.4228 -0.3124
   49DOPE  H15X 6310   1.013   6.728  14.888 -0.9665  1.1625  0.9412
   49DOPE  H15Y 6311   0.915   6.837  14.792 -0.0388 -2.7769 -0.7916
   49DOPE  C316 6312   1.072   6.930  14.928  0.1579  0.2367  0.2924
   49DOPE  H16X 6313   1.085   7.026  14.874 -0.2711 -0.0874 -0.3968
   49DOPE  H16Y 6314   1.172   6.901  14.967  1.4115  3.9282  0.1921
   49DOPE  C317 6315   0.974   6.956  15.047 -0.5055  0.2036  0.1474
   49DOPE  H17X 6316   0.871   6.960  15.005  0.3656 -3.2366 -2.7378
   49DOPE  H17Y 6317   0.974   6.863  15.108 -1.8630 -0.9033 -1.4363
   49DOPE  C318 6318   1.005   7.081  15.134  0.1049 -0.5110  0.0826
   49DOPE  H18X 6319   1.017   7.171  15.071  1.3462  0.3092  1.4325
   49DOPE  H18Y 6320   0.913   7.102  15.193  1.1844  1.1747  1.2379
   49DOPE  H18Z 6321   1.092   7.058  15.199 -0.7446  0.6785  1.7281
   50DOPE     N 6322   7.411   3.819  12.971 -0.1923  0.2418  0.2886
   50DOPE   HN1 6323   7.374   3.916  12.981 -1.8658 -0.5767  3.1395
   50DOPE   HN2 6324   7.479   3.807  13.049  0.5942  0.1911 -0.3898
   50DOPE   HN3 6325   7.454   3.817  12.876 -1.6434 -0.1311 -0.3883
   50DOPE   C12 6326   7.289   3.735  12.999  0.5817 -0.2719  0.3626
   50DOPE  H12A 6327   7.206   3.787  12.947  2.6102  0.6091 -2.2170
   50DOPE  H12B 6328   7.279   3.734  13.110  0.4228  0.7884  0.3714
   50DOPE   C11 6329   7.316   3.595  12.940  0.1673 -0.0861 -0.5064
   50DOPE  H11A 6330   7.339   3.598  12.831  1.2747 -1.8226 -0.3558
   50DOPE  H11B 6331   7.222   3.537  12.952 -1.5782  2.5784 -0.3973
   50DOPE     P 6332   7.447   3.375  13.028  0.2182  0.2029 -0.3814
   50DOPE   O13 6333   7.594   3.355  13.034  0.7180 -0.1974 -0.2327
   50DOPE   O14 6334   7.378   3.299  12.918  0.4969 -0.2650 -0.2431
   50DOPE   O11 6335   7.390   3.337  13.168 -0.7367 -0.1365  0.1868
   50DOPE   O12 6336   7.427   3.530  13.011  0.5523 -0.3746  1.1883
   50DOPE    C1 6337   7.358   3.428  13.278 -0.4629  0.0695  0.1564
   50DOPE    HA 6338   7.274   3.493  13.247  0.9755  0.9261 -2.1527
   50DOPE    HB 6339   7.446   3.489  13.310 -1.5666 -0.3103  4.6526
   50DOPE    C2 6340   7.302   3.346  13.398  0.1049  0.4798 -0.2533
   50DOPE    HS 6341   7.254   3.424  13.461 -2.3628  0.2221 -1.6554
   50DOPE   O21 6342   7.403   3.261  13.456  0.7358  0.2248  0.3170
   50DOPE   C21 6343   7.466   3.325  13.550 -0.1091 -0.2865  0.3279
   50DOPE   O22 6344   7.426   3.426  13.603 -0.4435  0.6563 -0.3716
   50DOPE   C22 6345   7.570   3.228  13.603 -0.1656  0.2766  0.0473
   50DOPE   H2R 6346   7.661   3.217  13.541  0.3044  1.9027  0.4059
   50DOPE   H2S 6347   7.519   3.129  13.604 -0.1716  0.2503 -1.3546
   50DOPE    C3 6348   7.178   3.271  13.341  0.4489  0.2960 -0.2532
   50DOPE    HX 6349   7.214   3.203  13.261 -2.2135 -1.2405 -0.2542
   50DOPE    HY 6350   7.114   3.351  13.297  1.0501 -0.2534 -2.2371
   50DOPE   O31 6351   7.117   3.196  13.450  0.2746 -0.5131 -0.1971
   50DOPE   C31 6352   6.995   3.231  13.490  0.0375 -0.1127  0.3348
   50DOPE   O32 6353   6.924   3.311  13.433 -0.3501 -0.0643  0.3648
   50DOPE   C32 6354   6.968   3.159  13.627  0.3269 -0.0487  0.0885
   50DOPE   H2X 6355   6.865   3.191  13.654  0.6253  1.8845 -0.8910
   50DOPE   H2Y 6356   6.968   3.053  13.593 -0.3307  0.5621 -1.9559
   50DOPE   C23 6357   7.624   3.248  13.750 -0.0727  0.9242  0.0348
   50DOPE   H3R 6358   7.657   3.353  13.764  1.6666  0.6242 -1.3936
   50DOPE   H3S 6359   7.708   3.183  13.783 -0.7457 -0.5226 -0.9710
   50DOPE   C24 6360   7.512   3.220  13.859  0.1858  0.0226 -0.8517
   50DOPE   H4R 6361   7.461   3.123  13.841 -0.6488  0.7737 -2.8392
   50DOPE   H4S 6362   7.427   3.290  13.843  1.5429  2.1787  0.7183
   50DOPE   C25 6363   7.560   3.227  13.999 -0.4065 -0.4663 -0.3487
   50DOPE   H5R 6364   7.657   3.174  13.995 -0.6375 -1.1060  1.5612
   50DOPE   H5S 6365   7.490   3.202  14.081 -0.4528  1.0976  0.1173
   50DOPE   C26 6366   7.595   3.378  14.040  0.9688  0.6129 -0.0238
   50DOPE   H6R 6367   7.503   3.441  14.030  2.2444  2.6082  0.2091
   50DOPE   H6S 6368   7.677   3.419  13.977  1.4917 -0.4788 -0.0791
   50DOPE   C27 6369   7.652   3.374  14.178  0.2612  0.0795 -0.1241
   50DOPE   H7R 6370   7.736   3.301  14.173 -0.2505 -0.4465 -3.5306
   50DOPE   H7S 6371   7.582   3.328  14.251  1.3360 -0.8750  0.3614
   50DOPE   C28 6372   7.706   3.509  14.218 -0.2799  0.0263 -0.8060
   50DOPE   H8R 6373   7.784   3.539  14.145 -0.1705 -0.1607 -0.7674
   50DOPE   H8S 6374   7.766   3.500  14.311  0.1507 -1.2752 -1.1855
   50DOPE   C29 6375   7.595   3.611  14.220 -0.6319 -1.1023  0.8161
   50DOPE   H9R 6376   7.512   3.611  14.147 -1.3378  1.9314  1.4740
   50DOPE  C210 6377   7.578   3.715  14.306  0.3361  0.4155  0.1331
   50DOPE  H10R 6378   7.485   3.773  14.304 -1.3458 -1.9677  2.3759
   50DOPE  C211 6379   7.661   3.748  14.429 -0.1287 -0.3080  0.8077
   50DOPE  H11R 6380   7.694   3.854  14.438  0.2173 -0.4214  0.8950
   50DOPE  H11S 6381   7.754   3.688  14.443  2.3930  3.0029 -0.3607
   50DOPE  C212 6382   7.574   3.753  14.557 -0.5573  0.0040  0.1332
   50DOPE  H12R 6383   7.636   3.780  14.645  0.3322  1.5762 -0.9184
   50DOPE  H12S 6384   7.537   3.653  14.585  0.0018 -0.0916  0.5594
   50DOPE  C213 6385   7.467   3.868  14.564 -0.1462  0.6953 -0.0030
   50DOPE  H13R 6386   7.398   3.869  14.477  0.9341  1.3128 -0.8732
   50DOPE  H13S 6387   7.531   3.958  14.569 -1.6547  1.8864 -0.9275
   50DOPE  C214 6388   7.370   3.852  14.690  0.2912 -0.5892  0.4495
   50DOPE  H14R 6389   7.336   3.955  14.714  0.9871 -0.5430  1.2456
   50DOPE  H14S 6390   7.432   3.817  14.775 -0.0007 -3.1330 -0.2805
   50DOPE  C215 6391   7.251   3.754  14.663 -0.4359  0.3699  0.0691
   50DOPE  H15R 6392   7.297   3.653  14.659  0.4586  0.8047 -1.6274
   50DOPE  H15S 6393   7.215   3.786  14.563 -2.0684 -1.3694  0.0645
   50DOPE  C216 6394   7.131   3.757  14.757  0.3383  0.1350  0.5802
   50DOPE  H16R 6395   7.077   3.851  14.737 -0.9371 -1.0708 -2.2207
   50DOPE  H16S 6396   7.156   3.765  14.865  0.9347 -0.7370  0.5253
   50DOPE  C217 6397   7.033   3.645  14.736  0.4674  0.5034  0.6183
   50DOPE  H17R 6398   7.079   3.546  14.754  2.7376  1.6648  1.5411
   50DOPE  H17S 6399   6.996   3.642  14.631  2.2931 -0.9666 -0.0318
   50DOPE  C218 6400   6.923   3.657  14.845  0.0059  0.0136  0.5636
   50DOPE  H18R 6401   6.866   3.751  14.831 -1.9108 -0.9553  1.3784
   50DOPE  H18S 6402   6.978   3.662  14.942 -0.5549 -0.9662  0.9583
   50DOPE  H18T 6403   6.849   3.575  14.859 -0.1238  0.4897  3.2953
   50DOPE   C33 6404   7.076   3.176  13.739  0.3187 -0.0923  0.6690
   50DOPE   H3X 6405   7.102   3.284  13.745  1.4150 -0.2927 -0.1142
   50DOPE   H3Y 6406   7.170   3.120  13.719  0.0232 -1.0611  1.8432
   50DOPE   C34 6407   7.013   3.133  13.873 -0.0020 -0.1282 -0.7834
   50DOPE   H4X 6408   6.944   3.218  13.895 -0.9834 -0.8319 -1.0954
   50DOPE   H4Y 6409   6.952   3.040  13.867  1.0502 -0.9484  0.6979
   50DOPE   C35 6410   7.116   3.135  13.989  0.2808 -0.2796  0.1851
   50DOPE   H5X 6411   7.194   3.209  13.962  0.4789 -0.4170  0.3787
   50DOPE   H5Y 6412   7.150   3.029  13.992 -0.9576 -0.7020  0.2856
   50DOPE   C36 6413   7.061   3.186  14.119 -0.5619 -0.1889 -0.2247
   50DOPE   H6X 6414   6.978   3.124  14.158 -1.1447 -0.7976 -2.3605
   50DOPE   H6Y 6415   7.014   3.287  14.111 -1.1428 -0.5534 -1.5709
   50DOPE   C37 6416   7.175   3.193  14.224  0.1209  0.2370  0.6831
   50DOPE   H7X 6417   7.226   3.095  14.237 -0.3027  0.1902  2.0996
   50DOPE   H7Y 6418   7.259   3.257  14.188  0.0570 -0.0605 -0.0154
   50DOPE   C38 6419   7.120   3.236  14.358 -0.5931 -0.1915  0.5361
   50DOPE   H8X 6420   7.043   3.314  14.347  0.3788  0.9439  1.5311
   50DOPE   H8Y 6421   7.194   3.295  14.415 -0.6664 -1.1889  1.7032
   50DOPE   C39 6422   7.079   3.113  14.432  0.7209  0.0885  0.2732
   50DOPE   H9X 6423   7.026   3.036  14.373 -2.4179  0.6834  2.0591
   50DOPE  C310 6424   7.082   3.106  14.564  0.0793 -0.3860 -0.1936
   50DOPE  H10X 6425   7.039   3.016  14.611  1.6346 -0.4938  1.1399
   50DOPE  C311 6426   7.129   3.218  14.654 -0.0409  0.0155 -0.0189
   50DOPE  H11X 6427   7.232   3.197  14.691 -1.4833 -3.1091  2.8716
   50DOPE  H11Y 6428   7.114   3.316  14.606  0.8396 -0.6585 -1.7632
   50DOPE  C312 6429   7.042   3.221  14.784 -0.4540 -0.0235  0.3013
   50DOPE  H12X 6430   7.075   3.311  14.839 -1.0154  1.4068 -1.5879
   50DOPE  H12Y 6431   7.054   3.135  14.853 -2.1025 -0.9812 -0.5318
   50DOPE  C313 6432   6.895   3.241  14.764 -0.1145  0.1192 -0.2702
   50DOPE  H13X 6433   6.870   3.313  14.682 -0.2568 -0.0398 -0.3682
   50DOPE  H13Y 6434   6.852   3.145  14.727 -0.8076 -0.2337  1.3684
   50DOPE  C314 6435   6.832   3.274  14.898  0.3458  0.3409 -0.0217
   50DOPE  H14X 6436   6.883   3.367  14.931 -0.8426 -0.2772  4.0321
   50DOPE  H14Y 6437   6.847   3.189  14.968 -0.0335 -0.3702 -0.7761
   50DOPE  C315 6438   6.684   3.297  14.888  0.2891  0.3186  0.2899
   50DOPE  H15X 6439   6.639   3.209  14.837  0.3206  0.5609 -0.1616
   50DOPE  H15Y 6440   6.681   3.393  14.833 -0.7375  0.5289  0.7008
   50DOPE  C316 6441   6.615   3.315  15.022  0.2813  0.0089 -0.1089
   50DOPE  H16X 6442   6.678   3.322  15.113 -0.3404  1.3519  0.2497
   50DOPE  H16Y 6443   6.542   3.234  15.040 -0.3195  0.7874  1.0792
   50DOPE  C317 6444   6.531   3.446  15.012 -0.0265 -0.2690 -0.1991
   50DOPE  H17X 6445   6.596   3.534  15.028 -0.0719 -0.3641  0.5173
   50DOPE  H17Y 6446   6.490   3.451  14.908  0.8103  1.4478 -0.4859
   50DOPE  C318 6447   6.422   3.452  15.121  0.4091  0.4489 -0.1023
   50DOPE  H18X 6448   6.448   3.453  15.229 -2.5732 -0.1085  0.7107
   50DOPE  H18Y 6449   6.359   3.543  15.108 -1.4027 -0.8906 -1.2822
   50DOPE  H18Z 6450   6.354   3.364  15.109 -0.8347  1.3777 -0.1231
   51DOPE     N 6451   1.585   7.157  13.167 -0.9735  0.3473  0.0114
   51DOPE   HN1 6452   1.584   7.211  13.078  0.2038  0.5906  0.1421
   51DOPE   HN2 6453   1.497   7.103  13.184 -1.0059  0.5629  0.5598
   51DOPE   HN3 6454   1.603   7.233  13.235  1.5203  0.0319 -0.2086
   51DOPE   C12 6455   1.707   7.066  13.175 -0.3810 -0.0386  0.7354
   51DOPE  H12A 6456   1.665   6.967  13.148  0.2514  0.5550 -2.9468
   51DOPE  H12B 6457   1.744   7.078  13.279 -0.8111 -0.6663  0.9622
   51DOPE   C11 6458   1.805   7.123  13.072  0.5275 -0.2780 -0.6321
   51DOPE  H11A 6459   1.747   7.126  12.978 -0.8520  0.3251  0.2015
   51DOPE  H11B 6460   1.895   7.066  13.039  3.4344  2.1882  2.2851
   51DOPE     P 6461   1.953   7.337  13.028 -0.1308  0.1575 -0.0638
   51DOPE   O13 6462   1.877   7.448  12.970  0.4152  0.0407  0.5301
   51DOPE   O14 6463   2.021   7.243  12.944 -0.1394  0.5766 -0.0319
   51DOPE   O11 6464   2.047   7.396  13.140 -0.6927 -0.5978  0.4677
   51DOPE   O12 6465   1.845   7.251  13.107  0.1374 -0.6013 -0.0237
   51DOPE    C1 6466   2.004   7.436  13.269  0.3287 -0.1374 -0.0970
   51DOPE    HA 6467   1.904   7.483  13.256  1.1589  1.4928 -0.8013
   51DOPE    HB 6468   2.077   7.509  13.309  0.2785 -0.3915  0.4659
   51DOPE    C2 6469   1.992   7.324  13.381  0.5628  0.0751 -0.2451
   51DOPE    HS 6470   1.883   7.299  13.385  0.2687  1.4439  0.9292
   51DOPE   O21 6471   2.025   7.389  13.501 -0.8393 -0.1007  0.0925
   51DOPE   C21 6472   1.930   7.447  13.582  0.4908 -0.5845  0.4091
   51DOPE   O22 6473   1.805   7.434  13.570 -0.3631 -0.1073  0.6192
   51DOPE   C22 6474   2.013   7.514  13.696  0.6752  0.5670  0.7762
   51DOPE   H2R 6475   2.079   7.589  13.648  3.6309 -1.6627  1.0740
   51DOPE   H2S 6476   2.087   7.444  13.740  0.4738  0.9840  1.8150
   51DOPE    C3 6477   2.082   7.193  13.360 -0.6074  0.7675  0.1454
   51DOPE    HX 6478   2.181   7.234  13.331 -0.2982  1.3534  1.9536
   51DOPE    HY 6479   2.042   7.139  13.271  2.2128  0.5156 -1.0990
   51DOPE   O31 6480   2.102   7.113  13.484  0.2660 -0.2349  0.2441
   51DOPE   C31 6481   2.035   7.000  13.488  0.2200  0.1116  0.2167
   51DOPE   O32 6482   1.971   6.954  13.396  0.1336 -0.0401 -0.4272
   51DOPE   C32 6483   2.028   6.942  13.631 -0.3574  0.4332  0.4926
   51DOPE   H2X 6484   2.077   6.843  13.623  0.6174  0.7138  2.4898
   51DOPE   H2Y 6485   2.098   7.005  13.690  0.1096  1.8453 -1.4817
   51DOPE   C23 6486   1.924   7.564  13.809  0.4704  0.5165 -0.2476
   51DOPE   H3R 6487   1.902   7.471  13.866  1.9116  0.4137  0.1895
   51DOPE   H3S 6488   1.830   7.600  13.762  0.3470  2.4029  1.3445
   51DOPE   C24 6489   1.986   7.666  13.894  0.3439 -0.4901  0.3153
   51DOPE   H4R 6490   2.019   7.757  13.840 -0.8250 -1.0245 -1.3640
   51DOPE   H4S 6491   2.081   7.636  13.941  0.2360 -0.3989  0.5967
   51DOPE   C25 6492   1.888   7.717  13.998  0.1417  0.2834 -0.3141
   51DOPE   H5R 6493   1.842   7.636  14.059 -1.5090  0.1797 -1.6124
   51DOPE   H5S 6494   1.804   7.764  13.942 -1.1478 -1.8242 -0.2797
   51DOPE   C26 6495   1.936   7.829  14.087  0.5382  0.1477 -1.0193
   51DOPE   H6R 6496   1.861   7.847  14.166  2.9489 -0.6712  1.6434
   51DOPE   H6S 6497   1.962   7.918  14.026  1.6453  0.8591  0.4253
   51DOPE   C27 6498   2.060   7.802  14.169 -0.2997  1.0940 -0.4853
   51DOPE   H7R 6499   2.137   7.794  14.090 -0.9402  1.5362 -1.1747
   51DOPE   H7S 6500   2.049   7.703  14.220  3.2474  1.1757  0.6747
   51DOPE   C28 6501   2.087   7.909  14.271 -0.2200 -0.1259  0.1697
   51DOPE   H8R 6502   1.997   7.915  14.336 -1.2058  1.0150 -1.2100
   51DOPE   H8S 6503   2.086   8.004  14.213 -2.3849 -0.6413 -0.7711
   51DOPE   C29 6504   2.213   7.902  14.350 -0.3465  0.5508 -0.0798
   51DOPE   H9R 6505   2.296   7.850  14.300  0.1589 -0.9430  2.1684
   51DOPE  C210 6506   2.222   7.943  14.481 -0.3445 -0.8275  0.8983
   51DOPE  H10R 6507   2.319   7.932  14.532  0.1057  1.9960  0.8186
   51DOPE  C211 6508   2.104   8.002  14.558  0.1219 -0.7166 -0.2915
   51DOPE  H11R 6509   2.006   7.997  14.506 -0.9808 -1.3303  1.7734
   51DOPE  H11S 6510   2.129   8.109  14.572 -0.0308 -1.1014  4.1506
   51DOPE  C212 6511   2.082   7.923  14.691 -0.9655  0.5335  0.0361
   51DOPE  H12R 6512   2.001   7.971  14.750 -0.6011  0.9214  0.2256
   51DOPE  H12S 6513   2.168   7.926  14.762 -0.3269 -0.1309 -0.6969
   51DOPE  C213 6514   2.043   7.774  14.675  0.0275  0.1592 -0.6813
   51DOPE  H13R 6515   2.061   7.726  14.774  3.4523 -1.1973 -1.7821
   51DOPE  H13S 6516   2.110   7.725  14.601 -0.1215  0.2159 -0.8545
   51DOPE  C214 6517   1.904   7.751  14.610 -0.5124  0.1366  0.3283
   51DOPE  H14R 6518   1.904   7.796  14.509 -1.6248 -1.6551 -0.5119
   51DOPE  H14S 6519   1.832   7.813  14.668 -0.2416 -0.2885  1.1389
   51DOPE  C215 6520   1.848   7.608  14.599  0.3571 -0.4301  0.3066
   51DOPE  H15R 6521   1.854   7.566  14.702  2.7571  2.0359  1.3115
   51DOPE  H15S 6522   1.913   7.546  14.534  0.2211 -0.4884  0.2260
   51DOPE  C216 6523   1.703   7.592  14.556 -0.2090 -0.4543 -0.5598
   51DOPE  H16R 6524   1.690   7.656  14.466  2.7349 -2.6103 -2.7308
   51DOPE  H16S 6525   1.640   7.636  14.636 -1.3098  1.5457 -2.4388
   51DOPE  C217 6526   1.672   7.454  14.517  0.0199  0.8056  0.2629
   51DOPE  H17R 6527   1.759   7.408  14.466  0.0039 -0.7654  1.5729
   51DOPE  H17S 6528   1.589   7.455  14.443  0.9964  0.1109 -0.8720
   51DOPE  C218 6529   1.654   7.365  14.642 -0.2374 -0.3833  0.1048
   51DOPE  H18R 6530   1.741   7.347  14.708  0.5934 -0.9872 -1.1305
   51DOPE  H18S 6531   1.615   7.267  14.607  0.5887  0.2266 -2.7460
   51DOPE  H18T 6532   1.582   7.411  14.714  0.4530 -1.8534  1.8100
   51DOPE   C33 6533   1.883   6.938  13.683  0.2869  0.3425 -0.9889
   51DOPE   H3X 6534   1.888   6.887  13.782  4.9138  0.3928 -0.9615
   51DOPE   H3Y 6535   1.815   6.879  13.618  0.6726 -0.3154 -0.8068
   51DOPE   C34 6536   1.827   7.074  13.720  0.2574  0.3850 -0.6264
   51DOPE   H4X 6537   1.822   7.133  13.626 -0.2922  2.2204  0.5042
   51DOPE   H4Y 6538   1.720   7.067  13.750  0.7009  2.2088  1.6194
   51DOPE   C35 6539   1.914   7.158  13.822 -0.5296 -0.2271 -0.3696
   51DOPE   H5X 6540   1.856   7.252  13.832 -1.5913 -0.7094 -1.6739
   51DOPE   H5Y 6541   2.018   7.176  13.788  0.0849 -0.3515  1.3363
   51DOPE   C36 6542   1.928   7.094  13.965  0.0172  0.1377 -0.4607
   51DOPE   H6X 6543   1.995   7.006  13.966 -1.1219 -0.7755  1.0799
   51DOPE   H6Y 6544   1.828   7.050  13.987  0.2917  0.5223  1.7349
   51DOPE   C37 6545   1.961   7.197  14.083 -0.3374 -0.3446 -0.2127
   51DOPE   H7X 6546   1.916   7.296  14.064 -1.5791 -0.5860  1.3073
   51DOPE   H7Y 6547   1.905   7.161  14.172 -1.0393  1.0834 -0.0478
   51DOPE   C38 6548   2.107   7.232  14.108 -0.1614  0.0564 -0.1638
   51DOPE   H8X 6549   2.164   7.251  14.014  1.7455 -0.3158  0.8721
   51DOPE   H8Y 6550   2.160   7.150  14.161  0.6374  0.9848  0.5136
   51DOPE   C39 6551   2.132   7.352  14.201  0.0426  0.0691  0.1001
   51DOPE   H9X 6552   2.118   7.452  14.157  0.2542  0.5675  1.1363
   51DOPE  C310 6553   2.184   7.356  14.325  0.5715  0.3421 -1.0622
   51DOPE  H10X 6554   2.174   7.452  14.378  0.5847  0.4761 -1.2995
   51DOPE  C311 6555   2.236   7.237  14.410  0.0070 -0.2103  0.0838
   51DOPE  H11X 6556   2.208   7.144  14.356 -1.0222 -0.9342  1.7718
   51DOPE  H11Y 6557   2.346   7.247  14.410 -0.1096  1.3061  0.0173
   51DOPE  C312 6558   2.156   7.221  14.538 -0.8893 -0.7867 -0.3665
   51DOPE  H12X 6559   2.154   7.112  14.560 -0.4329 -0.6760  0.2433
   51DOPE  H12Y 6560   2.050   7.253  14.526 -0.9608 -0.6876  0.4357
   51DOPE  C313 6561   2.217   7.300  14.653 -0.4362  0.3754 -0.0427
   51DOPE  H13X 6562   2.320   7.258  14.656  0.3881  1.9801 -2.5053
   51DOPE  H13Y 6563   2.220   7.410  14.635  0.2473  0.6977  1.7535
   51DOPE  C314 6564   2.141   7.280  14.788 -0.2449  0.9411 -0.2524
   51DOPE  H14X 6565   2.208   7.286  14.876 -0.3971  0.0613 -0.0660
   51DOPE  H14Y 6566   2.096   7.178  14.795 -0.2658  0.9737  0.1207
   51DOPE  C315 6567   2.036   7.386  14.824 -0.3511 -0.0371 -0.9975
   51DOPE  H15X 6568   1.954   7.381  14.749 -0.6991  1.1448 -0.7145
   51DOPE  H15Y 6569   2.081   7.486  14.802  1.0364 -1.1217 -3.5690
   51DOPE  C316 6570   1.987   7.373  14.973  0.0141  0.1318 -0.1635
   51DOPE  H16X 6571   2.077   7.372  15.039  0.5884 -3.2033 -0.7839
   51DOPE  H16Y 6572   1.932   7.278  14.991  1.8106 -0.9061  0.1517
   51DOPE  C317 6573   1.893   7.492  15.007  0.7157  0.0634  0.3508
   51DOPE  H17X 6574   1.945   7.588  14.990  0.7105  0.3080  1.6122
   51DOPE  H17Y 6575   1.803   7.492  14.943  0.5859  0.2982  0.5309
   51DOPE  C318 6576   1.835   7.493  15.151 -0.5432 -0.0647 -0.3432
   51DOPE  H18X 6577   1.914   7.494  15.229 -0.7546  0.8540 -0.1292
   51DOPE  H18Y 6578   1.784   7.588  15.179  0.8209  0.7640 -0.5706
   51DOPE  H18Z 6579   1.769   7.408  15.177 -0.2593  0.2702  1.6319
   52DOPE     N 6580   6.666   3.265  12.936  0.0607 -0.9474  0.0954
   52DOPE   HN1 6581   6.649   3.366  12.955 -1.2425 -1.4123  1.5868
   52DOPE   HN2 6582   6.739   3.229  13.000  0.6941 -0.0881 -0.1269
   52DOPE   HN3 6583   6.689   3.252  12.836 -0.2420 -2.7832  0.2267
   52DOPE   C12 6584   6.533   3.198  12.974 -0.2259 -0.3890  0.2448
   52DOPE  H12A 6585   6.511   3.204  13.083 -0.6247  2.7854  0.0724
   52DOPE  H12B 6586   6.551   3.094  12.938  1.1803 -1.3537  3.3536
   52DOPE   C11 6587   6.414   3.276  12.912 -0.4541 -0.2463 -0.3248
   52DOPE  H11A 6588   6.320   3.225  12.944  0.6193 -1.8937  0.3503
   52DOPE  H11B 6589   6.432   3.267  12.803 -1.4513 -1.0095 -0.4444
   52DOPE     P 6590   6.280   3.476  13.012  0.3497  0.0742 -0.0806
   52DOPE   O13 6591   6.165   3.447  12.922  0.0029  0.2476 -0.0234
   52DOPE   O14 6592   6.299   3.619  13.051  0.1192 -0.4026 -0.3800
   52DOPE   O11 6593   6.239   3.388  13.131 -0.4923  0.0944 -0.3750
   52DOPE   O12 6594   6.414   3.415  12.950 -0.3054 -0.4047 -0.5601
   52DOPE    C1 6595   6.328   3.364  13.238 -0.0319 -0.6507  0.2961
   52DOPE    HA 6596   6.433   3.364  13.202  0.1441  0.5635  0.7517
   52DOPE    HB 6597   6.306   3.266  13.286  1.3422 -1.1815 -0.1159
   52DOPE    C2 6598   6.296   3.467  13.360  0.5644  0.5946  0.9775
   52DOPE    HS 6599   6.309   3.570  13.320  1.1044  0.2763  0.3130
   52DOPE   O21 6600   6.384   3.437  13.462  0.1744  0.1738  0.1202
   52DOPE   C21 6601   6.481   3.520  13.486 -0.4382  0.1591 -0.0350
   52DOPE   O22 6602   6.509   3.618  13.418  0.6321 -0.0151  0.5507
   52DOPE   C22 6603   6.569   3.467  13.597 -0.0450  0.2981  0.4052
   52DOPE   H2R 6604   6.602   3.362  13.581 -1.2497 -0.0782  0.3272
   52DOPE   H2S 6605   6.521   3.477  13.697 -0.4269  0.0043  0.2507
   52DOPE    C3 6606   6.150   3.445  13.410 -0.6241 -0.5050 -0.2285
   52DOPE    HX 6607   6.137   3.335  13.422  0.5522 -0.8744 -1.9208
   52DOPE    HY 6608   6.070   3.476  13.339 -1.3184  0.1793  0.8409
   52DOPE   O31 6609   6.123   3.511  13.537  0.5904  0.5332  0.6887
   52DOPE   C31 6610   6.108   3.639  13.529 -0.2772 -0.9612 -0.2860
   52DOPE   O32 6611   6.111   3.703  13.425  0.0722  0.0830  0.1183
   52DOPE   C32 6612   6.066   3.696  13.665 -0.4878 -0.4296 -1.1231
   52DOPE   H2X 6613   6.031   3.801  13.665 -0.8343 -0.5371 -1.9845
   52DOPE   H2Y 6614   5.987   3.628  13.703  0.3715 -1.7308 -1.5925
   52DOPE   C23 6615   6.705   3.544  13.607  0.7659  0.5276 -0.0123
   52DOPE   H3R 6616   6.690   3.653  13.621  0.8207  0.3743  1.4062
   52DOPE   H3S 6617   6.772   3.523  13.521 -1.4099 -3.2907 -1.0195
   52DOPE   C24 6618   6.788   3.505  13.739 -0.1064 -0.1709 -0.3110
   52DOPE   H4R 6619   6.798   3.397  13.760  0.1553  0.4881  3.7920
   52DOPE   H4S 6620   6.732   3.544  13.827  0.9854  2.6475 -0.7455
   52DOPE   C25 6621   6.927   3.566  13.730 -0.3887  0.2734 -1.2908
   52DOPE   H5R 6622   6.911   3.671  13.700  0.0338  0.8172  0.2724
   52DOPE   H5S 6623   6.980   3.511  13.650  0.4179  0.8300 -1.1509
   52DOPE   C26 6624   7.013   3.550  13.863 -0.4219 -0.6350  0.1723
   52DOPE   H6R 6625   7.009   3.442  13.887  0.2397 -0.3585  1.6253
   52DOPE   H6S 6626   6.977   3.613  13.946  1.0106  1.5190 -0.7381
   52DOPE   C27 6627   7.161   3.599  13.829  0.2177  0.1247 -0.2614
   52DOPE   H7R 6628   7.156   3.706  13.800  4.7118  0.9755  1.2925
   52DOPE   H7S 6629   7.205   3.547  13.741 -0.3215  1.0581 -1.0997
   52DOPE   C28 6630   7.261   3.592  13.942  0.8751  0.1728 -0.1148
   52DOPE   H8R 6631   7.365   3.595  13.903  1.4199  1.3185  1.3649
   52DOPE   H8S 6632   7.249   3.501  14.003 -1.5237  1.3266  1.2637
   52DOPE   C29 6633   7.251   3.715  14.031 -0.1765 -0.7207  0.3682
   52DOPE   H9R 6634   7.280   3.811  13.986 -0.7479  0.0449  1.5981
   52DOPE  C210 6635   7.235   3.709  14.163  0.8259  0.0434 -0.7742
   52DOPE  H10R 6636   7.235   3.805  14.216 -1.0259  0.5563 -1.6077
   52DOPE  C211 6637   7.213   3.595  14.256  0.3530  0.1923  0.3054
   52DOPE  H11R 6638   7.288   3.591  14.338 -1.7029 -1.0600  2.2521
   52DOPE  H11S 6639   7.209   3.498  14.202 -0.8727  0.7819 -0.7256
   52DOPE  C212 6640   7.078   3.597  14.332  0.5016  0.5580 -0.4677
   52DOPE  H12R 6641   7.069   3.697  14.380  2.4570  1.1977 -1.3328
   52DOPE  H12S 6642   7.091   3.529  14.419 -2.3149 -0.0494 -0.4404
   52DOPE  C213 6643   6.950   3.571  14.255  0.6127 -0.5219  0.1514
   52DOPE  H13R 6644   6.975   3.509  14.166  2.1528  1.1489 -0.6309
   52DOPE  H13S 6645   6.913   3.667  14.215 -2.9315 -1.3643  1.0128
   52DOPE  C214 6646   6.830   3.519  14.338 -0.1449  0.6415  0.4080
   52DOPE  H14R 6647   6.867   3.442  14.409 -0.6440 -1.4316 -1.4705
   52DOPE  H14S 6648   6.755   3.467  14.274  0.8751 -2.4412  1.5094
   52DOPE  C215 6649   6.747   3.625  14.406 -0.6965 -0.2193 -0.2026
   52DOPE  H15R 6650   6.686   3.681  14.332  0.6541 -0.0107 -1.1905
   52DOPE  H15S 6651   6.820   3.692  14.458  1.5403 -1.7547 -1.1779
   52DOPE  C216 6652   6.663   3.571  14.528 -0.0217  0.2379  0.0381
   52DOPE  H16R 6653   6.723   3.528  14.610 -0.3192  1.6109  1.0062
   52DOPE  H16S 6654   6.586   3.498  14.494 -1.1410  1.1440  0.5833
   52DOPE  C217 6655   6.588   3.684  14.609  0.6629  0.5463 -0.5583
   52DOPE  H17R 6656   6.666   3.763  14.618 -0.1193  1.2127  0.5961
   52DOPE  H17S 6657   6.559   3.637  14.705 -0.3459  0.2376 -1.0108
   52DOPE  C218 6658   6.463   3.742  14.553 -0.1339 -0.4011 -0.8285
   52DOPE  H18R 6659   6.473   3.773  14.447  0.8340  2.0174 -0.0942
   52DOPE  H18S 6660   6.377   3.673  14.566 -1.0046  0.7489 -0.3154
   52DOPE  H18T 6661   6.436   3.840  14.597  0.6041  0.5480 -2.4009
   52DOPE   C33 6662   6.192   3.697  13.757 -0.3228 -0.4987 -0.3170
   52DOPE   H3X 6663   6.223   3.594  13.785 -0.4980  0.1744  2.8077
   52DOPE   H3Y 6664   6.168   3.744  13.855  0.2155 -0.7695 -0.0538
   52DOPE   C34 6665   6.298   3.791  13.698  0.7340  0.0203  0.1748
   52DOPE   H4X 6666   6.327   3.743  13.602  0.8791  2.1035 -0.8795
   52DOPE   H4Y 6667   6.254   3.892  13.690 -0.5999 -0.3932  1.7596
   52DOPE   C35 6668   6.432   3.797  13.765 -0.1510 -0.0001 -0.9335
   52DOPE   H5X 6669   6.506   3.832  13.689  1.8939  1.5040  1.5979
   52DOPE   H5Y 6670   6.472   3.707  13.816 -0.8619  1.5673  2.6520
   52DOPE   C36 6671   6.438   3.904  13.878  0.2604  0.2739  0.0548
   52DOPE   H6X 6672   6.353   3.891  13.949 -0.4152  1.3883 -0.5280
   52DOPE   H6Y 6673   6.424   4.005  13.835  0.9606  0.2542 -0.2271
   52DOPE   C37 6674   6.559   3.910  13.965  0.4896 -0.0484  0.1362
   52DOPE   H7X 6675   6.648   3.884  13.904  1.2025 -1.6141  1.7280
   52DOPE   H7Y 6676   6.574   4.010  14.011  2.1903 -0.9978  1.7875
   52DOPE   C38 6677   6.563   3.802  14.077 -0.1065  0.0292 -0.9959
   52DOPE   H8X 6678   6.469   3.822  14.132  0.1341  1.9356 -1.1937
   52DOPE   H8Y 6679   6.649   3.831  14.142 -0.1951 -0.1485 -0.7972
   52DOPE   C39 6680   6.573   3.649  14.051  0.0660 -0.4457  0.4184
   52DOPE   H9X 6681   6.651   3.625  13.977 -2.1276 -2.3932 -1.4176
   52DOPE  C310 6682   6.501   3.551  14.104 -0.2768 -0.5792 -0.4702
   52DOPE  H10X 6683   6.517   3.446  14.072  2.1541 -0.7423  1.0358
   52DOPE  C311 6684   6.392   3.554  14.214 -0.8595 -0.3575 -0.0456
   52DOPE  H11X 6685   6.429   3.488  14.296  1.9247 -0.8797 -1.5929
   52DOPE  H11Y 6686   6.392   3.655  14.260  2.4082 -0.8299  1.3324
   52DOPE  C312 6687   6.249   3.513  14.182 -0.3243  0.2590 -0.3081
   52DOPE  H12X 6688   6.242   3.405  14.157  1.4382  0.0340  0.0051
   52DOPE  H12Y 6689   6.221   3.577  14.096 -0.7544  0.4315 -0.0457
   52DOPE  C313 6690   6.157   3.529  14.306  0.1848 -0.8118 -0.6618
   52DOPE  H13X 6691   6.194   3.450  14.375  1.7609 -0.1336 -0.6969
   52DOPE  H13Y 6692   6.171   3.630  14.351 -1.4782 -1.0708  0.5593
   52DOPE  C314 6693   6.013   3.514  14.261 -0.2191  0.6493  0.3991
   52DOPE  H14X 6694   5.985   3.566  14.167 -0.0289 -0.1749 -0.1257
   52DOPE  H14Y 6695   5.942   3.548  14.338  0.6566  0.1757  1.4489
   52DOPE  C315 6696   5.979   3.362  14.232 -0.0679  0.2672  0.3638
   52DOPE  H15X 6697   5.991   3.303  14.325  1.7943 -0.0913 -0.0722
   52DOPE  H15Y 6698   6.050   3.312  14.163 -0.9249  0.1495 -0.4594
   52DOPE  C316 6699   5.837   3.363  14.175 -0.0384  0.5524  0.0382
   52DOPE  H16X 6700   5.846   3.397  14.070  1.0122  2.3059  0.6534
   52DOPE  H16Y 6701   5.773   3.434  14.233  1.5124  3.6520 -1.7603
   52DOPE  C317 6702   5.767   3.227  14.176 -0.0830 -0.5265 -0.1812
   52DOPE  H17X 6703   5.768   3.192  14.281 -1.8073  0.8266  0.3467
   52DOPE  H17Y 6704   5.661   3.244  14.146  0.6332  2.0410 -1.5450
   52DOPE  C318 6705   5.821   3.131  14.068  0.3193  0.4983 -0.3827
   52DOPE  H18X 6706   5.751   3.045  14.080 -1.8984  2.1438 -0.7939
   52DOPE  H18Y 6707   5.831   3.174  13.966 -0.2530  2.6850  0.4213
   52DOPE  H18Z 6708   5.922   3.095  14.097  0.2387 -2.0076 -2.8154
   53DOPE     N 6709   4.052   5.486  13.384 -0.0822 -0.7175  0.0701
   53DOPE   HN1 6710   4.062   5.406  13.450  0.7954  0.9542  2.0709
   53DOPE   HN2 6711   4.143   5.520  13.347 -1.0877 -0.8871 -2.8042
   53DOPE   HN3 6712   4.012   5.558  13.447 -0.7575 -2.1685  1.3633
   53DOPE   C12 6713   3.980   5.443  13.260 -0.0908  0.4131 -0.0198
   53DOPE  H12A 6714   3.874   5.473  13.277 -0.8659 -2.7174  1.4763
   53DOPE  H12B 6715   3.998   5.335  13.246  1.3680  0.7496 -0.9142
   53DOPE   C11 6716   4.042   5.508  13.127  0.3126  0.4335  0.0575
   53DOPE  H11A 6717   4.051   5.619  13.129 -0.3649  0.5682 -1.9756
   53DOPE  H11B 6718   3.971   5.492  13.044  0.6498 -0.8754 -0.0036
   53DOPE     P 6719   4.302   5.518  13.113  0.1703 -0.0790 -0.0245
   53DOPE   O13 6720   4.309   5.617  13.005  0.8386 -0.4110  0.0021
   53DOPE   O14 6721   4.410   5.423  13.128 -0.2133 -0.1118 -0.0867
   53DOPE   O11 6722   4.290   5.585  13.256  0.0176 -0.2198  0.2846
   53DOPE   O12 6723   4.162   5.435  13.097 -0.0133 -0.1219  0.1282
   53DOPE    C1 6724   4.296   5.733  13.262  0.1468 -0.1394  0.4685
   53DOPE    HA 6725   4.255   5.753  13.363 -2.0780  0.8353 -0.5636
   53DOPE    HB 6726   4.215   5.776  13.200 -0.7082 -2.4729 -0.1624
   53DOPE    C2 6727   4.442   5.785  13.234  0.4627  0.4612  0.4018
   53DOPE    HS 6728   4.473   5.745  13.136 -0.4840  0.8704 -0.0739
   53DOPE   O21 6729   4.521   5.726  13.336 -1.2087  0.2393 -0.3714
   53DOPE   C21 6730   4.651   5.724  13.317  0.2558 -1.0332  0.4358
   53DOPE   O22 6731   4.703   5.774  13.218 -0.0723 -0.3349  0.2925
   53DOPE   C22 6732   4.716   5.633  13.425  0.6205  0.0026  0.3967
   53DOPE   H2R 6733   4.708   5.532  13.380  2.9236  0.8980 -2.3282
   53DOPE   H2S 6734   4.664   5.630  13.523  0.6196  1.3053  0.4454
   53DOPE    C3 6735   4.455   5.941  13.240  0.6579 -0.2020  0.0683
   53DOPE    HX 6736   4.376   5.990  13.179  0.5038  0.8412  1.0737
   53DOPE    HY 6737   4.546   5.961  13.179 -0.4451  1.3509 -1.1687
   53DOPE   O31 6738   4.464   5.990  13.371  0.4127 -0.0039  0.0621
   53DOPE   C31 6739   4.358   6.029  13.440 -0.3241 -0.3291  0.3241
   53DOPE   O32 6740   4.244   6.041  13.402 -0.2353 -0.3593 -0.2618
   53DOPE   C32 6741   4.412   6.079  13.578  1.3379  0.1601  0.5772
   53DOPE   H2X 6742   4.440   5.983  13.628 -4.0447 -2.3031 -0.5034
   53DOPE   H2Y 6743   4.487   6.160  13.568  0.8797  0.3095 -2.5807
   53DOPE   C23 6744   4.860   5.671  13.450 -1.0066  0.4185 -0.0128
   53DOPE   H3R 6745   4.922   5.654  13.359 -1.5321  1.9251 -0.6895
   53DOPE   H3S 6746   4.904   5.613  13.533  2.0948  3.2917  0.5622
   53DOPE   C24 6747   4.872   5.820  13.494 -0.6081 -0.2615  0.5857
   53DOPE   H4R 6748   4.785   5.861  13.551 -1.2937 -2.3852  1.1467
   53DOPE   H4S 6749   4.885   5.882  13.403  0.7191  0.7570  1.4191
   53DOPE   C25 6750   5.002   5.861  13.570 -0.1568  1.2374  0.0140
   53DOPE   H5R 6751   5.081   5.835  13.496 -0.8413  1.0607 -0.6762
   53DOPE   H5S 6752   5.002   5.793  13.657 -1.4990  0.4508 -0.5692
   53DOPE   C26 6753   5.006   6.006  13.596 -0.1623 -0.2002 -0.4230
   53DOPE   H6R 6754   4.924   6.046  13.660  0.5425  0.9048 -0.1681
   53DOPE   H6S 6755   5.002   6.057  13.498  0.6731 -2.6829 -1.8099
   53DOPE   C27 6756   5.133   6.053  13.672  0.0328 -0.6323  0.8759
   53DOPE   H7R 6757   5.119   6.159  13.701 -3.2052 -0.0975 -1.9842
   53DOPE   H7S 6758   5.214   6.050  13.597 -1.0223 -0.3881 -0.3068
   53DOPE   C28 6759   5.175   5.971  13.794  0.7532  0.3528 -0.1688
   53DOPE   H8R 6760   5.187   5.868  13.756  2.3017 -0.2142  1.6888
   53DOPE   H8S 6761   5.088   5.974  13.863  0.8128  1.9807 -0.1213
   53DOPE   C29 6762   5.304   6.007  13.847  0.2789  0.2218 -0.0950
   53DOPE   H9R 6763   5.391   5.980  13.785  0.8885  1.1096  0.3339
   53DOPE  C210 6764   5.326   6.066  13.965 -0.3661 -0.8495  0.0667
   53DOPE  H10R 6765   5.427   6.090  14.002 -0.9105  1.8565  0.0624
   53DOPE  C211 6766   5.217   6.110  14.063  0.4503  0.5983  0.0560
   53DOPE  H11R 6767   5.162   6.021  14.100 -1.7274  1.2650 -1.3939
   53DOPE  H11S 6768   5.139   6.171  14.011 -0.0167  0.9425  1.1235
   53DOPE  C212 6769   5.268   6.191  14.188 -0.3167 -0.1403  0.3667
   53DOPE  H12R 6770   5.180   6.226  14.247  0.0656 -2.0624  2.1953
   53DOPE  H12S 6771   5.321   6.276  14.141 -1.4655 -2.0055 -5.0988
   53DOPE  C213 6772   5.351   6.114  14.291  0.2869 -0.1886  0.4095
   53DOPE  H13R 6773   5.440   6.079  14.235 -0.1538  1.5790 -1.5242
   53DOPE  H13S 6774   5.287   6.028  14.319 -0.9319  0.7674  0.6808
   53DOPE  C214 6775   5.385   6.169  14.425 -0.1646 -0.4468 -0.0147
   53DOPE  H14R 6776   5.290   6.221  14.449 -0.6810 -0.0793 -2.6415
   53DOPE  H14S 6777   5.466   6.243  14.412 -1.7069  1.2393 -0.3386
   53DOPE  C215 6778   5.431   6.076  14.546 -0.3418 -0.4737 -0.0064
   53DOPE  H15R 6779   5.527   6.027  14.520  0.4795 -0.0653  2.1088
   53DOPE  H15S 6780   5.355   5.996  14.562 -0.4264 -0.3978 -0.0223
   53DOPE  C216 6781   5.439   6.157  14.682 -0.5073  0.5490 -0.5055
   53DOPE  H16R 6782   5.509   6.243  14.678  1.3197 -0.9009 -1.3566
   53DOPE  H16S 6783   5.488   6.083  14.749  0.5867  1.1071 -0.6696
   53DOPE  C217 6784   5.296   6.199  14.732  0.4639 -0.3900  0.4876
   53DOPE  H17R 6785   5.228   6.117  14.699  0.9973 -0.3103 -0.8933
   53DOPE  H17S 6786   5.278   6.292  14.674  0.8108 -0.0226  0.9617
   53DOPE  C218 6787   5.281   6.229  14.883 -0.3328  0.0860  0.0474
   53DOPE  H18R 6788   5.280   6.131  14.936 -3.6506  0.1158  0.2464
   53DOPE  H18S 6789   5.189   6.286  14.907  0.5002  0.5812  2.2981
   53DOPE  H18T 6790   5.365   6.289  14.923 -0.4991  0.2880  0.0949
   53DOPE   C33 6791   4.301   6.149  13.663  0.3856  0.5429  0.0878
   53DOPE   H3X 6792   4.241   6.208  13.591  0.9342 -1.0942 -1.7989
   53DOPE   H3Y 6793   4.342   6.230  13.726 -0.6702  2.4369 -1.5603
   53DOPE   C34 6794   4.219   6.049  13.747 -0.1254 -0.5471 -0.2024
   53DOPE   H4X 6795   4.199   5.960  13.683  3.7554 -1.6011 -0.2226
   53DOPE   H4Y 6796   4.282   6.010  13.831  1.5945  0.6474 -0.8797
   53DOPE   C35 6797   4.080   6.098  13.793 -0.1059 -0.4762 -0.5615
   53DOPE   H5X 6798   4.048   6.012  13.856  1.5127  0.0239  1.0322
   53DOPE   H5Y 6799   4.015   6.112  13.703  0.6949  2.7544 -0.7481
   53DOPE   C36 6800   4.080   6.226  13.886 -0.3128  0.1530 -0.0875
   53DOPE   H6X 6801   4.092   6.316  13.822  0.4823  0.9729  1.1762
   53DOPE   H6Y 6802   4.167   6.222  13.955  0.6010 -2.5698 -1.2888
   53DOPE   C37 6803   3.948   6.226  13.961  0.3108 -0.0182  0.1172
   53DOPE   H7X 6804   3.859   6.221  13.896  0.8180  0.7837 -0.6674
   53DOPE   H7Y 6805   3.933   6.134  14.021 -2.0471 -0.3147 -0.8432
   53DOPE   C38 6806   3.930   6.346  14.062 -0.0595  0.3732 -0.1044
   53DOPE   H8X 6807   4.021   6.357  14.125 -0.5231  1.7379  0.3724
   53DOPE   H8Y 6808   3.843   6.316  14.124 -0.9459  0.4628 -1.2685
   53DOPE   C39 6809   3.897   6.477  13.995 -0.3673  0.1595 -0.3742
   53DOPE   H9X 6810   3.910   6.489  13.886 -1.8176 -0.7762 -0.6848
   53DOPE  C310 6811   3.847   6.588  14.056  0.3316 -0.0105  0.4563
   53DOPE  H10X 6812   3.835   6.679  13.995 -0.2659 -0.7438 -0.5570
   53DOPE  C311 6813   3.816   6.597  14.202  0.1687  0.5241 -0.1839
   53DOPE  H11X 6814   3.747   6.518  14.239 -0.9584  1.2046 -0.8112
   53DOPE  H11Y 6815   3.910   6.576  14.258 -0.2479 -1.9152 -0.2836
   53DOPE  C312 6816   3.780   6.740  14.242  0.1405  0.2963  0.1063
   53DOPE  H12X 6817   3.683   6.772  14.199  0.7639  1.1084 -0.7161
   53DOPE  H12Y 6818   3.855   6.814  14.209  1.2436 -1.1638 -0.8033
   53DOPE  C313 6819   3.779   6.745  14.399 -0.2313 -0.2491 -0.0142
   53DOPE  H13X 6820   3.865   6.687  14.439 -0.4705 -0.1630  0.6336
   53DOPE  H13Y 6821   3.805   6.849  14.431  0.8024  0.0221 -1.6315
   53DOPE  C314 6822   3.646   6.696  14.462 -0.0322 -0.2144 -0.1621
   53DOPE  H14X 6823   3.610   6.602  14.415 -0.2061  1.3267 -3.4025
   53DOPE  H14Y 6824   3.558   6.762  14.444 -1.6983 -2.5248 -1.1289
   53DOPE  C315 6825   3.654   6.669  14.609  0.5330 -0.7693 -0.7519
   53DOPE  H15X 6826   3.674   6.769  14.654 -1.1711 -0.4593 -0.6270
   53DOPE  H15Y 6827   3.742   6.604  14.630 -0.6668 -2.1667  0.1159
   53DOPE  C316 6828   3.526   6.612  14.671  0.0190 -1.0046 -0.5511
   53DOPE  H16X 6829   3.494   6.513  14.633 -1.0679 -1.5683  1.6781
   53DOPE  H16Y 6830   3.447   6.688  14.651  0.6200 -0.0798  0.4785
   53DOPE  C317 6831   3.542   6.584  14.823  0.3369 -0.4024 -0.8454
   53DOPE  H17X 6832   3.606   6.659  14.873 -0.8555 -0.6662  1.1882
   53DOPE  H17Y 6833   3.445   6.617  14.868  1.3884  0.8755  0.5740
   53DOPE  C318 6834   3.570   6.440  14.857  0.3919 -0.2936 -0.0015
   53DOPE  H18X 6835   3.673   6.399  14.844  0.2252 -1.0888  1.0128
   53DOPE  H18Y 6836   3.536   6.407  14.958  0.1102 -0.9245 -0.2966
   53DOPE  H18Z 6837   3.502   6.382  14.791  1.5372  0.0159 -1.5137
   54DOPE     N 6838   6.295   2.305  13.284 -0.1454 -0.3336 -0.7019
   54DOPE   HN1 6839   6.360   2.225  13.267  1.7543  0.6761  1.3940
   54DOPE   HN2 6840   6.251   2.292  13.377  1.3461  3.6559  0.7515
   54DOPE   HN3 6841   6.220   2.310  13.212 -0.8949  0.3155  0.1167
   54DOPE   C12 6842   6.347   2.445  13.268 -0.3737  0.4140 -0.2246
   54DOPE  H12A 6843   6.435   2.446  13.200 -1.5987 -0.8329 -1.9079
   54DOPE  H12B 6844   6.389   2.475  13.367 -0.7421  0.5275 -0.1011
   54DOPE   C11 6845   6.247   2.545  13.224  0.3287 -0.0100 -0.4573
   54DOPE  H11A 6846   6.306   2.639  13.218  0.7529 -0.2998 -0.8174
   54DOPE  H11B 6847   6.161   2.570  13.290  0.4650  0.1479 -0.3383
   54DOPE     P 6848   6.119   2.605  13.009  0.1608  0.0760  0.2627
   54DOPE   O13 6849   6.090   2.555  12.872  0.3123 -0.1540  0.1847
   54DOPE   O14 6850   6.179   2.735  13.017 -0.5851  0.4651  0.5824
   54DOPE   O11 6851   5.993   2.605  13.099 -0.1015 -0.2392 -0.5704
   54DOPE   O12 6852   6.202   2.499  13.091  0.1709 -0.6246  0.0678
   54DOPE    C1 6853   5.923   2.484  13.121 -0.7188  0.1328 -0.0199
   54DOPE    HA 6854   5.995   2.404  13.151  0.1696  0.6565 -0.6940
   54DOPE    HB 6855   5.866   2.447  13.033 -0.3860 -1.5189  0.4126
   54DOPE    C2 6856   5.834   2.501  13.242  0.4054 -0.4833  0.1693
   54DOPE    HS 6857   5.738   2.553  13.218  0.6833  0.5957  1.3297
   54DOPE   O21 6858   5.899   2.577  13.348  0.4531 -0.2586  0.1177
   54DOPE   C21 6859   5.883   2.706  13.354  0.3747  0.4647 -0.1682
   54DOPE   O22 6860   5.810   2.770  13.281 -0.0525  0.3054  0.3046
   54DOPE   C22 6861   5.961   2.766  13.476  0.0952 -0.2204  1.2016
   54DOPE   H2R 6862   6.055   2.706  13.481  0.5106  0.3985  0.8616
   54DOPE   H2S 6863   5.900   2.750  13.567  0.0242  1.0162  1.3771
   54DOPE    C3 6864   5.794   2.363  13.307 -0.1161  0.1587 -0.0530
   54DOPE    HX 6865   5.881   2.295  13.320 -1.6361 -1.8331  0.2653
   54DOPE    HY 6866   5.731   2.301  13.239 -0.8300  0.1884  0.5664
   54DOPE   O31 6867   5.713   2.382  13.427  0.1829  0.0506 -0.7057
   54DOPE   C31 6868   5.778   2.377  13.543 -0.3024 -0.0382 -0.5870
   54DOPE   O32 6869   5.898   2.389  13.557  0.1448 -0.0923 -0.2300
   54DOPE   C32 6870   5.677   2.366  13.652 -0.0704  0.1363  0.5495
   54DOPE   H2X 6871   5.574   2.358  13.610 -0.1240  1.6892  0.3456
   54DOPE   H2Y 6872   5.694   2.275  13.713 -0.8402  1.4906  2.8891
   54DOPE   C23 6873   6.002   2.907  13.461 -0.0151 -0.2285  1.1105
   54DOPE   H3R 6874   5.925   2.988  13.469  0.3876  0.3835 -0.6859
   54DOPE   H3S 6875   6.048   2.928  13.362 -1.2904  0.4289  0.6180
   54DOPE   C24 6876   6.114   2.944  13.560  0.3006  0.4220  0.1390
   54DOPE   H4R 6877   6.197   2.872  13.544 -0.4448  0.0142 -2.2253
   54DOPE   H4S 6878   6.081   2.932  13.665 -0.4864 -0.2857 -0.1773
   54DOPE   C25 6879   6.168   3.081  13.550 -0.1451  0.4358 -0.3339
   54DOPE   H5R 6880   6.090   3.153  13.581  0.5372  1.7710 -1.5973
   54DOPE   H5S 6881   6.200   3.092  13.444 -0.4155  0.8390 -0.3763
   54DOPE   C26 6882   6.302   3.098  13.631 -0.0829 -0.0158  0.3645
   54DOPE   H6R 6883   6.349   3.195  13.604 -0.2934 -0.1853 -0.6619
   54DOPE   H6S 6884   6.380   3.024  13.602  1.1311  1.3270  0.0903
   54DOPE   C27 6885   6.274   3.098  13.781  0.5786  0.0583  0.4016
   54DOPE   H7R 6886   6.256   2.997  13.823  3.3575 -1.1468 -1.0668
   54DOPE   H7S 6887   6.183   3.160  13.795  0.8639  0.8417 -1.0676
   54DOPE   C28 6888   6.404   3.146  13.844 -0.2156 -0.0270  0.5513
   54DOPE   H8R 6889   6.378   3.177  13.948 -0.8175  1.3169  0.0382
   54DOPE   H8S 6890   6.427   3.243  13.794 -0.0381  0.2479  1.1425
   54DOPE   C29 6891   6.528   3.062  13.851  0.8153  0.1748  0.1876
   54DOPE   H9R 6892   6.580   3.049  13.755  2.6521  0.1863  1.1208
   54DOPE  C210 6893   6.593   3.004  13.955  0.3594 -0.5823 -0.0773
   54DOPE  H10R 6894   6.692   2.960  13.934  0.6133  0.2349 -0.6153
   54DOPE  C211 6895   6.559   3.014  14.102  0.2747  0.5066  0.3557
   54DOPE  H11R 6896   6.525   2.914  14.135  3.6590 -0.1054  2.4392
   54DOPE  H11S 6897   6.484   3.096  14.111  1.1431  1.6225 -1.7953
   54DOPE  C212 6898   6.678   3.041  14.187 -0.5785 -0.2222 -0.1111
   54DOPE  H12R 6899   6.706   3.144  14.156 -0.9442 -0.5495 -1.5939
   54DOPE  H12S 6900   6.761   2.970  14.170  0.1944  0.8036 -0.7611
   54DOPE  C213 6901   6.649   3.035  14.337 -0.3169 -0.6746  0.5911
   54DOPE  H13R 6902   6.538   3.034  14.351 -0.4309 -1.8743 -0.1738
   54DOPE  H13S 6903   6.682   3.134  14.374  0.4521  1.4354 -4.8353
   54DOPE  C214 6904   6.690   2.911  14.415  0.9709 -0.0892 -0.0374
   54DOPE  H14R 6905   6.784   2.871  14.371  0.2261  0.3491 -2.1715
   54DOPE  H14S 6906   6.610   2.838  14.389 -0.2541  1.8534 -2.1317
   54DOPE  C215 6907   6.699   2.937  14.565 -0.3642  0.1342 -0.2856
   54DOPE  H15R 6908   6.599   2.962  14.607 -0.8071 -1.1664 -0.5308
   54DOPE  H15S 6909   6.769   3.023  14.573  0.8761 -0.4598 -3.3829
   54DOPE  C216 6910   6.755   2.818  14.652 -0.0011 -0.0464  0.5693
   54DOPE  H16R 6911   6.857   2.796  14.613 -0.0008 -1.7682  1.4236
   54DOPE  H16S 6912   6.709   2.721  14.621  1.3918 -1.6050  2.9877
   54DOPE  C217 6913   6.742   2.838  14.798 -0.6512 -0.1041 -0.9095
   54DOPE  H17R 6914   6.672   2.922  14.819 -0.6840 -0.6806  1.5774
   54DOPE  H17S 6915   6.847   2.866  14.824 -1.1579  1.6141 -0.5923
   54DOPE  C218 6916   6.706   2.706  14.872  0.1193  0.0996  0.4459
   54DOPE  H18R 6917   6.772   2.625  14.835  0.3463 -1.3377  3.6091
   54DOPE  H18S 6918   6.601   2.676  14.851  0.2737  0.0771 -0.3236
   54DOPE  H18T 6919   6.710   2.715  14.983 -0.9873  0.3826  0.4733
   54DOPE   C33 6920   5.665   2.499  13.738  0.0522 -0.4164  0.2919
   54DOPE   H3X 6921   5.627   2.587  13.682  2.3080 -0.1281 -0.9087
   54DOPE   H3Y 6922   5.766   2.526  13.776  0.4155  0.2919 -1.1081
   54DOPE   C34 6923   5.562   2.482  13.851 -0.1309  0.1534  0.3565
   54DOPE   H4X 6924   5.463   2.454  13.810  0.1016 -1.6850  0.9317
   54DOPE   H4Y 6925   5.596   2.388  13.901  2.2472  0.8587  0.1884
   54DOPE   C35 6926   5.544   2.600  13.947 -0.0302 -0.8920 -0.2537
   54DOPE   H5X 6927   5.465   2.567  14.018 -1.1846 -1.4149 -1.7500
   54DOPE   H5Y 6928   5.513   2.690  13.890 -1.4754 -0.5676  0.9833
   54DOPE   C36 6929   5.672   2.639  14.022  0.1864  0.2331 -0.1201
   54DOPE   H6X 6930   5.730   2.685  13.940 -0.8233  1.0512 -0.4081
   54DOPE   H6Y 6931   5.720   2.545  14.056 -1.0244 -0.7012 -0.8814
   54DOPE   C37 6932   5.633   2.742  14.130  0.1591 -0.0435 -0.1158
   54DOPE   H7X 6933   5.720   2.805  14.156  0.4068 -1.6641  3.6963
   54DOPE   H7Y 6934   5.575   2.821  14.078 -2.1813 -0.8428  1.1379
   54DOPE   C38 6935   5.554   2.694  14.257  0.0652 -0.0026  0.9295
   54DOPE   H8X 6936   5.625   2.630  14.314  0.8485  0.5842  0.6302
   54DOPE   H8Y 6937   5.466   2.635  14.222  0.0177  0.6389 -0.0452
   54DOPE   C39 6938   5.522   2.819  14.345 -0.1336  0.2349 -0.0893
   54DOPE   H9X 6939   5.419   2.856  14.337  0.3198  1.7796  0.8215
   54DOPE  C310 6940   5.614   2.896  14.414  0.9128 -0.1560  0.1506
   54DOPE  H10X 6941   5.569   2.975  14.476 -2.8565  0.4288 -2.9579
   54DOPE  C311 6942   5.768   2.873  14.422  0.2322  0.1684  0.7039
   54DOPE  H11X 6943   5.792   2.787  14.355 -5.2188 -0.4461 -1.0106
   54DOPE  H11Y 6944   5.810   2.964  14.376  0.3509  0.0937  0.6651
   54DOPE  C312 6945   5.830   2.851  14.558 -0.7076  0.5305  0.2924
   54DOPE  H12X 6946   5.934   2.825  14.530 -1.2447  0.7845 -2.1494
   54DOPE  H12Y 6947   5.775   2.777  14.619 -0.0069  1.0694  1.6150
   54DOPE  C313 6948   5.842   2.975  14.654  0.5355 -0.0757  0.4155
   54DOPE  H13X 6949   5.744   2.974  14.707  1.2771  0.9395  1.8620
   54DOPE  H13Y 6950   5.916   2.963  14.735  1.1481  0.7688 -0.0073
   54DOPE  C314 6951   5.878   3.103  14.576 -0.0175 -0.1583 -0.1327
   54DOPE  H14X 6952   5.789   3.125  14.513 -0.8281 -0.9182  0.7123
   54DOPE  H14Y 6953   5.969   3.087  14.514  0.1495  0.9508 -0.2054
   54DOPE  C315 6954   5.899   3.227  14.661 -0.0817  0.4082  0.1698
   54DOPE  H15X 6955   5.931   3.313  14.598 -0.1176  0.7951  0.6643
   54DOPE  H15Y 6956   5.984   3.197  14.725  0.2039  2.1147  0.6621
   54DOPE  C316 6957   5.778   3.270  14.747 -0.4486  0.1219 -0.2346
   54DOPE  H16X 6958   5.832   3.330  14.823 -1.6969  0.4951  0.3893
   54DOPE  H16Y 6959   5.736   3.180  14.797 -0.0300 -0.1165 -0.3147
   54DOPE  C317 6960   5.679   3.361  14.668  0.1612 -0.1969 -1.4223
   54DOPE  H17X 6961   5.735   3.438  14.609 -1.5025  1.3080 -1.1387
   54DOPE  H17Y 6962   5.624   3.303  14.590 -2.8927  1.1990 -0.4983
   54DOPE  C318 6963   5.562   3.426  14.747 -0.1612 -0.1661 -0.0882
   54DOPE  H18X 6964   5.494   3.347  14.784 -0.4831 -0.5201 -1.3743
   54DOPE  H18Y 6965   5.601   3.486  14.832 -0.4664  1.1549 -0.8571
   54DOPE  H18Z 6966   5.506   3.499  14.686  1.0538 -1.1544 -2.5529
   55DOPE     N 6967   7.271   6.648  12.885  0.3675  1.0479  0.4505
   55DOPE   HN1 6968   7.364   6.606  12.865 -0.2782 -0.1547 -0.1832
   55DOPE   HN2 6969   7.208   6.620  12.807  1.9246  0.4620 -0.6531
   55DOPE   HN3 6970   7.295   6.749  12.872  0.8570  0.7167 -1.6363
   55DOPE   C12 6971   7.213   6.606  13.018  0.6041 -0.0197 -0.1925
   55DOPE  H12A 6972   7.141   6.685  13.050 -0.8987 -1.2757 -0.3647
   55DOPE  H12B 6973   7.287   6.597  13.100 -0.7151 -0.5551  0.9864
   55DOPE   C11 6974   7.137   6.470  13.014  0.2372 -0.7277 -0.0247
   55DOPE  H11A 6975   7.052   6.472  12.943 -1.3864 -0.9489  1.8130
   55DOPE  H11B 6976   7.079   6.453  13.108 -2.8804  2.5617 -1.1192
   55DOPE     P 6977   7.321   6.282  13.067  0.1651 -0.0785 -0.1053
   55DOPE   O13 6978   7.440   6.364  13.095  0.5642 -0.3655 -0.1235
   55DOPE   O14 6979   7.348   6.147  13.008  0.3365  0.1733  0.5131
   55DOPE   O11 6980   7.248   6.267  13.211 -0.0379 -0.7384 -0.3711
   55DOPE   O12 6981   7.223   6.368  12.978  0.0690 -0.0890  0.3246
   55DOPE    C1 6982   7.145   6.166  13.221  0.0118 -0.8311  0.0931
   55DOPE    HA 6983   7.180   6.066  13.187  0.1123 -0.4550 -0.9592
   55DOPE    HB 6984   7.062   6.186  13.150 -0.2821 -3.0098 -0.2552
   55DOPE    C2 6985   7.080   6.173  13.362 -0.6084 -0.1725 -0.2247
   55DOPE    HS 6986   7.008   6.088  13.364 -0.4733 -0.2901  1.6539
   55DOPE   O21 6987   7.017   6.296  13.393  0.4971  0.1992  0.3826
   55DOPE   C21 6988   6.906   6.286  13.462 -0.1453 -0.0063 -0.0093
   55DOPE   O22 6989   6.852   6.182  13.495  0.2415  0.2261 -0.3144
   55DOPE   C22 6990   6.862   6.426  13.499  0.1142  0.1524  0.3888
   55DOPE   H2R 6991   6.847   6.483  13.405  3.3979  1.9459  0.7983
   55DOPE   H2S 6992   6.940   6.474  13.562 -0.3191  2.0132 -0.4259
   55DOPE    C3 6993   7.198   6.165  13.462 -0.1100 -0.5660  0.3766
   55DOPE    HX 6994   7.248   6.264  13.458 -4.5233  1.9044 -0.2427
   55DOPE    HY 6995   7.272   6.089  13.430 -0.9438 -1.2742  0.0967
   55DOPE   O31 6996   7.153   6.146  13.601 -0.0558 -0.4492  0.6398
   55DOPE   C31 6997   7.246   6.074  13.673  0.2706 -0.2673 -0.5358
   55DOPE   O32 6998   7.346   6.027  13.630  0.4273 -0.1659  0.7200
   55DOPE   C32 6999   7.186   6.068  13.819 -0.1819 -0.3868 -0.1518
   55DOPE   H2X 7000   7.153   6.167  13.858 -1.1754 -0.2402 -1.2912
   55DOPE   H2Y 7001   7.091   6.010  13.818  0.6395 -1.7716 -1.6473
   55DOPE   C23 7002   6.733   6.425  13.576  0.0107  0.3627  0.0169
   55DOPE   H3R 7003   6.647   6.370  13.531 -0.4047  0.6754  0.4162
   55DOPE   H3S 7004   6.699   6.531  13.578  0.1919  0.4986 -2.0875
   55DOPE   C24 7005   6.735   6.370  13.729 -0.3346 -0.4697 -0.1705
   55DOPE   H4R 7006   6.798   6.447  13.780 -0.6908 -0.5324  0.3784
   55DOPE   H4S 7007   6.807   6.285  13.732  1.3688  0.9221  0.4636
   55DOPE   C25 7008   6.600   6.337  13.795 -0.0236  0.4390 -1.5937
   55DOPE   H5R 7009   6.532   6.278  13.730 -0.6861  0.1049 -0.6239
   55DOPE   H5S 7010   6.538   6.427  13.814  1.0655  0.7807  0.5799
   55DOPE   C26 7011   6.607   6.264  13.941  0.4855 -0.0309  0.1936
   55DOPE   H6R 7012   6.647   6.330  14.020  0.5303  1.4291 -0.9884
   55DOPE   H6S 7013   6.681   6.182  13.935 -1.1884 -1.6180  0.3876
   55DOPE   C27 7014   6.476   6.203  13.985  0.0783 -0.1442  0.5604
   55DOPE   H7R 7015   6.489   6.118  14.055 -0.5051 -1.4888 -0.9203
   55DOPE   H7S 7016   6.422   6.163  13.896 -2.2672  0.0902  1.7877
   55DOPE   C28 7017   6.386   6.300  14.059  0.1376  0.2314  0.2692
   55DOPE   H8R 7018   6.292   6.251  14.090  0.4161 -0.6981 -0.3246
   55DOPE   H8S 7019   6.343   6.382  13.998 -0.0789 -0.8157 -1.0200
   55DOPE   C29 7020   6.451   6.351  14.192  0.2902  0.1750  0.5554
   55DOPE   H9R 7021   6.546   6.407  14.180  0.4337 -0.4072 -1.3216
   55DOPE  C210 7022   6.425   6.312  14.318 -0.4913 -0.0120 -0.9305
   55DOPE  H10R 7023   6.490   6.356  14.395  0.8806  0.9759 -2.5864
   55DOPE  C211 7024   6.326   6.216  14.379 -0.0515 -0.3370  0.6469
   55DOPE  H11R 7025   6.277   6.147  14.307 -0.3125  0.7988 -0.3060
   55DOPE  H11S 7026   6.245   6.276  14.426  1.2840  2.3826 -0.3366
   55DOPE  C212 7027   6.385   6.127  14.493 -0.1688  0.0180  0.0379
   55DOPE  H12R 7028   6.424   6.194  14.573  0.3424  0.7671 -0.8186
   55DOPE  H12S 7029   6.473   6.066  14.461  0.0422  0.7127 -0.7311
   55DOPE  C213 7030   6.277   6.043  14.561 -0.0801 -0.1824 -0.1850
   55DOPE  H13R 7031   6.187   6.033  14.496 -1.3135  0.0449  1.4241
   55DOPE  H13S 7032   6.243   6.102  14.649  0.5354 -1.0618  0.6713
   55DOPE  C214 7033   6.319   5.904  14.615  0.8094  0.4843  0.0203
   55DOPE  H14R 7034   6.407   5.913  14.682 -0.2714  4.1266  1.2086
   55DOPE  H14S 7035   6.329   5.836  14.528 -1.8601 -1.5246  1.1518
   55DOPE  C215 7036   6.202   5.845  14.696 -0.5038 -0.3221 -0.3261
   55DOPE  H15R 7037   6.125   5.830  14.618  1.2518 -0.2171 -2.1544
   55DOPE  H15S 7038   6.168   5.926  14.766 -0.8116  1.8813 -2.8519
   55DOPE  C216 7039   6.226   5.702  14.748 -0.0738  0.5940 -0.6526
   55DOPE  H16R 7040   6.233   5.638  14.657  1.1750  0.5596 -0.5488
   55DOPE  H16S 7041   6.141   5.666  14.810  3.3722 -2.0066  3.1628
   55DOPE  C217 7042   6.358   5.684  14.836 -0.0958  0.7149  0.6934
   55DOPE  H17R 7043   6.360   5.769  14.909 -1.2806  2.5613 -1.2934
   55DOPE  H17S 7044   6.447   5.686  14.769 -0.4927  0.5750  0.1547
   55DOPE  C218 7045   6.366   5.547  14.908  0.3616 -0.1089  0.1332
   55DOPE  H18R 7046   6.294   5.534  14.991 -1.0516  0.5306 -0.9486
   55DOPE  H18S 7047   6.464   5.545  14.961 -0.3414  0.3490  1.4881
   55DOPE  H18T 7048   6.363   5.468  14.830 -0.9189  1.2114 -1.2266
   55DOPE   C33 7049   7.278   5.991  13.922 -0.1286  0.0937 -0.6573
   55DOPE   H3X 7050   7.383   6.026  13.916  0.0285 -0.6298 -3.0310
   55DOPE   H3Y 7051   7.291   5.885  13.891  0.1207  0.4487 -1.8316
   55DOPE   C34 7052   7.241   6.003  14.067 -0.6238  0.3301  0.0328
   55DOPE   H4X 7053   7.230   6.110  14.097 -2.8707  1.1889 -3.3366
   55DOPE   H4Y 7054   7.146   5.948  14.085  0.5674 -1.5834  0.7685
   55DOPE   C35 7055   7.338   5.932  14.151 -0.1461 -0.1187 -0.0668
   55DOPE   H5X 7056   7.437   5.983  14.149 -0.5077  0.5726 -1.3536
   55DOPE   H5Y 7057   7.348   5.829  14.113  0.3786 -1.0094  2.3099
   55DOPE   C36 7058   7.295   5.924  14.304 -0.0695  0.0413  0.0419
   55DOPE   H6X 7059   7.190   5.886  14.297  0.1200 -0.2412 -1.8995
   55DOPE   H6Y 7060   7.293   6.028  14.340 -1.6490  0.1715 -0.3204
   55DOPE   C37 7061   7.399   5.838  14.373 -0.6115 -0.5355 -0.1761
   55DOPE   H7X 7062   7.406   5.740  14.322 -3.3148 -0.4385 -0.8725
   55DOPE   H7Y 7063   7.491   5.902  14.376 -1.8185  1.2374  0.7152
   55DOPE   C38 7064   7.362   5.818  14.519 -0.5928 -0.3008 -0.2853
   55DOPE   H8X 7065   7.429   5.747  14.573  0.7771 -0.0238 -1.5594
   55DOPE   H8Y 7066   7.264   5.767  14.506 -1.1993  1.1867 -1.9557
   55DOPE   C39 7067   7.364   5.949  14.596  0.2939 -0.0583 -0.7387
   55DOPE   H9X 7068   7.466   5.990  14.600 -0.7865  3.2749 -3.0682
   55DOPE  C310 7069   7.260   6.015  14.648  0.1259  0.5104 -0.4893
   55DOPE  H10X 7070   7.275   6.110  14.701 -2.9361  1.7868 -1.6452
   55DOPE  C311 7071   7.118   5.962  14.645  0.1264 -0.1292 -0.5324
   55DOPE  H11X 7072   7.065   6.015  14.562 -0.3093  1.7447  0.8711
   55DOPE  H11Y 7073   7.110   5.853  14.625 -2.1482 -0.4521  1.6006
   55DOPE  C312 7074   7.044   5.987  14.776 -0.5124  0.0916 -0.2282
   55DOPE  H12X 7075   7.107   5.954  14.862  1.1154 -0.1289 -1.4568
   55DOPE  H12Y 7076   6.945   5.937  14.767 -0.1303 -0.5275 -1.1075
   55DOPE  C313 7077   7.011   6.135  14.799  0.5244 -0.7937 -1.2080
   55DOPE  H13X 7078   7.107   6.185  14.825 -0.7688  0.9515  0.4895
   55DOPE  H13Y 7079   6.970   6.180  14.706  0.3742  0.4188 -0.5696
   55DOPE  C314 7080   6.916   6.163  14.928 -0.1226  0.7651 -0.0445
   55DOPE  H14X 7081   6.898   6.273  14.927 -0.7650  0.6654 -0.3676
   55DOPE  H14Y 7082   6.971   6.135  15.020 -1.0804 -0.2465  0.2394
   55DOPE  C315 7083   6.777   6.091  14.913 -0.2086 -1.0805 -0.6670
   55DOPE  H15X 7084   6.794   5.986  14.882  3.0715 -0.5264 -1.2051
   55DOPE  H15Y 7085   6.723   6.142  14.831 -0.7107 -2.2993 -1.1172
   55DOPE  C316 7086   6.708   6.098  15.049 -0.1046  0.5796  0.9610
   55DOPE  H16X 7087   6.601   6.073  15.029 -0.7301  2.2029  2.0584
   55DOPE  H16Y 7088   6.700   6.206  15.075  0.4019  1.2736 -1.4841
   55DOPE  C317 7089   6.761   6.004  15.156 -0.6708 -0.1415  0.0148
   55DOPE  H17X 7090   6.869   6.027  15.162 -0.1003 -2.3888 -0.5687
   55DOPE  H17Y 7091   6.708   6.018  15.252 -0.4580  1.3370 -0.0708
   55DOPE  C318 7092   6.762   5.853  15.120 -0.4272 -0.3416  0.0682
   55DOPE  H18X 7093   6.791   5.828  15.016 -3.9875 -0.1222 -1.1156
   55DOPE  H18Y 7094   6.829   5.807  15.196 -0.0074  1.3825  0.7813
   55DOPE  H18Z 7095   6.666   5.800  15.138 -0.6698  0.0036 -0.1895
   56DOPE     N 7096   0.147   6.117  13.176 -0.5013  0.5760 -0.3507
   56DOPE   HN1 7097   0.245   6.097  13.147 -0.0546  1.1426  0.7250
   56DOPE   HN2 7098   0.146   6.180  13.258 -0.9385  1.0456 -0.7074
   56DOPE   HN3 7099   0.108   6.027  13.210  0.5113 -0.4414 -1.7522
   56DOPE   C12 7100   0.079   6.177  13.054 -0.2704 -1.2876 -0.0380
   56DOPE  H12A 7101  -0.030   6.182  13.079 -0.3411 -0.5829 -0.4534
   56DOPE  H12B 7102   0.097   6.098  12.978  2.2121 -0.8074 -0.0320
   56DOPE   C11 7103   0.131   6.316  13.007 -0.0186 -0.0844 -0.2308
   56DOPE  H11A 7104   0.077   6.359  12.920 -0.8280 -1.2603 -0.3369
   56DOPE  H11B 7105   0.236   6.304  12.973 -0.3716  0.7147 -1.7096
   56DOPE     P 7106   0.155   6.557  13.089 -0.3078 -0.0229  0.2171
   56DOPE   O13 7107   0.084   6.593  12.967  0.0570  0.3352 -0.3112
   56DOPE   O14 7108   0.302   6.581  13.080 -0.3202  0.1670 -0.7011
   56DOPE   O11 7109   0.092   6.636  13.212  0.3121  0.0893 -0.0940
   56DOPE   O12 7110   0.125   6.408  13.117 -0.1899  0.1864 -0.2616
   56DOPE    C1 7111   0.052   6.587  13.334  0.1571  0.1665 -0.1425
   56DOPE    HA 7112   0.071   6.656  13.420  0.0119 -0.3404  0.3023
   56DOPE    HB 7113   0.112   6.499  13.364  0.5139  0.1273 -0.9475
   56DOPE    C2 7114  -0.100   6.546  13.329 -0.3067 -0.2029  0.0842
   56DOPE    HS 7115  -0.144   6.535  13.228 -1.5752 -0.5112  0.6462
   56DOPE   O21 7116  -0.165   6.642  13.412  0.0079 -0.3211 -0.5480
   56DOPE   C21 7117  -0.231   6.731  13.344 -0.5506 -0.7147  1.2540
   56DOPE   O22 7118  -0.251   6.730  13.225  0.2501  0.4611  0.4701
   56DOPE   C22 7119  -0.266   6.848  13.429  0.2781 -0.2424 -1.0190
   56DOPE   H2R 7120  -0.339   6.908  13.371 -1.9400 -3.1002 -1.3730
   56DOPE   H2S 7121  -0.176   6.914  13.435 -0.9554  1.3697  1.2892
   56DOPE    C3 7122  -0.126   6.396  13.374  0.4328 -0.3571  0.2283
   56DOPE    HX 7123  -0.074   6.337  13.296 -0.2333 -2.4763  1.2935
   56DOPE    HY 7124  -0.237   6.388  13.369  0.3857  0.1621  0.4071
   56DOPE   O31 7125  -0.085   6.367  13.513 -0.0257 -0.1956  0.6136
   56DOPE   C31 7126  -0.160   6.418  13.611  0.4243  0.5637  0.0932
   56DOPE   O32 7127  -0.276   6.459  13.593  1.3050  0.1226 -0.1334
   56DOPE   C32 7128  -0.099   6.380  13.745  1.2408  0.0179 -0.3459
   56DOPE   H2X 7129  -0.098   6.270  13.764  3.0711  0.1344  0.4366
   56DOPE   H2Y 7130   0.005   6.415  13.760  0.6440  1.9378 -0.3661
   56DOPE   C23 7131  -0.315   6.817  13.578 -0.1433  0.3165 -0.0869
   56DOPE   H3R 7132  -0.267   6.888  13.648 -0.5855 -0.0294  0.5794
   56DOPE   H3S 7133  -0.290   6.714  13.611  0.5493  0.3007 -0.6426
   56DOPE   C24 7134  -0.468   6.819  13.582  0.4935 -0.3576 -0.8405
   56DOPE   H4R 7135  -0.526   6.743  13.524 -0.4218 -2.5264  2.6021
   56DOPE   H4S 7136  -0.510   6.917  13.551 -1.2014 -0.4043  1.0743
   56DOPE   C25 7137  -0.524   6.810  13.727 -0.4372 -0.0506 -0.1051
   56DOPE   H5R 7138  -0.632   6.837  13.735 -0.5961 -0.5275 -0.6022
   56DOPE   H5S 7139  -0.471   6.893  13.778 -1.4229  0.0084  0.8772
   56DOPE   C26 7140  -0.528   6.671  13.785 -0.5258  0.0452 -0.4389
   56DOPE   H6R 7141  -0.429   6.624  13.764 -1.0441 -0.7525 -1.2041
   56DOPE   H6S 7142  -0.603   6.611  13.729 -1.7638 -0.2317  1.4643
   56DOPE   C27 7143  -0.565   6.679  13.937  0.2881 -0.3395 -0.2586
   56DOPE   H7R 7144  -0.641   6.759  13.945  2.4347  2.0082 -1.7793
   56DOPE   H7S 7145  -0.473   6.701  13.995  0.7586 -3.1844  0.2587
   56DOPE   C28 7146  -0.613   6.551  14.003  0.6871 -0.4591 -0.6709
   56DOPE   H8R 7147  -0.530   6.478  13.994  2.0707  0.6964  1.5646
   56DOPE   H8S 7148  -0.706   6.508  13.960  1.2845  0.8230 -3.4511
   56DOPE   C29 7149  -0.648   6.588  14.150 -0.1452  0.2370  0.1684
   56DOPE   H9R 7150  -0.738   6.651  14.150 -0.0321  0.5658 -2.9070
   56DOPE  C210 7151  -0.575   6.541  14.260  0.2353  0.2294  0.2399
   56DOPE  H10R 7152  -0.595   6.573  14.363 -1.9016 -2.1806  0.6683
   56DOPE  C211 7153  -0.448   6.455  14.264  0.0403  0.2029  0.3366
   56DOPE  H11R 7154  -0.396   6.478  14.169  3.3634  0.0556  1.9587
   56DOPE  H11S 7155  -0.460   6.345  14.260 -1.4693  0.3920 -1.3722
   56DOPE  C212 7156  -0.350   6.500  14.383  0.0853 -0.1324  0.0150
   56DOPE  H12R 7157  -0.346   6.610  14.399  1.2807 -0.3138  1.1345
   56DOPE  H12S 7158  -0.248   6.468  14.354  0.2278 -0.8515  1.2273
   56DOPE  C213 7159  -0.382   6.419  14.515 -0.2944 -0.4006 -0.0772
   56DOPE  H13R 7160  -0.342   6.318  14.495  0.5969  0.1913 -1.4730
   56DOPE  H13S 7161  -0.492   6.414  14.532 -0.3677  1.1881  0.1118
   56DOPE  C214 7162  -0.304   6.473  14.636 -0.4704  0.4044  0.2265
   56DOPE  H14R 7163  -0.348   6.574  14.652 -1.9369 -0.1489 -0.2263
   56DOPE  H14S 7164  -0.196   6.473  14.608 -0.4169  0.9866  0.4241
   56DOPE  C215 7165  -0.324   6.378  14.752  0.2695 -0.5116 -0.2964
   56DOPE  H15R 7166  -0.291   6.276  14.721  0.3836 -0.4248 -0.4587
   56DOPE  H15S 7167  -0.428   6.374  14.790  1.0732  0.6445  2.2323
   56DOPE  C216 7168  -0.234   6.424  14.866 -0.1030  0.3999  0.0101
   56DOPE  H16R 7169  -0.251   6.530  14.894  1.8299  0.8886 -0.5074
   56DOPE  H16S 7170  -0.126   6.410  14.841 -0.4755 -1.4624 -0.7101
   56DOPE  C217 7171  -0.261   6.333  14.986  0.2728 -0.5840  0.7093
   56DOPE  H17R 7172  -0.368   6.303  14.985 -0.9063  3.0917  0.7386
   56DOPE  H17S 7173  -0.252   6.393  15.080 -0.2615  3.7871 -1.7410
   56DOPE  C218 7174  -0.160   6.215  14.993 -0.3852 -0.3514 -0.3517
   56DOPE  H18R 7175  -0.059   6.256  15.016  0.1528 -1.9447  0.2664
   56DOPE  H18S 7176  -0.158   6.161  14.896  1.4111 -0.5089 -0.2494
   56DOPE  H18T 7177  -0.200   6.148  15.072  2.4725 -1.9623 -0.1409
   56DOPE   C33 7178  -0.167   6.466  13.864 -0.4346  0.0158 -0.3031
   56DOPE   H3X 7179  -0.274   6.436  13.859 -1.0420  1.9363  0.6449
   56DOPE   H3Y 7180  -0.161   6.574  13.840  2.1379 -0.3566 -1.7019
   56DOPE   C34 7181  -0.113   6.443  14.007 -0.1808 -0.2433 -0.1621
   56DOPE   H4X 7182  -0.006   6.474  14.008 -0.5085  1.0252 -1.4122
   56DOPE   H4Y 7183  -0.171   6.505  14.079 -3.5382 -2.9833 -0.2308
   56DOPE   C35 7184  -0.120   6.300  14.059  0.5303 -0.0133 -0.4706
   56DOPE   H5X 7185  -0.076   6.237  13.979 -1.4141 -0.8508 -0.9324
   56DOPE   H5Y 7186  -0.224   6.262  14.066 -0.4667  2.4888 -0.7602
   56DOPE   C36 7187  -0.052   6.298  14.190  0.3066  0.1199  0.0246
   56DOPE   H6X 7188  -0.103   6.370  14.257  0.0774  0.3644 -0.4052
   56DOPE   H6Y 7189   0.054   6.329  14.177  0.4299 -0.7809 -1.2547
   56DOPE   C37 7190  -0.048   6.155  14.248  0.0481  1.0285 -0.0501
   56DOPE   H7X 7191  -0.153   6.136  14.280  0.5093 -0.9125  0.4146
   56DOPE   H7Y 7192  -0.027   6.073  14.176  0.2536 -0.1059  1.2565
   56DOPE   C38 7193   0.034   6.147  14.369 -0.5541 -1.0357 -0.5571
   56DOPE   H8X 7194   0.135   6.179  14.336 -1.0226  1.0464 -0.1101
   56DOPE   H8Y 7195   0.048   6.044  14.408  2.9901  0.0054  1.3177
   56DOPE   C39 7196  -0.021   6.225  14.490  0.2800 -0.3980  0.2581
   56DOPE   H9X 7197  -0.129   6.240  14.479  0.4185 -0.1747 -0.9175
   56DOPE  C310 7198   0.054   6.290  14.579 -0.4478  0.2097  0.6595
   56DOPE  H10X 7199   0.003   6.365  14.642  1.0148  1.8031  0.0456
   56DOPE  C311 7200   0.203   6.302  14.591 -1.1346  0.1960 -0.3641
   56DOPE  H11X 7201   0.256   6.340  14.501  0.3775  2.1753  1.2504
   56DOPE  H11Y 7202   0.224   6.386  14.662  0.9319 -0.0542 -0.6077
   56DOPE  C312 7203   0.266   6.174  14.646 -0.5272  0.3376  0.5009
   56DOPE  H12X 7204   0.270   6.098  14.565 -1.9003  1.1557 -0.3823
   56DOPE  H12Y 7205   0.200   6.133  14.726 -0.5543  0.1408  0.3790
   56DOPE  C313 7206   0.403   6.204  14.711  0.0321  0.3776 -0.5254
   56DOPE  H13X 7207   0.467   6.253  14.635 -0.6029 -1.5243 -2.3663
   56DOPE  H13Y 7208   0.383   6.267  14.800  0.4179 -0.9666  0.5604
   56DOPE  C314 7209   0.471   6.077  14.757  0.0748 -0.2325  0.2404
   56DOPE  H14X 7210   0.522   6.034  14.668  0.8162  0.7013  0.1930
   56DOPE  H14Y 7211   0.400   6.002  14.798 -2.2885  0.4133 -2.3836
   56DOPE  C315 7212   0.576   6.105  14.858 -0.0260 -0.2205 -0.1768
   56DOPE  H15X 7213   0.655   6.028  14.845 -0.0241 -0.1606 -0.5319
   56DOPE  H15Y 7214   0.534   6.109  14.961  2.1158  2.0845  0.7315
   56DOPE  C316 7215   0.646   6.242  14.832 -0.5213 -0.6659 -0.2147
   56DOPE  H16X 7216   0.577   6.329  14.838  2.2133  1.5954  1.2266
   56DOPE  H16Y 7217   0.696   6.252  14.733 -1.9033  1.7133 -0.7469
   56DOPE  C317 7218   0.745   6.281  14.948  0.4551  0.3566 -0.2091
   56DOPE  H17X 7219   0.699   6.274  15.048  1.2750 -0.9681  0.0915
   56DOPE  H17Y 7220   0.825   6.204  14.943 -0.2343 -0.3187 -1.5780
   56DOPE  C318 7221   0.802   6.420  14.923 -0.3450  0.5394 -0.2196
   56DOPE  H18X 7222   0.722   6.493  14.950 -1.4027 -0.9632  0.9045
   56DOPE  H18Y 7223   0.892   6.441  14.984  0.6196  0.7833 -1.6708
   56DOPE  H18Z 7224   0.846   6.440  14.823  1.2220  0.1594  0.3675
   57DOPE     N 7225   0.207   2.311  12.656  0.3006  0.2447 -0.3843
   57DOPE   HN1 7226   0.184   2.394  12.713 -0.9554 -1.0166  1.0392
   57DOPE   HN2 7227   0.284   2.319  12.587  1.0159 -2.4321 -0.0344
   57DOPE   HN3 7228   0.122   2.280  12.605  0.1393  0.0138  0.0142
   57DOPE   C12 7229   0.249   2.189  12.743 -0.0143 -0.2628 -1.0084
   57DOPE  H12A 7230   0.345   2.214  12.791  1.0711  0.8937 -3.6176
   57DOPE  H12B 7231   0.269   2.104  12.674  0.8274  0.1219 -1.2420
   57DOPE   C11 7232   0.141   2.164  12.850 -0.4799  0.9317  0.6998
   57DOPE  H11A 7233   0.191   2.082  12.907 -1.9287 -2.3932 -2.4143
   57DOPE  H11B 7234   0.050   2.121  12.803  0.6765  0.7304 -1.4629
   57DOPE     P 7235   0.011   2.314  13.026 -0.0643  0.2237 -0.3728
   57DOPE   O13 7236  -0.092   2.210  13.005 -0.0124  0.2511  0.6184
   57DOPE   O14 7237  -0.025   2.455  13.006  0.3496 -0.0202 -0.0904
   57DOPE   O11 7238   0.080   2.293  13.161 -0.0177  0.1321  0.4016
   57DOPE   O12 7239   0.122   2.281  12.929 -0.2273  0.3148 -0.0358
   57DOPE    C1 7240   0.064   2.191  13.255 -0.6457  0.1850 -0.4226
   57DOPE    HA 7241   0.149   2.185  13.327 -3.0483 -0.4444  2.5756
   57DOPE    HB 7242   0.071   2.094  13.201  0.3997 -0.0814  0.1618
   57DOPE    C2 7243  -0.065   2.191  13.336  0.2731  0.4994 -0.4781
   57DOPE    HS 7244  -0.144   2.197  13.258 -0.3828  1.3965  0.2311
   57DOPE   O21 7245  -0.060   2.301  13.426  0.0397 -0.1200  0.0345
   57DOPE   C21 7246  -0.166   2.375  13.439  0.2140  0.2421  0.8492
   57DOPE   O22 7247  -0.260   2.380  13.359 -0.2805  0.1777  0.5372
   57DOPE   C22 7248  -0.136   2.460  13.557  0.8667  0.6690 -0.0412
   57DOPE   H2R 7249  -0.209   2.543  13.542 -0.6690 -0.8573 -1.3888
   57DOPE   H2S 7250  -0.043   2.516  13.535  0.3930  1.8446  0.7942
   57DOPE    C3 7251  -0.095   2.065  13.418 -0.2009 -0.0467  0.1430
   57DOPE    HX 7252  -0.009   2.041  13.484 -1.5268  0.0130  1.9787
   57DOPE    HY 7253  -0.116   1.974  13.359  0.8933 -1.3257  1.6555
   57DOPE   O31 7254  -0.209   2.073  13.509  0.3165 -0.2517  0.0668
   57DOPE   C31 7255  -0.324   2.090  13.435 -0.1251  0.4912 -0.3536
   57DOPE   O32 7256  -0.341   2.057  13.320 -0.1336  0.4913  0.3945
   57DOPE   C32 7257  -0.434   2.145  13.531 -0.6187 -0.2543 -0.1637
   57DOPE   H2X 7258  -0.424   2.084  13.623 -1.4858 -0.1228  0.0318
   57DOPE   H2Y 7259  -0.397   2.247  13.551 -2.2032  0.2804  0.1880
   57DOPE   C23 7260  -0.124   2.395  13.696  0.0080  0.4835 -0.1754
   57DOPE   H3R 7261  -0.061   2.449  13.770  0.0447  1.3795 -0.8387
   57DOPE   H3S 7262  -0.078   2.296  13.677  2.4467  1.3312  0.8748
   57DOPE   C24 7263  -0.253   2.380  13.778  0.6993  0.1823  0.2248
   57DOPE   H4R 7264  -0.322   2.308  13.729 -0.4413  0.8214  0.8263
   57DOPE   H4S 7265  -0.305   2.479  13.782  0.0265 -0.0656 -1.3237
   57DOPE   C25 7266  -0.232   2.344  13.928 -0.3442  0.0728 -0.1129
   57DOPE   H5R 7267  -0.171   2.428  13.967 -0.4777  0.5186 -0.8370
   57DOPE   H5S 7268  -0.179   2.246  13.934 -0.2731 -0.0298 -1.7600
   57DOPE   C26 7269  -0.361   2.329  14.005 -0.3323  0.0282 -0.1211
   57DOPE   H6R 7270  -0.406   2.238  13.962  0.1103  0.2981 -1.1912
   57DOPE   H6S 7271  -0.435   2.411  13.995 -2.3803 -1.5661  1.1118
   57DOPE   C27 7272  -0.340   2.308  14.162  0.1357 -0.7246 -0.2269
   57DOPE   H7R 7273  -0.294   2.401  14.203  0.2082 -0.8209 -0.0902
   57DOPE   H7S 7274  -0.265   2.226  14.169 -0.3561 -1.1460  0.1646
   57DOPE   C28 7275  -0.474   2.272  14.238  0.3992 -0.0536 -0.5113
   57DOPE   H8R 7276  -0.452   2.245  14.343 -0.4035 -1.2911 -0.6456
   57DOPE   H8S 7277  -0.527   2.192  14.183 -2.6617  2.6445 -1.8287
   57DOPE   C29 7278  -0.582   2.378  14.246  0.3563  0.3971 -0.7402
   57DOPE   H9R 7279  -0.606   2.427  14.151  1.1893  0.4379 -0.9364
   57DOPE  C210 7280  -0.628   2.434  14.364  0.1037 -0.0256  0.8737
   57DOPE  H10R 7281  -0.718   2.498  14.355 -2.2017 -2.8504  2.1986
   57DOPE  C211 7282  -0.583   2.405  14.505  0.5262  0.5213 -0.2014
   57DOPE  H11R 7283  -0.559   2.299  14.528 -1.6037  0.0551  0.1359
   57DOPE  H11S 7284  -0.666   2.437  14.572 -1.3624  0.2482 -2.2933
   57DOPE  C212 7285  -0.461   2.494  14.548  0.4182  0.2215 -0.6463
   57DOPE  H12R 7286  -0.379   2.488  14.473  0.3054  0.9614 -0.8356
   57DOPE  H12S 7287  -0.427   2.437  14.637  0.2152  0.7323 -0.2387
   57DOPE  C213 7288  -0.490   2.643  14.573 -0.0126  0.2340 -0.0744
   57DOPE  H13R 7289  -0.523   2.701  14.484  0.0380  1.1832  0.5204
   57DOPE  H13S 7290  -0.389   2.685  14.592  0.5204 -1.2195  0.4411
   57DOPE  C214 7291  -0.573   2.677  14.696 -0.5183 -0.2920  0.4985
   57DOPE  H14R 7292  -0.677   2.647  14.671 -0.3968  0.4631 -1.0126
   57DOPE  H14S 7293  -0.585   2.787  14.703  3.1509  0.2520  0.1951
   57DOPE  C215 7294  -0.519   2.634  14.833  0.7513  0.1773  1.2266
   57DOPE  H15R 7295  -0.417   2.676  14.843  0.8768  0.6880 -1.4485
   57DOPE  H15S 7296  -0.512   2.523  14.839 -0.3280 -0.0318 -0.6170
   57DOPE  C216 7297  -0.609   2.679  14.947  0.6941  0.6894 -0.5575
   57DOPE  H16R 7298  -0.706   2.626  14.937 -0.0245  1.2800  2.4403
   57DOPE  H16S 7299  -0.645   2.783  14.939  0.5709  0.7178  0.2277
   57DOPE  C217 7300  -0.551   2.658  15.086  0.5344 -0.2310  0.0468
   57DOPE  H17R 7301  -0.462   2.725  15.084  0.9644 -0.7947 -1.0221
   57DOPE  H17S 7302  -0.510   2.555  15.093  1.2053  0.0512  0.4021
   57DOPE  C218 7303  -0.647   2.712  15.194 -0.0108  0.4159  0.4736
   57DOPE  H18R 7304  -0.736   2.646  15.189  0.2755 -0.0310  1.1874
   57DOPE  H18S 7305  -0.674   2.818  15.175 -0.4844  0.0177 -1.3066
   57DOPE  H18T 7306  -0.609   2.702  15.298 -0.2274 -1.4615  0.3970
   57DOPE   C33 7307  -0.573   2.140  13.476  0.7111 -0.0442 -0.2317
   57DOPE   H3X 7308  -0.611   2.040  13.447 -1.3223  0.4846  0.4299
   57DOPE   H3Y 7309  -0.592   2.206  13.389 -0.3328 -1.1851 -0.9001
   57DOPE   C34 7310  -0.674   2.186  13.591 -0.1625  0.3117 -0.0579
   57DOPE   H4X 7311  -0.776   2.161  13.554 -0.4912 -0.0424  1.0350
   57DOPE   H4Y 7312  -0.652   2.117  13.676  0.3731  2.0090  1.2351
   57DOPE   C35 7313  -0.664   2.331  13.646  0.2949 -0.1793  0.3072
   57DOPE   H5X 7314  -0.680   2.392  13.555  0.7165 -0.9832 -0.3200
   57DOPE   H5Y 7315  -0.567   2.354  13.694  0.7067 -0.1828 -0.5155
   57DOPE   C36 7316  -0.782   2.356  13.743  0.7815 -0.0739  0.2487
   57DOPE   H6X 7317  -0.770   2.300  13.838  1.7477  0.3864  0.4077
   57DOPE   H6Y 7318  -0.865   2.302  13.693  0.1106 -0.0050  1.2476
   57DOPE   C37 7319  -0.812   2.508  13.764  0.1608  0.6046  0.1970
   57DOPE   H7X 7320  -0.815   2.557  13.664 -3.0258  4.3829  1.8331
   57DOPE   H7Y 7321  -0.910   2.521  13.815 -0.2822 -0.5189 -0.3328
   57DOPE   C38 7322  -0.699   2.577  13.836  0.2466 -0.4221  0.7121
   57DOPE   H8X 7323  -0.608   2.568  13.773  0.9756 -3.1372  1.9942
   57DOPE   H8Y 7324  -0.677   2.515  13.926 -0.2073 -1.3056  0.2333
   57DOPE   C39 7325  -0.729   2.722  13.865 -0.0496  0.0648 -0.0418
   57DOPE   H9X 7326  -0.735   2.788  13.778  0.8604  1.1619  0.6822
   57DOPE  C310 7327  -0.733   2.784  13.985  0.0350  0.1439 -0.6073
   57DOPE  H10X 7328  -0.758   2.891  13.994  0.1595  0.1954 -0.8766
   57DOPE  C311 7329  -0.716   2.720  14.121 -0.2898 -0.0984 -0.3987
   57DOPE  H11X 7330  -0.800   2.730  14.192 -1.1115  1.4701 -1.5442
   57DOPE  H11Y 7331  -0.700   2.610  14.124  3.0878  0.2990  0.1918
   57DOPE  C312 7332  -0.592   2.780  14.177 -0.3101 -0.2269 -0.3027
   57DOPE  H12X 7333  -0.583   2.761  14.286  1.2039  0.4070 -0.2801
   57DOPE  H12Y 7334  -0.586   2.890  14.163  2.3666 -0.3872 -1.0901
   57DOPE  C313 7335  -0.464   2.708  14.121 -0.0578 -0.6654 -1.1923
   57DOPE  H13X 7336  -0.482   2.600  14.101 -1.5021 -0.0627 -3.4287
   57DOPE  H13Y 7337  -0.431   2.750  14.024  2.0097 -1.0297 -0.7000
   57DOPE  C314 7338  -0.343   2.712  14.215 -0.1012  0.3187 -0.0962
   57DOPE  H14X 7339  -0.257   2.685  14.149 -0.2090 -2.1870  0.6715
   57DOPE  H14Y 7340  -0.338   2.641  14.300  0.7236  1.5290  0.9061
   57DOPE  C315 7341  -0.311   2.858  14.260 -0.8285  0.2167 -0.3930
   57DOPE  H15X 7342  -0.371   2.886  14.349 -1.2423  2.3127 -1.2935
   57DOPE  H15Y 7343  -0.323   2.920  14.170  0.8699  1.2582  0.0474
   57DOPE  C316 7344  -0.162   2.873  14.306  0.1068 -0.3553 -0.2640
   57DOPE  H16X 7345  -0.099   2.846  14.219  1.7012  0.1898  0.6721
   57DOPE  H16Y 7346  -0.140   2.813  14.398 -2.3027 -0.5310  0.2449
   57DOPE  C317 7347  -0.129   3.014  14.341 -0.4509 -0.7781  0.4802
   57DOPE  H17X 7348  -0.139   3.077  14.251 -0.3982 -0.4627  0.6944
   57DOPE  H17Y 7349  -0.196   3.061  14.416  1.0769  0.1589  1.3235
   57DOPE  C318 7350   0.006   3.030  14.408  0.1939  0.1363  0.2361
   57DOPE  H18X 7351   0.010   2.959  14.494 -2.5177  1.1572  1.2871
   57DOPE  H18Y 7352   0.089   2.991  14.345 -0.7874 -0.4099 -0.7534
   57DOPE  H18Z 7353   0.017   3.131  14.452 -2.5061  0.7854 -0.4278
   58DOPE     N 7354   6.729   5.653  13.069  0.1777  0.0842 -0.2867
   58DOPE   HN1 7355   6.669   5.568  13.064  0.0922  0.1007  0.3475
   58DOPE   HN2 7356   6.667   5.733  13.047  0.1010  0.0342 -0.2537
   58DOPE   HN3 7357   6.809   5.648  13.003  1.2739  2.8286  0.6989
   58DOPE   C12 7358   6.788   5.660  13.207  0.2535 -0.1084  0.1635
   58DOPE  H12A 7359   6.769   5.765  13.237  1.2050  0.0730  0.1440
   58DOPE  H12B 7360   6.896   5.637  13.205  0.7966  2.2469 -1.1750
   58DOPE   C11 7361   6.713   5.568  13.314 -0.1885 -1.3259  1.1370
   58DOPE  H11A 7362   6.609   5.602  13.336  0.4138 -0.5379  2.9837
   58DOPE  H11B 7363   6.764   5.598  13.408 -0.1526 -1.1093  1.0498
   58DOPE     P 7364   6.623   5.345  13.199  0.3264 -0.2550  0.0581
   58DOPE   O13 7365   6.683   5.218  13.158  0.0005  0.6607 -0.3194
   58DOPE   O14 7366   6.577   5.422  13.081 -0.5918  0.0489 -0.5736
   58DOPE   O11 7367   6.503   5.323  13.299  0.2697  0.1849  0.5204
   58DOPE   O12 7368   6.725   5.428  13.279  0.2574  0.3716  0.5004
   58DOPE    C1 7369   6.530   5.293  13.439 -0.7555  0.5255  0.3773
   58DOPE    HA 7370   6.592   5.366  13.495  0.7050 -2.6031  3.1890
   58DOPE    HB 7371   6.591   5.200  13.446  1.4794  1.8011 -1.0937
   58DOPE    C2 7372   6.404   5.260  13.530  0.0180  0.1155  0.4048
   58DOPE    HS 7373   6.347   5.185  13.472  0.6970  0.0621 -0.2074
   58DOPE   O21 7374   6.332   5.385  13.543 -0.5203  0.2562 -0.0672
   58DOPE   C21 7375   6.205   5.370  13.592 -0.7309 -0.9040  0.5089
   58DOPE   O22 7376   6.155   5.261  13.600  0.0791  0.2617 -0.3445
   58DOPE   C22 7377   6.165   5.500  13.653 -0.4530  0.1744 -0.9420
   58DOPE   H2R 7378   6.205   5.586  13.596  0.3233 -0.1060 -0.8327
   58DOPE   H2S 7379   6.217   5.502  13.751 -2.2539 -2.3978  0.1750
   58DOPE    C3 7380   6.456   5.209  13.666  0.3519  0.6658 -0.2560
   58DOPE    HX 7381   6.498   5.109  13.643  0.0166  0.0395  1.7021
   58DOPE    HY 7382   6.373   5.192  13.738  1.4889 -0.8667  0.7308
   58DOPE   O31 7383   6.550   5.301  13.731 -0.1123 -0.0899 -0.2178
   58DOPE   C31 7384   6.505   5.394  13.816 -0.8767 -0.0676 -0.1767
   58DOPE   O32 7385   6.401   5.395  13.880 -0.3183 -0.1601 -0.0942
   58DOPE   C32 7386   6.610   5.503  13.822 -0.1570 -0.4611  0.0734
   58DOPE   H2X 7387   6.703   5.460  13.867  2.0163  0.8806 -2.7784
   58DOPE   H2Y 7388   6.634   5.537  13.719  0.2582 -1.0581 -0.0390
   58DOPE   C23 7389   6.015   5.520  13.672 -0.1810 -0.2124 -0.0372
   58DOPE   H3R 7390   5.967   5.491  13.576 -1.4038  0.4871  0.3546
   58DOPE   H3S 7391   5.995   5.628  13.681  0.0614 -0.2526  1.1171
   58DOPE   C24 7392   5.961   5.442  13.792  0.1271  0.1264 -1.1397
   58DOPE   H4R 7393   6.003   5.486  13.885  0.1770  0.4790 -1.3275
   58DOPE   H4S 7394   6.004   5.342  13.770  0.6794  0.6391 -2.5319
   58DOPE   C25 7395   5.811   5.451  13.814  0.9372 -0.1445  0.8263
   58DOPE   H5R 7396   5.766   5.407  13.723  0.4227  1.6115  0.1878
   58DOPE   H5S 7397   5.776   5.554  13.833  0.2023  0.4788 -3.1610
   58DOPE   C26 7398   5.760   5.363  13.943  0.8651  0.3137  0.5051
   58DOPE   H6R 7399   5.793   5.262  13.909  1.5455  1.3117 -2.0079
   58DOPE   H6S 7400   5.650   5.367  13.954  1.0559  1.6452  2.5276
   58DOPE   C27 7401   5.818   5.412  14.078 -0.2684  0.3266  0.0016
   58DOPE   H7R 7402   5.809   5.522  14.065  0.0583  0.2139 -1.3644
   58DOPE   H7S 7403   5.919   5.368  14.093 -0.4663  0.3677  1.5805
   58DOPE   C28 7404   5.726   5.376  14.200  0.5718 -0.3962  0.0241
   58DOPE   H8R 7405   5.628   5.419  14.169 -0.1760 -0.1391  2.4660
   58DOPE   H8S 7406   5.754   5.434  14.291 -0.4736 -0.1089  0.1731
   58DOPE   C29 7407   5.714   5.224  14.222 -0.2835 -0.1499  0.5967
   58DOPE   H9R 7408   5.806   5.164  14.215 -0.8046 -1.0737  1.3622
   58DOPE  C210 7409   5.605   5.160  14.249  0.6421  0.3370  0.1060
   58DOPE  H10R 7410   5.608   5.050  14.242 -0.9383  0.2410  0.4523
   58DOPE  C211 7411   5.469   5.215  14.258  0.1062  0.6946 -0.5695
   58DOPE  H11R 7412   5.402   5.152  14.196  0.0344 -0.2626  0.4380
   58DOPE  H11S 7413   5.472   5.319  14.220  0.9266  0.3923 -1.3644
   58DOPE  C212 7414   5.422   5.212  14.405 -0.0585  0.3769  0.0113
   58DOPE  H12R 7415   5.470   5.286  14.472 -3.8935  2.6205  0.5311
   58DOPE  H12S 7416   5.439   5.111  14.449  1.0668  1.0909  1.2793
   58DOPE  C213 7417   5.270   5.244  14.410 -0.3612  0.1305 -0.1135
   58DOPE  H13R 7418   5.215   5.172  14.346  0.2435  1.1872 -1.8968
   58DOPE  H13S 7419   5.266   5.344  14.362  0.4213  0.2079 -0.0209
   58DOPE  C214 7420   5.206   5.238  14.552  0.2155  0.1459  0.2150
   58DOPE  H14R 7421   5.266   5.306  14.616  0.2454  0.5138 -0.2000
   58DOPE  H14S 7422   5.216   5.143  14.608 -2.4923 -0.9730 -1.0298
   58DOPE  C215 7423   5.061   5.287  14.546  0.3126 -0.6736  0.1781
   58DOPE  H15R 7424   5.007   5.228  14.469  3.1900 -1.9725 -1.0143
   58DOPE  H15S 7425   5.060   5.395  14.518  1.0712 -0.8603 -0.6081
   58DOPE  C216 7426   4.988   5.275  14.681  0.4034  0.5011 -0.1152
   58DOPE  H16R 7427   5.031   5.338  14.762 -1.2267  0.8205  0.5303
   58DOPE  H16S 7428   4.984   5.167  14.707 -1.7904 -0.0198 -2.2664
   58DOPE  C217 7429   4.839   5.322  14.670 -0.4863  0.0240 -0.9100
   58DOPE  H17R 7430   4.776   5.285  14.586 -1.8490 -0.3807  0.2534
   58DOPE  H17S 7431   4.844   5.432  14.655 -0.1013  0.5348  2.3051
   58DOPE  C218 7432   4.755   5.286  14.796  0.1254 -0.3702  0.0576
   58DOPE  H18R 7433   4.646   5.305  14.786  0.3451  3.3098  2.5518
   58DOPE  H18S 7434   4.787   5.343  14.886  0.6992 -0.4912 -0.0671
   58DOPE  H18T 7435   4.771   5.178  14.813 -1.8670 -1.5328 -4.2287
   58DOPE   C33 7436   6.564   5.622  13.906 -0.6649  0.4156  0.1817
   58DOPE   H3X 7437   6.525   5.580  14.001  0.1532 -2.9515 -0.8474
   58DOPE   H3Y 7438   6.493   5.676  13.841  1.1901 -0.4140 -2.7144
   58DOPE   C34 7439   6.681   5.707  13.943 -0.8904 -0.9572 -0.8831
   58DOPE   H4X 7440   6.757   5.652  14.002 -0.7124  1.7397  1.6503
   58DOPE   H4Y 7441   6.730   5.739  13.848 -0.5850  2.7844  0.3446
   58DOPE   C35 7442   6.631   5.816  14.035 -0.0650 -1.0905 -0.1892
   58DOPE   H5X 7443   6.574   5.777  14.122  0.5338  1.9738  1.7202
   58DOPE   H5Y 7444   6.569   5.881  13.970  1.2220  0.9455  0.5506
   58DOPE   C36 7445   6.748   5.893  14.112 -0.1965 -0.2396 -0.4357
   58DOPE   H6X 7446   6.799   5.952  14.034  2.7166 -2.0800 -0.0744
   58DOPE   H6Y 7447   6.824   5.816  14.139 -1.4223 -1.6256 -0.7761
   58DOPE   C37 7448   6.709   5.962  14.243  0.2252 -0.9892 -0.0845
   58DOPE   H7X 7449   6.642   6.049  14.230  2.0400  0.4585 -0.1910
   58DOPE   H7Y 7450   6.641   5.891  14.296 -0.5180 -0.4777 -0.3383
   58DOPE   C38 7451   6.832   5.998  14.338 -0.4375 -0.5395 -0.5553
   58DOPE   H8X 7452   6.891   5.905  14.354 -1.6827 -1.1198  0.9241
   58DOPE   H8Y 7453   6.812   6.027  14.443  3.1278  2.0750 -0.4149
   58DOPE   C39 7454   6.918   6.116  14.283  0.6172  0.4080 -0.1345
   58DOPE   H9X 7455   7.007   6.081  14.229  0.9581  1.0077  0.0218
   58DOPE  C310 7456   6.885   6.250  14.294 -0.5180  0.0339  0.4646
   58DOPE  H10X 7457   6.965   6.312  14.250 -0.2824  0.4575  1.4748
   58DOPE  C311 7458   6.760   6.309  14.363 -0.6485 -0.2219  0.2374
   58DOPE  H11X 7459   6.713   6.371  14.284  0.8223  1.5633  0.7003
   58DOPE  H11Y 7460   6.690   6.227  14.391  0.1243 -0.3425  1.9431
   58DOPE  C312 7461   6.783   6.410  14.483 -1.1657 -0.2573  0.1174
   58DOPE  H12X 7462   6.826   6.503  14.441  0.9239 -1.7374 -1.1974
   58DOPE  H12Y 7463   6.867   6.368  14.542  0.9044  1.8943 -1.1035
   58DOPE  C313 7464   6.667   6.447  14.574 -0.6878  0.5969  1.1234
   58DOPE  H13X 7465   6.601   6.517  14.518 -0.0517 -0.4121 -0.9983
   58DOPE  H13Y 7466   6.602   6.357  14.580 -1.9284  1.3676 -0.2693
   58DOPE  C314 7467   6.692   6.486  14.721 -0.1075 -0.2109  0.1724
   58DOPE  H14X 7468   6.769   6.565  14.736  1.4310 -1.7714  0.8253
   58DOPE  H14Y 7469   6.736   6.402  14.778 -0.3378  0.1744  0.9355
   58DOPE  C315 7470   6.562   6.525  14.784 -0.6459 -0.3194 -0.0817
   58DOPE  H15X 7471   6.481   6.451  14.762 -1.8784  0.5239  1.3997
   58DOPE  H15Y 7472   6.529   6.615  14.728 -2.4259 -0.7044  0.2900
   58DOPE  C316 7473   6.568   6.551  14.938 -0.2513  0.0091 -0.1659
   58DOPE  H16X 7474   6.630   6.641  14.957 -1.4124  0.5347  1.3445
   58DOPE  H16Y 7475   6.618   6.466  14.989 -0.8484  0.5689  1.4255
   58DOPE  C317 7476   6.431   6.561  15.000 -0.0344  0.2725 -0.9578
   58DOPE  H17X 7477   6.438   6.611  15.099 -1.4902 -1.7861  0.2755
   58DOPE  H17Y 7478   6.359   6.618  14.937 -0.2590 -0.6801 -1.5900
   58DOPE  C318 7479   6.380   6.420  15.033 -0.8263 -0.4660  0.2134
   58DOPE  H18X 7480   6.463   6.359  15.074  2.1031  1.5141 -2.3143
   58DOPE  H18Y 7481   6.288   6.427  15.096 -0.6198  1.1860  0.3630
   58DOPE  H18Z 7482   6.353   6.383  14.932 -0.9642  2.9043 -1.0934
   59DOPE     N 7483   6.894   0.959  13.093  0.5449  0.6553 -0.5526
   59DOPE   HN1 7484   6.814   0.910  13.048  0.4012 -2.1458  2.3455
   59DOPE   HN2 7485   6.926   0.891  13.165 -1.2684  0.4456  0.0944
   59DOPE   HN3 7486   6.843   1.037  13.138  0.2364  0.5624 -0.7319
   59DOPE   C12 7487   6.985   1.029  13.001 -0.3240  0.1442  0.3862
   59DOPE  H12A 7488   6.951   1.133  12.983  2.4120  1.2581  1.1881
   59DOPE  H12B 7489   6.988   0.969  12.907  0.9758  2.0398 -0.8326
   59DOPE   C11 7490   7.126   1.044  13.061 -0.0902 -0.2995 -0.0223
   59DOPE  H11A 7491   7.127   1.129  13.133  0.9343  1.3447 -1.8736
   59DOPE  H11B 7492   7.202   1.062  12.982  0.3889 -0.4935  0.3848
   59DOPE     P 7493   7.295   0.931  13.201  0.2833 -0.3110 -0.4641
   59DOPE   O13 7494   7.356   1.061  13.178 -0.4804  0.3230  0.6312
   59DOPE   O14 7495   7.365   0.804  13.171 -1.2582  0.3199 -0.2994
   59DOPE   O11 7496   7.231   0.926  13.345 -0.4045  0.2572 -0.2562
   59DOPE   O12 7497   7.165   0.925  13.122 -0.1465  0.3783 -0.7286
   59DOPE    C1 7498   7.174   0.798  13.384  0.0147 -0.6949  0.2304
   59DOPE    HA 7499   7.252   0.719  13.392  0.0366 -0.8327 -1.1428
   59DOPE    HB 7500   7.093   0.770  13.313 -1.3131 -0.4627  1.5785
   59DOPE    C2 7501   7.120   0.805  13.528 -0.8116  0.1455  0.1795
   59DOPE    HS 7502   7.044   0.724  13.534 -0.0615 -1.0294 -3.5583
   59DOPE   O21 7503   7.045   0.926  13.557 -0.6889  0.0834  0.3885
   59DOPE   C21 7504   6.948   0.963  13.476 -0.7041 -0.7245  0.4833
   59DOPE   O22 7505   6.889   0.901  13.393  0.6015 -0.1011  0.4856
   59DOPE   C22 7506   6.915   1.104  13.513  0.4877  0.3630 -0.3939
   59DOPE   H2R 7507   6.872   1.149  13.421 -0.7100 -1.1041 -0.5866
   59DOPE   H2S 7508   7.003   1.161  13.550  0.5166  0.0318  0.0522
   59DOPE    C3 7509   7.239   0.782  13.636 -0.0294 -0.5049  0.2079
   59DOPE    HX 7510   7.324   0.851  13.619 -0.9006  0.2117 -1.4273
   59DOPE    HY 7511   7.289   0.683  13.624  3.4268  1.1316 -0.0488
   59DOPE   O31 7512   7.192   0.785  13.772 -0.3246 -0.6173 -0.2442
   59DOPE   C31 7513   7.189   0.908  13.817 -0.1950 -0.3265  0.7093
   59DOPE   O32 7514   7.234   1.009  13.759 -0.0587 -0.1595 -0.4954
   59DOPE   C32 7515   7.123   0.910  13.954 -0.1886 -0.6988 -0.6919
   59DOPE   H2X 7516   7.023   0.862  13.946 -0.6450 -0.3446  1.8353
   59DOPE   H2Y 7517   7.188   0.842  14.012  0.3112  1.0906  0.9678
   59DOPE   C23 7518   6.795   1.102  13.613  0.2045 -0.1990 -0.4415
   59DOPE   H3R 7519   6.828   1.053  13.707  1.6938  0.3200 -0.6653
   59DOPE   H3S 7520   6.708   1.043  13.578  1.7807 -2.7622 -0.3534
   59DOPE   C24 7521   6.748   1.243  13.646  0.2855 -0.1448  0.2791
   59DOPE   H4R 7522   6.718   1.295  13.552  0.2268  2.0915  1.4773
   59DOPE   H4S 7523   6.840   1.294  13.682 -0.0105  1.0865 -0.6384
   59DOPE   C25 7524   6.628   1.250  13.735 -0.3410 -0.6609 -0.0396
   59DOPE   H5R 7525   6.535   1.214  13.686  0.3567 -2.0819 -0.3913
   59DOPE   H5S 7526   6.606   1.356  13.761  1.8070 -0.9405  3.6002
   59DOPE   C26 7527   6.636   1.179  13.875 -0.1572 -0.1723 -0.5289
   59DOPE   H6R 7528   6.728   1.209  13.930 -0.5406  0.5421 -0.2545
   59DOPE   H6S 7529   6.632   1.069  13.860 -0.4315 -0.2543  0.1263
   59DOPE   C27 7530   6.527   1.215  13.980 -0.5459  0.1805 -0.7354
   59DOPE   H7R 7531   6.427   1.215  13.932  0.0730  0.2020 -2.0924
   59DOPE   H7S 7532   6.547   1.316  14.020 -1.4193  0.3187 -0.6428
   59DOPE   C28 7533   6.546   1.113  14.093  0.2374 -1.1859 -0.5967
   59DOPE   H8R 7534   6.650   1.112  14.133 -0.2589  0.6011  0.9138
   59DOPE   H8S 7535   6.514   1.013  14.056 -0.7954 -1.0089 -0.2136
   59DOPE   C29 7536   6.452   1.156  14.207  0.7110  0.0929 -0.1562
   59DOPE   H9R 7537   6.347   1.151  14.173  1.2289 -1.2091 -1.7006
   59DOPE  C210 7538   6.481   1.185  14.334 -0.1642 -0.1624 -0.4797
   59DOPE  H10R 7539   6.398   1.220  14.397 -0.5792  0.9125 -1.5845
   59DOPE  C211 7540   6.622   1.185  14.396 -0.3772  0.3975  0.6921
   59DOPE  H11R 7541   6.699   1.148  14.326 -1.4801 -0.9230  0.1468
   59DOPE  H11S 7542   6.619   1.106  14.474  1.2667  0.8759  1.2895
   59DOPE  C212 7543   6.676   1.323  14.439 -0.1910 -0.4355 -0.8531
   59DOPE  H12R 7544   6.678   1.377  14.342 -1.7608  0.4830 -0.4169
   59DOPE  H12S 7545   6.774   1.308  14.490 -0.5783 -1.5636 -0.3910
   59DOPE  C213 7546   6.577   1.388  14.536 -0.0262 -1.1750 -0.1921
   59DOPE  H13R 7547   6.556   1.322  14.623  0.2222 -0.6972  0.2323
   59DOPE  H13S 7548   6.477   1.416  14.495 -0.1891  0.5724  1.2778
   59DOPE  C214 7549   6.639   1.517  14.588 -0.8485  0.4342  0.0091
   59DOPE  H14R 7550   6.655   1.593  14.508 -1.1159  2.1260  1.5007
   59DOPE  H14S 7551   6.740   1.488  14.624 -1.1747 -1.2628 -0.3564
   59DOPE  C215 7552   6.567   1.586  14.696  0.4556 -0.4435  0.0181
   59DOPE  H15R 7553   6.561   1.520  14.786 -2.0308  1.0947  1.1127
   59DOPE  H15S 7554   6.462   1.603  14.663  0.7461  1.5457 -0.0195
   59DOPE  C216 7555   6.638   1.720  14.725  0.1890 -0.5788  0.8723
   59DOPE  H16R 7556   6.573   1.780  14.792  0.2352 -0.3558  0.7159
   59DOPE  H16S 7557   6.649   1.782  14.634 -0.6666 -2.3435 -0.4930
   59DOPE  C217 7558   6.768   1.709  14.805  0.2988 -0.1569 -0.1202
   59DOPE  H17R 7559   6.849   1.654  14.752 -0.4101  0.3625 -1.8135
   59DOPE  H17S 7560   6.752   1.641  14.892 -0.4885 -1.6274 -1.3631
   59DOPE  C218 7561   6.820   1.842  14.861 -0.3885  0.5842  0.4472
   59DOPE  H18R 7562   6.907   1.834  14.930  1.5781 -2.5969 -2.1261
   59DOPE  H18S 7563   6.744   1.912  14.903 -0.9950  0.9323 -1.1755
   59DOPE  H18T 7564   6.860   1.904  14.778 -1.8069 -0.6912 -1.2646
   59DOPE   C33 7565   7.108   1.049  14.023  0.2228 -0.0013 -0.1515
   59DOPE   H3X 7566   7.181   1.125  13.987  0.0551  0.4063  0.3579
   59DOPE   H3Y 7567   7.106   1.031  14.133 -1.2686 -2.0371 -0.4531
   59DOPE   C34 7568   6.968   1.113  14.012 -0.4462  0.2028  0.5997
   59DOPE   H4X 7569   6.958   1.158  13.910  1.5973 -0.8590 -0.1266
   59DOPE   H4Y 7570   6.889   1.036  14.022 -0.4259 -0.0890 -1.1327
   59DOPE   C35 7571   6.940   1.217  14.127 -0.1164  1.1826  0.4604
   59DOPE   H5X 7572   6.918   1.165  14.223 -0.3506 -0.3452 -0.3771
   59DOPE   H5Y 7573   6.840   1.260  14.105 -0.9399 -1.1018 -0.5772
   59DOPE   C36 7574   7.045   1.325  14.152  0.2730 -0.2642  0.6223
   59DOPE   H6X 7575   7.066   1.390  14.065  1.8284 -1.4534  0.0535
   59DOPE   H6Y 7576   7.144   1.280  14.176 -0.6731 -2.1305  1.2697
   59DOPE   C37 7577   6.998   1.400  14.273  0.1312 -0.9335  0.0450
   59DOPE   H7X 7578   6.893   1.427  14.247 -0.0567 -2.7563 -1.2930
   59DOPE   H7Y 7579   6.985   1.330  14.358 -0.4875 -0.5172  0.3014
   59DOPE   C38 7580   7.093   1.516  14.304 -0.1758  0.0424 -0.2191
   59DOPE   H8X 7581   7.030   1.568  14.380 -1.0077 -0.9960 -0.1603
   59DOPE   H8Y 7582   7.109   1.584  14.218  0.1704  1.3661  0.8610
   59DOPE   C39 7583   7.225   1.463  14.355 -0.4156 -1.0175  0.0114
   59DOPE   H9X 7584   7.298   1.438  14.276 -1.0936 -4.5885  0.3178
   59DOPE  C310 7585   7.258   1.443  14.480  0.3298 -0.2930  0.3125
   59DOPE  H10X 7586   7.358   1.404  14.506 -0.2829 -0.6994  2.1959
   59DOPE  C311 7587   7.179   1.465  14.601  0.0042  0.5723  0.6520
   59DOPE  H11X 7588   7.205   1.561  14.651 -0.1212  0.8525  0.1874
   59DOPE  H11Y 7589   7.077   1.497  14.572  0.7120  1.0600 -1.4973
   59DOPE  C312 7590   7.177   1.351  14.699  0.8876 -0.6163 -0.8519
   59DOPE  H12X 7591   7.283   1.327  14.718  0.4904 -1.7594 -0.0291
   59DOPE  H12Y 7592   7.128   1.262  14.653 -0.3935 -0.5745  0.3708
   59DOPE  C313 7593   7.099   1.387  14.827  0.7200 -0.3563  0.1107
   59DOPE  H13X 7594   7.140   1.325  14.910  1.7714  0.5629  0.2953
   59DOPE  H13Y 7595   7.121   1.494  14.843  0.4840 -0.2856 -0.0359
   59DOPE  C314 7596   6.949   1.353  14.819 -0.0902 -1.0442  0.7030
   59DOPE  H14X 7597   6.906   1.404  14.731 -0.5647 -1.7457  0.5215
   59DOPE  H14Y 7598   6.909   1.406  14.908  0.4333  1.4364 -0.4691
   59DOPE  C315 7599   6.904   1.208  14.818  0.2697  0.4830 -0.1329
   59DOPE  H15X 7600   6.950   1.161  14.908  1.0722  0.8008 -0.3607
   59DOPE  H15Y 7601   6.943   1.159  14.726 -1.1233 -1.0945  0.0779
   59DOPE  C316 7602   6.750   1.190  14.805  0.5281  0.2872 -0.1665
   59DOPE  H16X 7603   6.723   1.251  14.716  0.5438  1.0973  0.3713
   59DOPE  H16Y 7604   6.715   1.260  14.884 -2.0523  0.7608 -1.5989
   59DOPE  C317 7605   6.697   1.046  14.820 -0.0879 -0.9152 -0.3572
   59DOPE  H17X 7606   6.592   1.036  14.784 -0.6651 -1.9966  1.5066
   59DOPE  H17Y 7607   6.771   0.981  14.768  2.5004  0.6877  1.1550
   59DOPE  C318 7608   6.716   1.003  14.969  0.4020  0.9202  0.4660
   59DOPE  H18X 7609   6.658   1.069  15.037 -0.0891  0.3786  0.5797
   59DOPE  H18Y 7610   6.673   0.902  14.988  1.5089  0.1067 -1.0478
   59DOPE  H18Z 7611   6.823   1.004  14.998  0.4326 -1.5755  0.6683
   60DOPE     N 7612   6.388   6.673  12.763  0.0558 -0.4935  0.1769
   60DOPE   HN1 7613   6.294   6.718  12.755 -0.2542 -1.3870 -4.3241
   60DOPE   HN2 7614   6.419   6.658  12.665  1.2748  0.3603  0.4204
   60DOPE   HN3 7615   6.383   6.577  12.804 -0.0269 -0.9706 -0.9113
   60DOPE   C12 7616   6.482   6.758  12.842  0.3880  0.2790  0.0099
   60DOPE  H12A 7617   6.511   6.839  12.772  0.2628  0.8989  0.6650
   60DOPE  H12B 7618   6.567   6.694  12.874  0.0878 -0.8008 -1.2767
   60DOPE   C11 7619   6.406   6.817  12.966 -0.2025 -0.0561 -0.0628
   60DOPE  H11A 7620   6.482   6.842  13.043 -0.9621 -0.4013  0.8135
   60DOPE  H11B 7621   6.331   6.746  13.005  0.7027 -0.5567  0.8219
   60DOPE     P 7622   6.316   7.070  13.010 -0.4132  0.1159 -0.1222
   60DOPE   O13 7623   6.229   7.155  12.929  0.2327  0.5996 -0.3566
   60DOPE   O14 7624   6.456   7.105  13.044 -0.4966 -0.1207 -0.4475
   60DOPE   O11 7625   6.239   7.025  13.142 -0.3667 -0.1627  0.2493
   60DOPE   O12 7626   6.330   6.931  12.927 -0.1262 -0.3398 -0.1446
   60DOPE    C1 7627   6.122   6.953  13.133  0.0762 -0.6619 -0.3267
   60DOPE    HA 7628   6.117   6.891  13.041  2.0276 -1.5353  0.1028
   60DOPE    HB 7629   6.030   7.015  13.130 -2.2549 -3.7993  0.6809
   60DOPE    C2 7630   6.107   6.868  13.263  0.3384  0.2964 -0.7249
   60DOPE    HS 7631   6.000   6.838  13.261  0.3570  0.2032 -0.3392
   60DOPE   O21 7632   6.150   6.939  13.386  0.4282 -0.2642 -0.4324
   60DOPE   C21 7633   6.069   7.042  13.405  0.7262 -0.0789  1.1812
   60DOPE   O22 7634   5.961   7.056  13.351  0.4467 -0.5685 -0.0894
   60DOPE   C22 7635   6.121   7.122  13.520 -0.5405 -0.2268 -0.3556
   60DOPE   H2R 7636   6.212   7.175  13.485 -0.9045  0.0581 -0.8783
   60DOPE   H2S 7637   6.164   7.045  13.587  0.7203  0.8277  0.0849
   60DOPE    C3 7638   6.184   6.738  13.263 -0.1113  0.5735 -0.7403
   60DOPE    HX 7639   6.287   6.779  13.263  0.0088  0.2874 -1.3237
   60DOPE    HY 7640   6.159   6.681  13.171 -3.9599 -1.4240  1.2823
   60DOPE   O31 7641   6.149   6.659  13.381 -0.0872  0.0228  0.2416
   60DOPE   C31 7642   6.233   6.554  13.395 -0.4888 -0.4035 -0.3800
   60DOPE   O32 7643   6.333   6.526  13.333 -0.4157 -0.1672  0.3969
   60DOPE   C32 7644   6.180   6.470  13.507  0.5678 -0.0238  0.2436
   60DOPE   H2X 7645   6.216   6.366  13.495  0.0119 -0.1158 -0.7157
   60DOPE   H2Y 7646   6.234   6.503  13.598  0.1406  1.5583 -0.0498
   60DOPE   C23 7647   6.024   7.220  13.571  0.1793 -0.8738 -0.3016
   60DOPE   H3R 7648   5.934   7.159  13.596 -0.1504  0.0588  0.8793
   60DOPE   H3S 7649   5.990   7.300  13.502  0.3236 -0.5012  0.0536
   60DOPE   C24 7650   6.064   7.288  13.703  1.5272  0.5262 -0.0871
   60DOPE   H4R 7651   6.146   7.362  13.687  0.5985  1.6295  0.1474
   60DOPE   H4S 7652   6.124   7.210  13.754  0.5944  0.6199  1.1834
   60DOPE   C25 7653   5.947   7.325  13.797  0.0010  0.1127  0.8703
   60DOPE   H5R 7654   5.877   7.239  13.801 -0.1713  0.0699 -1.4179
   60DOPE   H5S 7655   5.897   7.415  13.754 -1.6466 -1.3999 -0.5049
   60DOPE   C26 7656   5.987   7.362  13.938 -0.3885  0.1074 -0.3593
   60DOPE   H6R 7657   6.050   7.452  13.950 -0.7256  0.4209 -0.8967
   60DOPE   H6S 7658   6.047   7.278  13.980  0.0312  0.6378  0.1060
   60DOPE   C27 7659   5.865   7.374  14.025 -0.6629  0.5037  0.4706
   60DOPE   H7R 7660   5.818   7.274  14.015 -1.1508  0.4821  2.5385
   60DOPE   H7S 7661   5.787   7.439  13.981 -1.0466 -1.1055 -1.3716
   60DOPE   C28 7662   5.909   7.404  14.165  0.0956  0.2007  0.3371
   60DOPE   H8R 7663   5.964   7.501  14.163 -0.0229  0.2728  0.5514
   60DOPE   H8S 7664   5.972   7.322  14.207 -0.7230 -0.3437  0.5213
   60DOPE   C29 7665   5.792   7.407  14.257 -0.2374 -0.1979 -0.5173
   60DOPE   H9R 7666   5.713   7.340  14.219 -0.8984  0.6841 -0.7271
   60DOPE  C210 7667   5.770   7.471  14.374 -0.0088 -0.1598  0.2615
   60DOPE  H10R 7668   5.677   7.448  14.429 -0.9029 -0.8137 -1.4482
   60DOPE  C211 7669   5.871   7.568  14.439 -0.2948  0.4637  0.0689
   60DOPE  H11R 7670   5.872   7.670  14.395 -0.3194  1.7526  2.8932
   60DOPE  H11S 7671   5.977   7.536  14.425 -0.4273  0.0830 -0.0740
   60DOPE  C212 7672   5.859   7.573  14.591  0.3750 -0.0904  0.0679
   60DOPE  H12R 7673   5.889   7.471  14.624 -0.9448 -0.1715  1.1052
   60DOPE  H12S 7674   5.755   7.592  14.625  0.0445 -0.5842 -0.6556
   60DOPE  C213 7675   5.956   7.673  14.652 -0.0568  1.1157 -0.5117
   60DOPE  H13R 7676   5.921   7.776  14.630  0.2965  1.7308  1.6412
   60DOPE  H13S 7677   6.052   7.671  14.596 -0.4177 -0.1356 -1.1217
   60DOPE  C214 7678   5.968   7.652  14.802  0.3753 -0.4526 -0.4978
   60DOPE  H14R 7679   6.005   7.555  14.841 -1.0945 -2.0685 -2.8961
   60DOPE  H14S 7680   5.862   7.665  14.830 -0.3855 -3.3275 -1.7654
   60DOPE  C215 7681   6.055   7.775  14.858 -0.1879 -0.4053  0.3192
   60DOPE  H15R 7682   6.056   7.771  14.969  0.9424  1.7476  0.4412
   60DOPE  H15S 7683   6.000   7.865  14.823  0.7888  0.3124  0.5697
   60DOPE  C216 7684   6.203   7.773  14.801 -0.8001  0.3648 -1.1929
   60DOPE  H16R 7685   6.271   7.850  14.843  0.1184 -1.4153  0.7374
   60DOPE  H16S 7686   6.201   7.785  14.690  0.4967  0.3274 -1.2334
   60DOPE  C217 7687   6.266   7.634  14.830  0.3758  0.7354  0.9126
   60DOPE  H17R 7688   6.205   7.554  14.783  2.1719  0.6256 -1.4079
   60DOPE  H17S 7689   6.265   7.609  14.938 -0.2908 -1.2381  0.4916
   60DOPE  C218 7690   6.409   7.628  14.782 -0.3131 -0.5266  0.1534
   60DOPE  H18R 7691   6.458   7.531  14.804  0.0873 -0.3106  0.2263
   60DOPE  H18S 7692   6.474   7.707  14.825 -0.7597 -0.9911  1.7148
   60DOPE  H18T 7693   6.406   7.627  14.671  0.6725 -2.4792  0.1155
   60DOPE   C33 7694   6.020   6.459  13.531 -0.4006  0.5582 -0.1406
   60DOPE   H3X 7695   5.977   6.405  13.443  0.4874  0.4303 -0.5046
   60DOPE   H3Y 7696   5.978   6.560  13.545 -0.6629  0.4796 -0.3423
   60DOPE   C34 7697   5.995   6.388  13.661  0.8939  0.5543 -0.3605
   60DOPE   H4X 7698   5.887   6.373  13.682  1.1477  1.6009  2.0311
   60DOPE   H4Y 7699   6.048   6.291  13.674  1.5573  0.9720  0.1520
   60DOPE   C35 7700   6.034   6.479  13.783 -0.7362 -0.3528 -0.3249
   60DOPE   H5X 7701   5.977   6.573  13.763 -0.5407  0.0086  0.7656
   60DOPE   H5Y 7702   6.141   6.508  13.781 -1.2323  1.6522  0.2201
   60DOPE   C36 7703   5.997   6.411  13.916 -0.2736 -0.1579 -0.2140
   60DOPE   H6X 7704   6.064   6.323  13.923  1.2638  0.9508 -0.4776
   60DOPE   H6Y 7705   5.893   6.373  13.903 -0.4054  0.2449 -0.3326
   60DOPE   C37 7706   6.010   6.498  14.040  0.1918  0.2136  0.1492
   60DOPE   H7X 7707   6.119   6.516  14.028  0.7799 -1.7225  2.0800
   60DOPE   H7Y 7708   5.953   6.593  14.030  1.3556  0.7892 -1.7293
   60DOPE   C38 7709   6.001   6.425  14.174  0.0340 -0.5385 -0.3019
   60DOPE   H8X 7710   6.070   6.339  14.183 -1.6889 -1.9231  0.3195
   60DOPE   H8Y 7711   5.903   6.373  14.179 -0.2403 -0.1626 -1.3541
   60DOPE   C39 7712   6.029   6.526  14.284 -0.4517  0.5089 -0.2298
   60DOPE   H9X 7713   6.101   6.603  14.256  1.2435 -1.4480 -1.5981
   60DOPE  C310 7714   5.971   6.511  14.407  0.0524 -0.2209  0.2955
   60DOPE  H10X 7715   5.999   6.590  14.478  3.2816 -0.2679 -0.7325
   60DOPE  C311 7716   5.877   6.407  14.461  0.1918  0.2296  0.0810
   60DOPE  H11X 7717   5.781   6.457  14.486 -0.0911 -0.9366  1.4504
   60DOPE  H11Y 7718   5.845   6.338  14.380  0.4788 -0.2894  0.4003
   60DOPE  C312 7719   5.926   6.314  14.578  0.1165 -0.1324 -0.0766
   60DOPE  H12X 7720   5.970   6.382  14.654  0.4316  2.0227 -2.0639
   60DOPE  H12Y 7721   6.010   6.248  14.546  0.3322  0.4474 -0.7523
   60DOPE  C313 7722   5.815   6.238  14.648 -0.0636  0.2501 -0.5778
   60DOPE  H13X 7723   5.768   6.309  14.720  0.7911  0.3304 -0.0850
   60DOPE  H13Y 7724   5.734   6.216  14.575 -1.5572  2.7571  0.1881
   60DOPE  C314 7725   5.864   6.105  14.723 -0.6046  0.3307 -0.2478
   60DOPE  H14X 7726   5.924   6.139  14.810  1.6586 -1.6437 -0.9449
   60DOPE  H14Y 7727   5.937   6.058  14.654 -1.1615 -0.8511 -0.0495
   60DOPE  C315 7728   5.752   6.011  14.764 -1.6367 -0.2892 -0.2094
   60DOPE  H15X 7729   5.732   5.962  14.666 -0.2167 -0.4903 -0.4298
   60DOPE  H15Y 7730   5.671   6.078  14.800 -2.3614 -1.5942  0.6483
   60DOPE  C316 7731   5.794   5.894  14.848  0.3978 -0.0467 -0.3030
   60DOPE  H16X 7732   5.844   5.936  14.937  1.1606  1.5924 -1.4560
   60DOPE  H16Y 7733   5.864   5.831  14.789 -0.6356 -0.2585 -1.3539
   60DOPE  C317 7734   5.672   5.804  14.885  0.1373  0.4193 -0.3805
   60DOPE  H17X 7735   5.628   5.767  14.790 -0.0445 -0.5783  0.0834
   60DOPE  H17Y 7736   5.699   5.710  14.936 -2.3644 -1.5859 -2.4363
   60DOPE  C318 7737   5.569   5.885  14.968 -0.0042  0.2536 -0.4227
   60DOPE  H18X 7738   5.480   5.819  14.982 -0.6706  1.2412  0.0953
   60DOPE  H18Y 7739   5.609   5.905  15.070  1.1708 -2.9038 -0.1571
   60DOPE  H18Z 7740   5.535   5.979  14.921 -0.1646 -0.0805 -0.9891
   6123SM     N 7741   3.335   4.768  17.269 -0.6235 -0.3773  0.3290
   6123SM   C15 7742   3.313   4.861  17.381  0.1734  0.1197  0.4354
   6123SM  H15A 7743   3.276   4.811  17.469  0.6197  1.2870  1.3237
   6123SM  H15B 7744   3.236   4.934  17.359  0.8639  0.6612 -0.2188
   6123SM  H15C 7745   3.403   4.909  17.417 -0.5632  1.8695  0.0405
   6123SM   C14 7746   3.377   4.851  17.147 -0.1312 -0.2831 -0.2910
   6123SM  H14A 7747   3.473   4.894  17.171 -0.3555 -0.4661  1.0423
   6123SM  H14B 7748   3.309   4.932  17.123  0.7247  0.9363  1.1505
   6123SM  H14C 7749   3.380   4.791  17.058 -2.0148  2.3473 -2.3170
   6123SM   C13 7750   3.447   4.682  17.308 -0.0253 -0.4956 -0.3099
   6123SM  H13A 7751   3.536   4.735  17.338 -1.1752  1.2365  0.1560
   6123SM  H13B 7752   3.471   4.619  17.223  0.7758  0.3762 -0.7413
   6123SM  H13C 7753   3.411   4.604  17.374 -2.3299  1.6147  1.0994
   6123SM   C12 7754   3.212   4.683  17.239  0.7232  0.0210  0.1362
   6123SM  H12A 7755   3.237   4.613  17.160  1.1448  0.2357  0.0782
   6123SM  H12B 7756   3.135   4.740  17.190 -0.4911 -1.6501  0.0001
   6123SM   C11 7757   3.139   4.602  17.347 -0.0786  0.3477 -0.2801
   6123SM  H11A 7758   3.211   4.538  17.402 -1.4613 -0.5706  0.5534
   6123SM  H11B 7759   3.074   4.531  17.291 -0.9145  1.9092 -1.3745
   6123SM     P 7760   2.938   4.755  17.418 -0.2685 -0.1168  0.0779
   6123SM   O13 7761   2.821   4.695  17.480 -0.0473 -0.3475 -0.4915
   6123SM   O14 7762   2.955   4.900  17.434  0.6963  0.2732 -0.0641
   6123SM   O11 7763   2.928   4.726  17.263 -0.8208  0.0479 -0.2813
   6123SM   O12 7764   3.070   4.678  17.448 -0.0656  0.1583 -0.2103
   6123SM   C1S 7765   2.843   4.810  17.186  0.6336  0.6265  0.7856
   6123SM   H1S 7766   2.882   4.912  17.204  0.2879  0.7365  0.9157
   6123SM   H1T 7767   2.735   4.804  17.212  0.1693 -1.0510 -1.1766
   6123SM    NF 7768   2.815   4.900  16.958 -0.3550  0.0940  0.1404
   6123SM   HNF 7769   2.727   4.898  16.911 -0.7331 -0.6727  0.8589
   6123SM   C2S 7770   2.861   4.781  17.034  0.1110  1.1170 -0.6649
   6123SM   H2S 7771   2.970   4.761  17.023  0.0896  0.0463  0.8307
   6123SM   C3S 7772   2.789   4.652  16.987  0.0053 -0.1562 -0.2625
   6123SM   H3S 7773   2.680   4.653  17.007  0.4721 -1.2682  2.7352
   6123SM    O3 7774   2.826   4.530  17.057 -0.1067  0.1219  0.1259
   6123SM   HO3 7775   2.875   4.563  17.132 -0.2029 -2.0882  1.2503
   6123SM   C4S 7776   2.825   4.636  16.842 -0.1196  0.4714  0.7938
   6123SM   H4S 7777   2.928   4.661  16.813 -0.1326 -0.4559 -0.0778
   6123SM   C5S 7778   2.738   4.621  16.744  0.6248 -0.1446  0.0587
   6123SM   H5S 7779   2.634   4.610  16.777  1.0727  0.5583  1.7912
   6123SM   C6S 7780   2.761   4.613  16.596  0.8689 -0.3007 -0.4351
   6123SM   H6S 7781   2.732   4.512  16.558  0.8824 -0.8886  1.0570
   6123SM   H6T 7782   2.871   4.619  16.581  0.7868  1.0704 -0.5691
   6123SM   C7S 7783   2.680   4.718  16.510 -0.1610 -0.5966 -0.3555
   6123SM   H7S 7784   2.693   4.814  16.563  0.7671 -1.0587  0.2823
   6123SM   H7T 7785   2.569   4.711  16.519 -0.1899 -0.2036 -0.4139
   6123SM   C8S 7786   2.735   4.724  16.369  0.0710  0.4422  0.4028
   6123SM   H8S 7787   2.822   4.793  16.368  0.6163 -0.2330  0.9905
   6123SM   H8T 7788   2.657   4.776  16.308  0.5517  0.2380 -0.3979
   6123SM   C9S 7789   2.771   4.588  16.302  0.5901 -0.2505  0.2082
   6123SM   H9S 7790   2.685   4.517  16.299  0.9322 -0.6625 -1.6243
   6123SM   H9T 7791   2.839   4.540  16.375  0.7851 -0.2326  0.0400
   6123SM  C10S 7792   2.826   4.594  16.158  0.9877  0.6618 -0.0968
   6123SM  H10S 7793   2.891   4.507  16.137 -2.7595 -2.2848 -0.5169
   6123SM  H10T 7794   2.896   4.680  16.166  0.0999  1.4093 -0.0916
   6123SM  C11S 7795   2.714   4.621  16.057 -0.1055  0.1945  0.3810
   6123SM  H11S 7796   2.680   4.727  16.059  2.0783  1.0409 -1.8585
   6123SM  H11T 7797   2.627   4.554  16.071 -0.2253  0.6704  2.1450
   6123SM  C12S 7798   2.768   4.611  15.906 -0.4340  0.6529 -0.0999
   6123SM  H12S 7799   2.788   4.506  15.875  2.1313  1.1774 -0.4221
   6123SM  H12T 7800   2.862   4.666  15.885  0.9217 -2.1170 -1.9137
   6123SM  C13S 7801   2.673   4.677  15.810 -0.3775 -0.3594  0.1683
   6123SM  H13S 7802   2.682   4.786  15.829 -0.0141 -0.0261 -1.6943
   6123SM  H13T 7803   2.569   4.652  15.840 -0.8954 -0.0776 -1.3142
   6123SM  C14S 7804   2.696   4.639  15.661 -0.0396 -0.2018 -0.3396
   6123SM  H14S 7805   2.682   4.529  15.653 -0.2340 -0.1107 -1.3944
   6123SM  H14T 7806   2.799   4.670  15.632 -0.8144 -1.3093 -5.0123
   6123SM  C15S 7807   2.589   4.719  15.570  0.0796 -0.2530  0.0128
   6123SM  H15S 7808   2.564   4.807  15.632 -0.7446 -1.3179  1.2356
   6123SM  H15T 7809   2.495   4.660  15.574 -0.0461  0.0076  1.1836
   6123SM  C16S 7810   2.644   4.743  15.431  0.6519  0.1607 -0.8272
   6123SM  H16S 7811   2.740   4.797  15.445 -0.3387  1.8141 -0.1387
   6123SM  H16T 7812   2.576   4.815  15.381 -1.3401 -0.9514  0.1833
   6123SM  C17S 7813   2.677   4.623  15.352 -0.3540  0.0464  0.4612
   6123SM  H17S 7814   2.585   4.560  15.347 -0.8448  0.7624  0.3442
   6123SM  H17T 7815   2.762   4.578  15.407 -1.1637  0.4055  2.0886
   6123SM  C18S 7816   2.714   4.659  15.212 -0.0958 -0.4723  0.5001
   6123SM  H18S 7817   2.740   4.572  15.147  0.8510  1.9541 -2.6072
   6123SM  H18T 7818   2.788   4.741  15.217  1.0333 -1.4988  1.1120
   6123SM  H18U 7819   2.625   4.709  15.168  2.2120  0.9414 -2.9083
   6123SM   C1F 7820   2.875   5.016  16.965 -0.7027 -1.1698 -0.1705
   6123SM    OF 7821   2.986   5.022  17.020 -0.0811 -0.6978 -0.5403
   6123SM   C2F 7822   2.797   5.138  16.923 -0.1178 -0.5157  0.0198
   6123SM   H2F 7823   2.839   5.215  16.992  0.9339 -1.3177  0.2974
   6123SM   H2G 7824   2.689   5.117  16.935 -0.2944  0.0876 -0.4640
   6123SM   C3F 7825   2.820   5.164  16.776  0.3282  0.4995 -0.2443
   6123SM   H3F 7826   2.929   5.168  16.752  1.0344 -1.9922  2.0207
   6123SM   H3G 7827   2.784   5.266  16.754  1.8694  1.0756 -0.2473
   6123SM   C4F 7828   2.757   5.061  16.685  0.0716  0.1269  0.0719
   6123SM   H4F 7829   2.659   5.023  16.721 -1.1707  0.5999 -2.5586
   6123SM   H4G 7830   2.825   4.976  16.662 -0.1234 -0.0116  0.0072
   6123SM   C5F 7831   2.729   5.113  16.543 -0.3818 -0.1266  0.0749
   6123SM   H5F 7832   2.655   5.195  16.556 -1.5183 -0.8913 -1.2610
   6123SM   H5G 7833   2.686   5.036  16.475 -1.4928  0.8431 -0.3495
   6123SM   C6F 7834   2.853   5.163  16.472 -0.4496  0.2350 -0.4423
   6123SM   H6F 7835   2.928   5.082  16.468 -0.2755  0.4505 -1.9401
   6123SM   H6G 7836   2.883   5.254  16.528  1.7500 -0.5802 -0.2235
   6123SM   C7F 7837   2.818   5.211  16.331 -0.1897  0.4716  0.5290
   6123SM   H7F 7838   2.895   5.285  16.301  1.2668 -1.1671  0.0316
   6123SM   H7G 7839   2.718   5.259  16.319 -0.3891 -0.4633 -2.1951
   6123SM   C8F 7840   2.854   5.102  16.228 -0.0212  0.2099  0.0371
   6123SM   H8F 7841   2.788   5.014  16.241 -0.3166  0.5014  0.5395
   6123SM   H8G 7842   2.958   5.073  16.253  0.0423  0.6467  0.2967
   6123SM   C9F 7843   2.835   5.157  16.087 -0.5419 -0.3840  0.7119
   6123SM   H9F 7844   2.873   5.261  16.093 -2.8542  0.6619 -1.2153
   6123SM   H9G 7845   2.726   5.165  16.067 -0.0611 -0.5559 -2.4618
   6123SM  C10F 7846   2.893   5.074  15.973 -0.4728  0.1191 -0.4526
   6123SM  H10F 7847   2.850   4.972  15.967  1.9821 -0.9904 -0.3031
   6123SM  H10G 7848   3.003   5.071  15.991 -0.3754 -1.5785 -1.1236
   6123SM  C11F 7849   2.868   5.133  15.839 -1.0171  0.0069  0.2982
   6123SM  H11F 7850   2.904   5.238  15.840  1.7549 -0.8404  0.2159
   6123SM  H11G 7851   2.763   5.139  15.806 -1.1403  1.1398  0.8617
   6123SM  C12F 7852   2.944   5.052  15.732 -0.3975 -0.4311 -0.1096
   6123SM  H12F 7853   2.916   4.945  15.742 -0.1839 -0.5378 -0.6215
   6123SM  H12G 7854   3.050   5.080  15.748 -0.1702 -0.6662 -1.1460
   6123SM  C13F 7855   2.915   5.094  15.584 -0.6263 -0.1174  0.4446
   6123SM  H13F 7856   2.814   5.068  15.545 -0.1893 -1.6039  0.2525
   6123SM  H13G 7857   2.993   5.033  15.535 -0.8812 -1.5285  1.7129
   6123SM  C14F 7858   2.949   5.243  15.564  0.3222 -0.0160  0.0915
   6123SM  H14F 7859   3.054   5.255  15.598  0.4593  0.0835 -0.3616
   6123SM  H14G 7860   2.885   5.313  15.622  0.3034  0.5202 -0.5584
   6123SM  C15F 7861   2.941   5.283  15.413 -0.3427  0.4902  0.7558
   6123SM  H15F 7862   2.987   5.199  15.355 -0.0098  2.1278 -1.4649
   6123SM  H15G 7863   2.996   5.379  15.404  0.6711 -0.0744  0.7764
   6123SM  C16F 7864   2.798   5.308  15.365  0.7343 -0.5878  0.0490
   6123SM  H16F 7865   2.777   5.393  15.434  1.5709  0.9877 -1.5399
   6123SM  H16G 7866   2.730   5.223  15.386 -0.6084  0.5868  0.5596
   6123SM  C17F 7867   2.784   5.343  15.218  0.0713  0.1640 -0.2190
   6123SM  H17F 7868   2.842   5.436  15.204  1.2832 -0.5318  0.1051
   6123SM  H17G 7869   2.680   5.365  15.184  0.4527  0.9398 -0.9157
   6123SM  C18F 7870   2.824   5.221  15.121  0.4928 -0.5254 -0.1935
   6123SM  H18F 7871   2.740   5.150  15.138  0.4092 -1.0506 -2.5138
   6123SM  H18G 7872   2.917   5.169  15.154  0.3493 -0.2161  0.7076
   6123SM  C19F 7873   2.836   5.259  14.973  0.1941 -0.1376 -0.3979
   6123SM  H19F 7874   2.920   5.331  14.965  0.5669 -0.6323 -0.9858
   6123SM  H19G 7875   2.744   5.303  14.928  0.5704  0.1533 -0.8886
   6123SM  C20F 7876   2.867   5.143  14.882  0.4778 -0.2494  0.1910
   6123SM  H20F 7877   2.775   5.082  14.893 -0.0537 -0.0694 -2.4524
   6123SM  H20G 7878   2.963   5.095  14.911  0.3629 -1.9967 -2.0542
   6123SM  C21F 7879   2.880   5.188  14.738 -0.2823  0.0156  0.4091
   6123SM  H21F 7880   2.982   5.229  14.723  0.0382 -0.5357  1.0331
   6123SM  H21G 7881   2.809   5.268  14.707  2.0642  0.7563 -3.8572
   6123SM  C22F 7882   2.858   5.072  14.642 -0.1229 -0.0471 -0.0267
   6123SM  H22F 7883   2.772   5.010  14.674 -0.7966  1.1411  0.5472
   6123SM  H22G 7884   2.950   5.012  14.657  0.5593  0.8517 -0.4779
   6123SM  C23F 7885   2.874   5.100  14.492  0.7950  0.9937  0.9555
   6123SM  H23F 7886   2.801   5.175  14.456 -0.3863 -0.8957 -0.9060
   6123SM  H23G 7887   2.856   5.017  14.420  0.0497  3.7179 -2.2502
   6123SM  H23H 7888   2.972   5.140  14.457  0.8600 -0.9952 -1.4975
   6223SM     N 7889   2.359   3.493  17.642  0.0353  0.7778 -0.1322
   6223SM   C15 7890   2.430   3.463  17.522  0.3367 -0.3615 -0.7926
   6223SM  H15A 7891   2.416   3.361  17.487 -0.5610 -0.5086 -0.0193
   6223SM  H15B 7892   2.538   3.472  17.522  0.3268  0.3120  1.4448
   6223SM  H15C 7893   2.397   3.517  17.434 -0.2694 -1.3233 -1.1742
   6223SM   C14 7894   2.211   3.482  17.620 -0.5342 -0.0026 -0.7129
   6223SM  H14A 7895   2.151   3.520  17.701  1.7646  1.7849  0.2724
   6223SM  H14B 7896   2.187   3.377  17.615  0.4473 -0.2140 -1.4048
   6223SM  H14C 7897   2.183   3.526  17.525  0.6954  1.7028 -0.3247
   6223SM   C13 7898   2.399   3.395  17.751 -0.2451 -0.2739  0.5421
   6223SM  H13A 7899   2.343   3.418  17.841 -0.0447  0.0703  0.5855
   6223SM  H13B 7900   2.505   3.410  17.763  0.4243 -2.5953 -1.6940
   6223SM  H13C 7901   2.382   3.294  17.718 -1.2486 -1.0681  3.2026
   6223SM   C12 7902   2.401   3.630  17.692  0.1491  0.3145  0.2092
   6223SM  H12A 7903   2.508   3.624  17.706 -0.0056  0.2996  1.4707
   6223SM  H12B 7904   2.351   3.637  17.787 -0.7763 -1.5989 -0.0981
   6223SM   C11 7905   2.362   3.759  17.619  0.2174  0.1298 -0.0546
   6223SM  H11A 7906   2.416   3.767  17.523 -0.2225  0.1311 -0.3029
   6223SM  H11B 7907   2.381   3.848  17.684 -0.7193 -0.6199  1.3129
   6223SM     P 7908   2.169   3.785  17.449  0.2812 -0.1569  0.0044
   6223SM   O13 7909   2.018   3.761  17.452 -0.0316  0.1128  0.5880
   6223SM   O14 7910   2.216   3.912  17.383 -0.0212 -0.2033  0.2771
   6223SM   O11 7911   2.231   3.663  17.370  0.2692 -0.3740 -0.0500
   6223SM   O12 7912   2.224   3.764  17.592 -0.0292 -0.1740 -0.3243
   6223SM   C1S 7913   2.174   3.645  17.238 -0.0143  0.0594  0.3073
   6223SM   H1S 7914   2.071   3.687  17.234 -0.1086 -0.2154 -2.2311
   6223SM   H1T 7915   2.167   3.536  17.219  0.8532 -0.0794  0.7533
   6223SM    NF 7916   2.212   3.690  17.000  0.4704 -0.3384 -0.6918
   6223SM   HNF 7917   2.236   3.608  16.948 -1.1244 -0.8464 -0.6593
   6223SM   C2S 7918   2.270   3.710  17.130 -0.2442  0.1575 -0.5738
   6223SM   H2S 7919   2.284   3.817  17.156  1.6294 -0.2552  0.2598
   6223SM   C3S 7920   2.418   3.651  17.140 -0.1125 -0.1317  0.1222
   6223SM   H3S 7921   2.417   3.540  17.133 -0.5557 -0.0392 -1.9139
   6223SM    O3 7922   2.479   3.687  17.261  1.4436  0.2853 -0.1035
   6223SM   HO3 7923   2.407   3.714  17.319  1.6201  0.1066  0.2019
   6223SM   C4S 7924   2.502   3.702  17.025  0.3206 -0.0598 -0.2836
   6223SM   H4S 7925   2.505   3.627  16.945 -1.1409 -2.1687  1.5438
   6223SM   C5S 7926   2.576   3.808  17.016 -0.6011 -0.2782  0.0071
   6223SM   H5S 7927   2.561   3.884  17.094  0.7365 -1.0507  1.0594
   6223SM   C6S 7928   2.650   3.854  16.888  0.0539  0.3670  0.1322
   6223SM   H6S 7929   2.657   3.774  16.810 -2.2969  1.5943 -1.4639
   6223SM   H6T 7930   2.753   3.887  16.911  0.6989 -1.7747  0.5930
   6223SM   C7S 7931   2.569   3.971  16.813 -0.5819 -0.6212 -0.4430
   6223SM   H7S 7932   2.569   4.063  16.875  0.5636 -0.6186 -0.4196
   6223SM   H7T 7933   2.464   3.939  16.801 -0.3370 -0.7739 -2.7096
   6223SM   C8S 7934   2.638   4.006  16.680 -0.0060 -0.8651  0.2918
   6223SM   H8S 7935   2.644   3.908  16.627  3.1656 -0.1287 -0.8848
   6223SM   H8T 7936   2.743   4.036  16.701 -0.5742  0.3419  1.5534
   6223SM   C9S 7937   2.561   4.113  16.599  0.3245  1.0735 -0.0410
   6223SM   H9S 7938   2.577   4.210  16.651  0.6686  0.8003  0.3685
   6223SM   H9T 7939   2.456   4.087  16.620  0.5017  0.4772  0.1060
   6223SM  C10S 7940   2.591   4.121  16.446  0.3947 -0.0387 -0.3603
   6223SM  H10S 7941   2.551   4.030  16.395  1.8205  0.0322 -1.6975
   6223SM  H10T 7942   2.701   4.122  16.428  0.9755 -0.2346  2.7746
   6223SM  C11S 7943   2.529   4.232  16.367 -0.2880  0.4084  0.4824
   6223SM  H11S 7944   2.544   4.327  16.422 -0.2261  0.6650  0.0257
   6223SM  H11T 7945   2.423   4.199  16.366  0.4104 -2.1107 -1.2931
   6223SM  C12S 7946   2.585   4.239  16.224 -0.2788 -0.6208 -0.1733
   6223SM  H12S 7947   2.692   4.207  16.228  0.1581  0.5986 -1.4600
   6223SM  H12T 7948   2.581   4.349  16.207 -1.4272 -0.6177  0.0360
   6223SM  C13S 7949   2.496   4.169  16.120 -0.0392 -0.1574 -0.5670
   6223SM  H13S 7950   2.396   4.218  16.126 -0.4062 -0.6526 -2.2120
   6223SM  H13T 7951   2.467   4.063  16.137 -1.6526  0.6272  2.3192
   6223SM  C14S 7952   2.554   4.168  15.981 -0.3916 -0.0368  0.3000
   6223SM  H14S 7953   2.643   4.102  15.974  0.2945  0.8711  0.3077
   6223SM  H14T 7954   2.586   4.273  15.966  2.1352 -0.9745 -1.3558
   6223SM  C15S 7955   2.461   4.127  15.868  1.2292 -0.0608 -0.0198
   6223SM  H15S 7956   2.370   4.190  15.877  1.0235 -0.5695  2.1434
   6223SM  H15T 7957   2.426   4.023  15.888 -0.2139  0.4720  0.4001
   6223SM  C16S 7958   2.513   4.117  15.730 -0.7926 -0.2862 -0.1449
   6223SM  H16S 7959   2.446   4.078  15.650 -0.2179  1.5848 -1.6091
   6223SM  H16T 7960   2.597   4.044  15.725 -2.0932 -1.8606  0.1156
   6223SM  C17S 7961   2.556   4.259  15.675 -0.2657 -1.0054 -0.0469
   6223SM  H17S 7962   2.643   4.231  15.613  0.0369 -0.9485  0.3471
   6223SM  H17T 7963   2.580   4.340  15.748 -2.2335 -0.0178 -0.4175
   6223SM  C18S 7964   2.465   4.317  15.562 -0.0009 -0.0733  0.0515
   6223SM  H18S 7965   2.364   4.301  15.607 -0.3673  3.1201  0.6551
   6223SM  H18T 7966   2.467   4.261  15.466 -2.1101 -2.6972  1.4176
   6223SM  H18U 7967   2.485   4.426  15.551  2.9090 -0.6086 -0.6468
   6223SM   C1F 7968   2.125   3.775  16.950  0.1211  0.0167 -0.6241
   6223SM    OF 7969   2.068   3.855  17.027  0.0390  0.3400 -0.4289
   6223SM   C2F 7970   2.092   3.764  16.806  0.0079  0.4201 -0.3717
   6223SM   H2F 7971   2.024   3.677  16.796  0.7550 -0.2507  0.2734
   6223SM   H2G 7972   2.182   3.750  16.742 -0.8579 -2.7157 -1.0824
   6223SM   C3F 7973   2.021   3.888  16.744 -0.2096 -0.1338 -0.1350
   6223SM   H3F 7974   1.935   3.919  16.806 -0.5671  0.3728 -0.8792
   6223SM   H3G 7975   1.984   3.862  16.643 -0.3142  0.6058 -0.2930
   6223SM   C4F 7976   2.131   4.004  16.735 -0.3948 -0.1820  1.0674
   6223SM   H4F 7977   2.222   3.973  16.791 -1.1927 -1.3176  1.7885
   6223SM   H4G 7978   2.092   4.094  16.787 -0.4181  0.2430  0.3260
   6223SM   C5F 7979   2.150   4.045  16.586  0.1675 -0.2879  1.1201
   6223SM   H5F 7980   2.209   4.137  16.566  1.7650 -1.5671 -0.3322
   6223SM   H5G 7981   2.045   4.062  16.555  0.2398 -0.2089  0.9159
   6223SM   C6F 7982   2.213   3.935  16.504 -0.3406 -0.1104 -0.1967
   6223SM   H6F 7983   2.154   3.844  16.531  1.0276 -1.0269 -0.1946
   6223SM   H6G 7984   2.317   3.913  16.535  0.4458 -0.2488 -2.6716
   6223SM   C7F 7985   2.211   3.967  16.353  0.3662 -0.0051 -0.9077
   6223SM   H7F 7986   2.306   4.023  16.334  0.8587  0.6222  2.6442
   6223SM   H7G 7987   2.134   4.046  16.341  0.6719  1.5224  4.5152
   6223SM   C8F 7988   2.193   3.848  16.259 -0.6421 -0.5911 -0.3277
   6223SM   H8F 7989   2.089   3.807  16.262 -0.0191 -2.3376 -1.3539
   6223SM   H8G 7990   2.263   3.768  16.290  0.6391  0.4632 -0.4423
   6223SM   C9F 7991   2.217   3.896  16.113  0.8328  0.0046  0.2373
   6223SM   H9F 7992   2.323   3.905  16.084  1.1105  0.5400  1.3906
   6223SM   H9G 7993   2.164   3.994  16.106  1.8440  0.4367 -2.3477
   6223SM  C10F 7994   2.146   3.803  16.012  0.1398 -0.5021 -0.2083
   6223SM  H10F 7995   2.047   3.783  16.057  0.0682  0.2379 -0.0247
   6223SM  H10G 7996   2.205   3.710  15.997  0.2169 -0.2431 -1.7365
   6223SM  C11F 7997   2.133   3.873  15.884  0.4809 -0.5626  0.2855
   6223SM  H11F 7998   2.234   3.905  15.851 -0.2882  0.1343 -1.5311
   6223SM  H11G 7999   2.077   3.969  15.891 -1.1301 -1.5027  0.7919
   6223SM  C12F 8000   2.059   3.796  15.774 -0.4538 -0.5890  0.4989
   6223SM  H12F 8001   1.957   3.790  15.818  0.4431 -1.6044  2.5438
   6223SM  H12G 8002   2.101   3.694  15.763 -0.8419 -0.6348 -0.7909
   6223SM  C13F 8003   2.054   3.863  15.633 -0.0823 -0.1776  0.3262
   6223SM  H13F 8004   2.018   3.968  15.631  3.1399  1.0871  2.1360
   6223SM  H13G 8005   1.984   3.803  15.570  0.4570 -0.6143  0.1351
   6223SM  C14F 8006   2.190   3.860  15.558  0.1773  0.4319  0.6505
   6223SM  H14F 8007   2.231   3.758  15.576 -1.2971 -0.0222  1.6381
   6223SM  H14G 8008   2.258   3.923  15.619 -0.4119 -0.2618  2.0601
   6223SM  C15F 8009   2.186   3.895  15.408 -0.6755  0.4918 -0.5118
   6223SM  H15F 8010   2.287   3.908  15.365 -0.3983  0.8573  0.2466
   6223SM  H15G 8011   2.123   3.986  15.396 -0.4990  0.6488 -0.2421
   6223SM  C16F 8012   2.114   3.786  15.325  0.5057  0.5533  0.8809
   6223SM  H16F 8013   2.011   3.771  15.365  0.1971  0.8071  0.2014
   6223SM  H16G 8014   2.158   3.687  15.350 -0.6432 -1.2783 -3.3714
   6223SM  C17F 8015   2.113   3.807  15.176 -0.9867  0.0874 -0.9337
   6223SM  H17F 8016   2.213   3.805  15.129 -1.1334 -0.0513 -1.2470
   6223SM  H17G 8017   2.059   3.904  15.163  2.5474  2.1818 -1.2104
   6223SM  C18F 8018   2.024   3.704  15.095 -0.5245  0.7750 -1.2880
   6223SM  H18F 8019   1.924   3.705  15.142  0.0102 -1.9140  0.0860
   6223SM  H18G 8020   2.065   3.604  15.119 -0.6623  1.5660  2.8938
   6223SM  C19F 8021   2.001   3.750  14.949 -0.5272 -0.6643  0.3254
   6223SM  H19F 8022   2.092   3.805  14.915 -0.4535 -0.4678  0.8245
   6223SM  H19G 8023   1.916   3.822  14.948 -0.9124 -1.0605  2.1790
   6223SM  C20F 8024   1.991   3.631  14.853 -0.4363 -0.5056  0.2068
   6223SM  H20F 8025   1.925   3.551  14.893  2.0373 -2.7366  0.1024
   6223SM  H20G 8026   2.090   3.581  14.846 -1.9231 -3.5144 -1.3355
   6223SM  C21F 8027   1.943   3.652  14.706  0.2438 -0.4875  0.8615
   6223SM  H21F 8028   1.833   3.665  14.697  0.0864 -2.2299 -0.4918
   6223SM  H21G 8029   1.954   3.557  14.648  1.8668 -1.0908  2.0794
   6223SM  C22F 8030   2.025   3.759  14.637  0.5994 -0.4802 -0.6841
   6223SM  H22F 8031   2.133   3.735  14.632  0.3985 -1.7491  0.2504
   6223SM  H22G 8032   2.016   3.853  14.695  1.5480 -0.6648 -0.2198
   6223SM  C23F 8033   1.969   3.789  14.502 -0.1256  0.0644  0.9298
   6223SM  H23F 8034   2.034   3.861  14.447  0.5069 -1.5535 -0.5408
   6223SM  H23G 8035   1.863   3.821  14.496 -0.2420  0.0251  2.4881
   6223SM  H23H 8036   1.971   3.701  14.434  0.6459  0.0700  0.9310
   6323SM     N 8037   4.151   6.597  17.418 -0.6695  0.2741  0.4255
   6323SM   C15 8038   4.126   6.714  17.329  0.0539  0.3335  0.0809
   6323SM  H15A 8039   4.021   6.733  17.310 -0.8728 -1.9037  2.4570
   6323SM  H15B 8040   4.188   6.711  17.241  2.9089  0.5552  1.9527
   6323SM  H15C 8041   4.160   6.807  17.374 -0.5822 -0.2305  1.7962
   6323SM   C14 8042   4.294   6.607  17.448  0.1017 -0.3435 -0.5383
   6323SM  H14A 8043   4.336   6.594  17.349  0.5782 -0.4421 -0.3263
   6323SM  H14B 8044   4.326   6.527  17.513  2.9567  2.0824  1.2951
   6323SM  H14C 8045   4.326   6.701  17.489  1.1459 -0.5653 -0.8041
   6323SM   C13 8046   4.067   6.605  17.534  0.0430 -0.3530 -0.5410
   6323SM  H13A 8047   4.089   6.687  17.601 -1.1347 -0.3783 -0.0961
   6323SM  H13B 8048   4.076   6.526  17.607 -4.6152 -0.4480  0.2179
   6323SM  H13C 8049   3.966   6.629  17.505 -0.3599  1.1082  1.8093
   6323SM   C12 8050   4.118   6.471  17.340 -0.4516 -0.1140 -0.0593
   6323SM  H12A 8051   4.014   6.454  17.314 -0.1605  0.6758 -1.9111
   6323SM  H12B 8052   4.150   6.388  17.401 -0.8420 -2.4879 -2.8601
   6323SM   C11 8053   4.199   6.440  17.209  0.3623  0.9119  0.1111
   6323SM  H11A 8054   4.195   6.516  17.128 -0.5519  0.5294 -0.2121
   6323SM  H11B 8055   4.143   6.356  17.164  2.7130  0.3070 -1.8548
   6323SM     P 8056   4.370   6.266  17.307 -0.1087  0.1023  0.1300
   6323SM   O13 8057   4.504   6.275  17.361  0.2545  0.3527 -0.0261
   6323SM   O14 8058   4.258   6.218  17.390  0.5268 -0.3223 -0.0919
   6323SM   O11 8059   4.368   6.166  17.185 -0.2357 -0.3557 -1.0351
   6323SM   O12 8060   4.331   6.408  17.232 -0.2945 -0.4769 -0.6680
   6323SM   C1S 8061   4.434   6.195  17.067 -0.1599  0.3814 -0.3628
   6323SM   H1S 8062   4.540   6.162  17.079 -1.2285 -3.2220  0.5806
   6323SM   H1T 8063   4.434   6.306  17.060 -1.1397  0.5704  1.7510
   6323SM    NF 8064   4.465   6.147  16.832 -0.5523 -0.5362  0.1725
   6323SM   HNF 8065   4.454   6.241  16.801  3.1888  1.0649  2.9383
   6323SM   C2S 8066   4.377   6.123  16.943  0.6017 -0.3364  0.5776
   6323SM   H2S 8067   4.382   6.015  16.970  1.2301 -1.0717 -2.1776
   6323SM   C3S 8068   4.230   6.162  16.913 -0.2507  0.0616 -0.6454
   6323SM   H3S 8069   4.221   6.270  16.890 -2.5928  0.0206 -0.1047
   6323SM    O3 8070   4.136   6.120  17.018  0.7436  1.1511  0.1252
   6323SM   HO3 8071   4.190   6.076  17.084  1.6937  2.7639  0.4824
   6323SM   C4S 8072   4.185   6.087  16.793 -0.5038 -0.3884 -1.0137
   6323SM   H4S 8073   4.137   5.989  16.806 -1.6324  0.1979 -0.6971
   6323SM   C5S 8074   4.189   6.137  16.671 -0.0890  0.3462 -0.4170
   6323SM   H5S 8075   4.229   6.236  16.644  0.4794  0.7014  1.5938
   6323SM   C6S 8076   4.136   6.063  16.551 -0.4129  0.3467  0.0587
   6323SM   H6S 8077   4.165   5.956  16.548 -0.7819  0.2611 -0.5986
   6323SM   H6T 8078   4.177   6.112  16.461 -0.6301  3.0895  1.3232
   6323SM   C7S 8079   3.981   6.075  16.532 -0.1014 -0.3825  0.0286
   6323SM   H7S 8080   3.941   6.172  16.567  1.5695 -0.1503  1.4055
   6323SM   H7T 8081   3.928   5.995  16.588 -3.0129  1.0371 -0.5131
   6323SM   C8S 8082   3.945   6.053  16.380  0.2848  0.2883 -0.3140
   6323SM   H8S 8083   4.007   6.121  16.317  0.9760 -0.9833 -1.0341
   6323SM   H8T 8084   3.840   6.086  16.363  0.0096 -0.9530 -1.1331
   6323SM   C9S 8085   3.968   5.916  16.312  0.1249  0.0469 -0.4443
   6323SM   H9S 8086   3.909   5.830  16.350 -0.6563 -0.0691 -1.8564
   6323SM   H9T 8087   4.071   5.883  16.338  0.0731  1.2246  1.5330
   6323SM  C10S 8088   3.954   5.928  16.165  0.5041  0.0412  0.8085
   6323SM  H10S 8089   4.011   6.019  16.137  1.0306 -0.8779 -1.3911
   6323SM  H10T 8090   3.844   5.939  16.157  0.0738 -2.3155  2.3534
   6323SM  C11S 8091   4.015   5.806  16.089  0.5406  0.1381  0.0807
   6323SM  H11S 8092   3.955   5.716  16.111 -1.7324  1.2836 -1.0994
   6323SM  H11T 8093   4.120   5.799  16.126  1.0055  1.2257 -0.9487
   6323SM  C12S 8094   4.014   5.820  15.938 -0.0748 -0.6411 -1.1165
   6323SM  H12S 8095   4.081   5.908  15.932  0.4697 -0.7544  1.9249
   6323SM  H12T 8096   3.908   5.841  15.913 -0.9029 -1.7489  1.1791
   6323SM  C13S 8097   4.063   5.699  15.851 -0.7245 -0.4685  0.1585
   6323SM  H13S 8098   4.021   5.603  15.886  1.5801 -1.0294  1.5754
   6323SM  H13T 8099   4.173   5.694  15.866 -0.9683 -0.9063  2.0478
   6323SM  C14S 8100   4.038   5.716  15.705  0.2936  0.0349  0.8990
   6323SM  H14S 8101   4.071   5.819  15.677 -0.5304 -0.2334 -1.2488
   6323SM  H14T 8102   3.931   5.695  15.689  0.7359 -1.2640 -0.5263
   6323SM  C15S 8103   4.128   5.621  15.623  0.4364 -0.6763 -0.4550
   6323SM  H15S 8104   4.109   5.515  15.652  1.3620 -0.7625 -0.1298
   6323SM  H15T 8105   4.236   5.642  15.641  0.8276 -1.4314 -1.8127
   6323SM  C16S 8106   4.098   5.632  15.475 -0.2839  0.0442 -0.7272
   6323SM  H16S 8107   4.101   5.738  15.442  3.0459 -0.5635 -2.8942
   6323SM  H16T 8108   3.999   5.584  15.462  0.7094 -3.0881  1.8106
   6323SM  C17S 8109   4.192   5.554  15.392 -0.6969  0.5013  0.5369
   6323SM  H17S 8110   4.294   5.595  15.376 -0.7180 -0.3000 -2.3499
   6323SM  H17T 8111   4.145   5.545  15.291  0.4055 -0.1197  0.0678
   6323SM  C18S 8112   4.208   5.400  15.424 -0.2705  0.0168  0.5155
   6323SM  H18S 8113   4.293   5.384  15.494  0.5031  0.8461 -0.2147
   6323SM  H18T 8114   4.232   5.346  15.330 -2.6696  2.4468 -1.6746
   6323SM  H18U 8115   4.117   5.364  15.478 -0.2663  1.7761  1.7959
   6323SM   C1F 8116   4.581   6.086  16.809  0.0080  1.0423  0.7334
   6323SM    OF 8117   4.610   5.978  16.867  0.1385  0.2453  0.4469
   6323SM   C2F 8118   4.672   6.159  16.717  0.2407  0.1620  0.3160
   6323SM   H2F 8119   4.665   6.268  16.734 -0.9560  0.5424 -2.1362
   6323SM   H2G 8120   4.627   6.141  16.617 -0.2752 -1.9109  0.8595
   6323SM   C3F 8121   4.814   6.120  16.707  0.0974 -0.3015  0.1494
   6323SM   H3F 8122   4.824   6.016  16.745 -0.7446 -0.2300  0.5900
   6323SM   H3G 8123   4.878   6.184  16.772 -2.7614  0.2453  2.6261
   6323SM   C4F 8124   4.877   6.128  16.572 -0.0219 -0.4160  0.5429
   6323SM   H4F 8125   4.836   6.043  16.514 -1.5044  0.8507 -0.3409
   6323SM   H4G 8126   4.985   6.108  16.589  0.3653  0.6648 -0.5113
   6323SM   C5F 8127   4.879   6.270  16.510  0.5718  0.2269 -0.1056
   6323SM   H5F 8128   4.932   6.350  16.566 -2.3883  3.0369 -1.0212
   6323SM   H5G 8129   4.782   6.320  16.490  2.1992  4.1070  0.7758
   6323SM   C6F 8130   4.938   6.265  16.369 -0.1363  0.3583  0.0235
   6323SM   H6F 8131   4.909   6.176  16.309 -1.3349 -0.3006  1.5334
   6323SM   H6G 8132   5.049   6.271  16.370 -0.1166  0.2900  1.7195
   6323SM   C7F 8133   4.909   6.389  16.281  0.1391 -1.1037  0.2281
   6323SM   H7F 8134   4.954   6.481  16.324  1.1595 -0.1065 -2.7410
   6323SM   H7G 8135   4.799   6.400  16.276  0.2937  0.9613  0.6701
   6323SM   C8F 8136   4.962   6.382  16.135  0.9586  0.1573  0.0741
   6323SM   H8F 8137   5.052   6.317  16.128 -0.0866 -1.4933  1.4857
   6323SM   H8G 8138   4.986   6.486  16.104  1.3697 -0.4624 -1.8706
   6323SM   C9F 8139   4.858   6.320  16.036 -1.0090 -0.3841  1.0507
   6323SM   H9F 8140   4.800   6.239  16.085 -0.1624 -0.7652  1.4429
   6323SM   H9G 8141   4.899   6.282  15.940 -1.6518 -1.3641  1.1592
   6323SM  C10F 8142   4.761   6.436  15.992  0.5645 -0.0619  0.5576
   6323SM  H10F 8143   4.825   6.518  15.955  0.7039 -0.3990  0.0393
   6323SM  H10G 8144   4.700   6.469  16.079 -0.5489  1.1102 -0.6397
   6323SM  C11F 8145   4.671   6.377  15.887  0.7934  0.7081  0.0392
   6323SM  H11F 8146   4.613   6.290  15.924 -0.2219  0.8643 -1.1103
   6323SM  H11G 8147   4.729   6.338  15.801  0.2386  2.1081 -1.0015
   6323SM  C12F 8148   4.581   6.482  15.823  0.0876 -0.3473 -0.2305
   6323SM  H12F 8149   4.646   6.572  15.820 -0.0020 -0.2331  0.9204
   6323SM  H12G 8150   4.497   6.502  15.893 -1.1600  0.3972 -1.8521
   6323SM  C13F 8151   4.532   6.452  15.682 -0.7179  0.3986 -0.4059
   6323SM  H13F 8152   4.430   6.494  15.678 -2.0397 -2.0672  2.6196
   6323SM  H13G 8153   4.519   6.342  15.673  2.9921 -0.4821  2.5397
   6323SM  C14F 8154   4.613   6.506  15.564  0.0094  0.2246  0.0911
   6323SM  H14F 8155   4.715   6.463  15.576 -1.5616 -3.6434  0.8536
   6323SM  H14G 8156   4.619   6.617  15.572  0.1460  0.3564 -1.5422
   6323SM  C15F 8157   4.560   6.480  15.426  0.3081 -0.2337 -0.4925
   6323SM  H15F 8158   4.538   6.374  15.404 -3.1051  0.5732 -1.6352
   6323SM  H15G 8159   4.625   6.515  15.343  0.5831  0.5630  0.0393
   6323SM  C16F 8160   4.423   6.556  15.406  0.4563 -0.3996  0.3587
   6323SM  H16F 8161   4.442   6.658  15.446  2.9209 -0.8906  0.6067
   6323SM  H16G 8162   4.341   6.512  15.467  0.6761 -0.9007  0.2937
   6323SM  C17F 8163   4.378   6.549  15.260  0.0893  0.1200 -0.3289
   6323SM  H17F 8164   4.458   6.544  15.183  1.4005  1.3079  0.9069
   6323SM  H17G 8165   4.311   6.637  15.249  2.0575  1.8317  0.6950
   6323SM  C18F 8166   4.296   6.424  15.231  0.7642  0.2388 -0.2147
   6323SM  H18F 8167   4.207   6.427  15.297 -0.1980  0.1173 -1.4618
   6323SM  H18G 8168   4.350   6.328  15.245 -1.2070 -0.6271  1.9742
   6323SM  C19F 8169   4.265   6.432  15.077  0.0072 -0.2618 -0.6083
   6323SM  H19F 8170   4.234   6.327  15.055  2.1549 -1.0330 -0.1483
   6323SM  H19G 8171   4.356   6.459  15.019  0.5367  0.1981  0.4232
   6323SM  C20F 8172   4.157   6.537  15.046 -0.6232  0.2799 -0.3706
   6323SM  H20F 8173   4.193   6.638  15.072 -2.8631  0.9344  0.4608
   6323SM  H20G 8174   4.069   6.527  15.114 -0.9309  2.2929 -0.4154
   6323SM  C21F 8175   4.128   6.536  14.897 -0.1314  0.5857 -0.7331
   6323SM  H21F 8176   4.094   6.434  14.870  1.2231 -0.5019  1.3851
   6323SM  H21G 8177   4.226   6.549  14.847  0.2530 -1.2285 -0.5151
   6323SM  C22F 8178   4.041   6.645  14.856  0.2781 -0.7891 -0.0744
   6323SM  H22F 8179   4.086   6.736  14.900 -1.2091  0.7733 -1.6251
   6323SM  H22G 8180   3.937   6.640  14.896 -1.3238  2.8114 -3.1019
   6323SM  C23F 8181   4.029   6.663  14.705 -0.1893  0.2503  0.4237
   6323SM  H23F 8182   3.955   6.586  14.672 -0.1273 -0.6597  2.2709
   6323SM  H23G 8183   4.125   6.639  14.653 -0.6152  0.8244 -0.6553
   6323SM  H23H 8184   4.000   6.767  14.678 -1.0296  0.2379  1.2546
   6423SM     N 8185   4.531   5.416  17.452 -0.3814 -0.4312  0.6663
   6423SM   C15 8186   4.584   5.483  17.577 -0.0130 -0.1966  0.1186
   6423SM  H15A 8187   4.640   5.571  17.549  1.0276 -0.7977  0.2606
   6423SM  H15B 8188   4.649   5.420  17.636 -1.4590 -0.8250  1.0837
   6423SM  H15C 8189   4.504   5.517  17.641 -1.3051 -2.9532  0.0991
   6423SM   C14 8190   4.510   5.272  17.489 -0.3584 -0.0658  0.2424
   6423SM  H14A 8191   4.440   5.269  17.572  0.9017  0.5532  1.3725
   6423SM  H14B 8192   4.608   5.235  17.515 -0.2709 -1.3696 -1.7604
   6423SM  H14C 8193   4.474   5.228  17.398 -0.3574  0.0414  0.1900
   6423SM   C13 8194   4.397   5.472  17.432  0.2596 -0.2012  0.8562
   6423SM  H13A 8195   4.332   5.456  17.517 -0.5102  0.6998  0.4571
   6423SM  H13B 8196   4.351   5.424  17.346  0.9947  0.3214  0.1659
   6423SM  H13C 8197   4.402   5.579  17.420 -0.1980 -0.1757  0.8657
   6423SM   C12 8198   4.621   5.423  17.333  0.5889  0.2610 -0.5277
   6423SM  H12A 8199   4.617   5.525  17.298  0.2687  0.8787  1.2254
   6423SM  H12B 8200   4.571   5.367  17.255  0.1221 -0.7826  0.5007
   6423SM   C11 8201   4.771   5.374  17.364  0.0059 -0.3927  0.2318
   6423SM  H11A 8202   4.806   5.450  17.437  0.9783 -0.1450 -0.4669
   6423SM  H11B 8203   4.832   5.387  17.272 -0.5237  2.4345  0.1975
   6423SM     P 8204   4.815   5.126  17.327 -0.3683 -0.0299 -0.1452
   6423SM   O13 8205   4.955   5.091  17.307 -0.2133 -0.3816  0.0501
   6423SM   O14 8206   4.727   5.018  17.376 -0.3654 -1.3943 -0.2721
   6423SM   O11 8207   4.756   5.167  17.180 -0.8464  0.8171  0.3840
   6423SM   O12 8208   4.797   5.248  17.424  0.3862  0.1145  0.7774
   6423SM   C1S 8209   4.824   5.194  17.064 -1.4452 -1.3164  0.0369
   6423SM   H1S 8210   4.914   5.130  17.055 -0.7700 -0.2879 -0.6838
   6423SM   H1T 8211   4.875   5.292  17.078 -0.0183 -2.1655  1.0576
   6423SM    NF 8212   4.812   5.231  16.823  0.0258  0.2594 -0.3195
   6423SM   HNF 8213   4.810   5.328  16.797  2.8158  0.1608 -1.2680
   6423SM   C2S 8214   4.736   5.186  16.933 -0.2675  0.4090  0.0620
   6423SM   H2S 8215   4.720   5.079  16.912  2.7429  0.2634 -2.1225
   6423SM   C3S 8216   4.602   5.260  16.950 -0.0935  0.8558 -0.8007
   6423SM   H3S 8217   4.626   5.368  16.958  1.1734  0.6558 -1.5945
   6423SM    O3 8218   4.532   5.222  17.074 -0.0413  0.7797  0.2276
   6423SM   HO3 8219   4.600   5.170  17.117  1.1125  0.7352 -1.5317
   6423SM   C4S 8220   4.516   5.233  16.830 -0.7214 -0.3105  0.0859
   6423SM   H4S 8221   4.507   5.126  16.804  1.0528  0.1580 -2.9570
   6423SM   C5S 8222   4.471   5.329  16.742 -0.0919 -0.0595 -0.0703
   6423SM   H5S 8223   4.481   5.437  16.761 -2.6293  0.1912  0.2317
   6423SM   C6S 8224   4.386   5.295  16.618 -0.6008 -0.3340  0.6115
   6423SM   H6S 8225   4.446   5.333  16.533 -0.6339  0.3917  0.9000
   6423SM   H6T 8226   4.291   5.351  16.622  0.0178  0.6936  2.5486
   6423SM   C7S 8227   4.357   5.148  16.581  0.7641  0.1032 -0.3160
   6423SM   H7S 8228   4.288   5.102  16.655  1.6240 -0.5352  0.1155
   6423SM   H7T 8229   4.451   5.088  16.587 -0.8508 -2.5016  1.0430
   6423SM   C8S 8230   4.286   5.131  16.443 -0.1648 -0.6342 -0.3757
   6423SM   H8S 8231   4.350   5.176  16.365  0.6814  0.5658  0.9530
   6423SM   H8T 8232   4.196   5.196  16.446  0.0559 -0.2782 -1.1868
   6423SM   C9S 8233   4.261   4.986  16.398  0.1436  0.0988 -0.7372
   6423SM   H9S 8234   4.154   4.960  16.390  0.1265  0.3452 -1.3471
   6423SM   H9T 8235   4.305   4.910  16.466 -0.9918  1.2326  1.3585
   6423SM  C10S 8236   4.322   4.969  16.256 -0.2426 -0.2958 -0.7865
   6423SM  H10S 8237   4.313   4.862  16.225  3.7152 -0.4970 -1.7862
   6423SM  H10T 8238   4.428   4.998  16.244 -0.2264 -0.4075 -0.9205
   6423SM  C11S 8239   4.231   5.054  16.157 -0.3100 -0.1866  0.3492
   6423SM  H11S 8240   4.263   5.156  16.185 -0.7689  0.1830 -0.4203
   6423SM  H11T 8241   4.122   5.045  16.178 -0.4292 -0.0178 -0.1715
   6423SM  C12S 8242   4.273   5.044  16.013  0.2833  0.5937 -0.1858
   6423SM  H12S 8243   4.379   5.076  16.021 -0.0593  1.3589  1.7693
   6423SM  H12T 8244   4.213   5.119  15.956  2.5963  1.3538 -1.7739
   6423SM  C13S 8245   4.270   4.903  15.947  1.0181  0.0709  0.3927
   6423SM  H13S 8246   4.168   4.865  15.924  0.6996  0.6070  0.8829
   6423SM  H13T 8247   4.323   4.825  16.005  0.6758 -1.5332 -1.3439
   6423SM  C14S 8248   4.320   4.909  15.806 -0.2854 -0.4919 -0.6174
   6423SM  H14S 8249   4.416   4.964  15.814  0.0995 -1.2949  0.7199
   6423SM  H14T 8250   4.241   4.970  15.757 -0.7072 -1.6524 -1.4095
   6423SM  C15S 8251   4.325   4.776  15.735  0.6990 -0.5357 -0.0594
   6423SM  H15S 8252   4.216   4.766  15.717  0.4728  2.0469 -0.3765
   6423SM  H15T 8253   4.364   4.707  15.813 -1.9414 -1.8918  0.1930
   6423SM  C16S 8254   4.409   4.775  15.609 -0.1264  0.6756  0.0232
   6423SM  H16S 8255   4.408   4.670  15.575 -1.1496  0.3501  1.0121
   6423SM  H16T 8256   4.511   4.805  15.642  1.2488  1.2406 -4.1191
   6423SM  C17S 8257   4.353   4.852  15.491 -0.1431 -1.0093 -0.1771
   6423SM  H17S 8258   4.358   4.961  15.509 -1.7032 -0.6545 -1.5810
   6423SM  H17T 8259   4.248   4.835  15.457 -0.3578  1.4399 -0.9247
   6423SM  C18S 8260   4.451   4.835  15.376  0.1181  0.6592  0.2814
   6423SM  H18S 8261   4.424   4.909  15.298  1.1417  0.0284 -0.7059
   6423SM  H18T 8262   4.477   4.731  15.344  0.3951  0.6402  0.5743
   6423SM  H18U 8263   4.551   4.862  15.414 -0.0128  1.9401 -0.2329
   6423SM   C1F 8264   4.911   5.159  16.773  0.3977 -0.5070  0.7362
   6423SM    OF 8265   4.938   5.049  16.814  0.0090 -0.0401 -0.2406
   6423SM   C2F 8266   4.984   5.238  16.664 -0.0364  0.3083 -0.7613
   6423SM   H2F 8267   4.998   5.345  16.692  0.5140  0.1513 -0.4422
   6423SM   H2G 8268   4.920   5.236  16.573 -1.0346  0.5257 -0.0828
   6423SM   C3F 8269   5.116   5.167  16.622 -0.1353 -0.3279  0.0341
   6423SM   H3F 8270   5.098   5.057  16.616  0.4028 -0.3376 -2.8327
   6423SM   H3G 8271   5.191   5.180  16.704 -0.5002 -0.4260  0.3888
   6423SM   C4F 8272   5.179   5.224  16.493  0.1972  0.0038  0.0737
   6423SM   H4F 8273   5.289   5.205  16.497  0.0817 -0.6163  0.5466
   6423SM   H4G 8274   5.164   5.333  16.507  0.8384  0.0482  0.4922
   6423SM   C5F 8275   5.125   5.174  16.358 -0.5405  0.0707 -0.1306
   6423SM   H5F 8276   5.017   5.197  16.342 -0.1794  0.3166 -2.6772
   6423SM   H5G 8277   5.159   5.068  16.353 -0.6803  0.0739 -2.5492
   6423SM   C6F 8278   5.200   5.246  16.246  0.2004 -0.2243  0.4869
   6423SM   H6F 8279   5.310   5.233  16.253  0.2002 -1.2562 -0.8733
   6423SM   H6G 8280   5.176   5.354  16.253  0.2204 -0.1369 -0.6340
   6423SM   C7F 8281   5.171   5.189  16.106  0.6667 -0.4031  0.7378
   6423SM   H7F 8282   5.063   5.191  16.078  0.8326  0.5652  0.1284
   6423SM   H7G 8283   5.212   5.086  16.107  0.1206 -0.6579 -0.5114
   6423SM   C8F 8284   5.237   5.265  15.995  0.1393  0.0177  0.2839
   6423SM   H8F 8285   5.344   5.275  16.021 -0.0727  0.4510  1.0296
   6423SM   H8G 8286   5.188   5.362  15.971  1.7285  0.6705 -0.4054
   6423SM   C9F 8287   5.224   5.190  15.859  0.0157 -1.0483 -0.7495
   6423SM   H9F 8288   5.121   5.184  15.819 -1.7895  1.6640  2.8751
   6423SM   H9G 8289   5.256   5.086  15.881  1.8898 -0.1701  1.0156
   6423SM  C10F 8290   5.320   5.238  15.750  0.0800  0.3594  0.4077
   6423SM  H10F 8291   5.416   5.265  15.798 -0.9871  1.2634  2.1695
   6423SM  H10G 8292   5.272   5.330  15.710 -2.5942 -0.3743  1.7049
   6423SM  C11F 8293   5.356   5.139  15.633  0.8874 -0.4143  0.0722
   6423SM  H11F 8294   5.259   5.111  15.586 -0.5199  2.0396  1.2947
   6423SM  H11G 8295   5.400   5.054  15.689  0.2477 -0.3207  0.7274
   6423SM  C12F 8296   5.459   5.195  15.530 -0.1937  0.4938 -0.2815
   6423SM  H12F 8297   5.552   5.223  15.584  1.5852 -1.2318 -2.2679
   6423SM  H12G 8298   5.411   5.285  15.486 -1.2871 -1.2039 -2.8409
   6423SM  C13F 8299   5.480   5.079  15.436 -0.0008  0.6439  0.7524
   6423SM  H13F 8300   5.384   5.054  15.386  0.6317  1.5223 -0.9664
   6423SM  H13G 8301   5.510   4.990  15.496  0.3422 -0.4652 -0.9954
   6423SM  C14F 8302   5.585   5.117  15.333  0.1028 -0.3209  0.3126
   6423SM  H14F 8303   5.654   5.171  15.401 -1.6893 -0.6491  2.5179
   6423SM  H14G 8304   5.548   5.192  15.259  0.2956 -0.1438  0.3958
   6423SM  C15F 8305   5.646   4.994  15.274  0.3448 -0.1021  0.8056
   6423SM  H15F 8306   5.571   4.912  15.261  0.8312 -0.5361  0.6890
   6423SM  H15G 8307   5.723   4.957  15.345  2.1018  2.7131  0.4999
   6423SM  C16F 8308   5.715   5.014  15.135  0.0587  0.3596  0.5595
   6423SM  H16F 8309   5.815   5.063  15.137  0.9679 -0.6907 -4.2529
   6423SM  H16G 8310   5.644   5.073  15.074 -2.2201 -0.5050  2.2562
   6423SM  C17F 8311   5.748   4.876  15.070  0.2199  0.7269  0.6438
   6423SM  H17F 8312   5.791   4.816  15.154  0.0053  0.4252  0.5391
   6423SM  H17G 8313   5.830   4.875  14.995 -3.1687 -1.8608 -3.5000
   6423SM  C18F 8314   5.629   4.800  15.007  0.0793  0.0255 -0.7134
   6423SM  H18F 8315   5.581   4.857  14.925 -3.3868 -0.9898  0.4033
   6423SM  H18G 8316   5.552   4.798  15.088  0.4563 -0.7806 -0.3591
   6423SM  C19F 8317   5.657   4.663  14.953  0.0779 -0.7652  0.9513
   6423SM  H19F 8318   5.708   4.602  15.031  2.0283 -0.2482  0.1615
   6423SM  H19G 8319   5.727   4.652  14.867  1.1349  1.9341  1.3714
   6423SM  C20F 8320   5.522   4.601  14.911 -0.6810 -0.1063 -0.5696
   6423SM  H20F 8321   5.471   4.659  14.831 -1.9405  0.8292  0.8535
   6423SM  H20G 8322   5.462   4.596  15.004  2.2288 -1.9936  1.3559
   6423SM  C21F 8323   5.529   4.462  14.851  0.1872 -0.5131 -0.3059
   6423SM  H21F 8324   5.596   4.402  14.917  1.0675 -0.3617 -1.0413
   6423SM  H21G 8325   5.596   4.470  14.762 -2.0054  0.6729 -1.9289
   6423SM  C22F 8326   5.398   4.392  14.830  0.2583 -0.0292  0.8075
   6423SM  H22F 8327   5.343   4.377  14.926 -2.3762 -2.9801 -0.9705
   6423SM  H22G 8328   5.426   4.294  14.787  0.8589  1.5959 -2.9175
   6423SM  C23F 8329   5.299   4.463  14.744 -0.0732  0.3623 -0.6568
   6423SM  H23F 8330   5.211   4.400  14.717 -1.6243  1.8591  0.6819
   6423SM  H23G 8331   5.341   4.503  14.649  0.6814 -1.0636 -0.9432
   6423SM  H23H 8332   5.243   4.546  14.793  1.7189 -0.8369  3.9193
   6523SM     N 8333   4.854   6.190  17.447  0.2780 -0.6876  0.4646
   6523SM   C15 8334   4.872   6.260  17.574  0.0830  0.3790 -0.1339
   6523SM  H15A 8335   4.955   6.326  17.556  1.7032 -0.3760  3.6350
   6523SM  H15B 8336   4.907   6.189  17.648  3.2992  0.7101 -1.1889
   6523SM  H15C 8337   4.786   6.316  17.606 -0.2374 -1.5349  2.7502
   6523SM   C14 8338   4.835   6.293  17.343  0.1331 -0.8244 -0.4050
   6523SM  H14A 8339   4.740   6.341  17.364  0.4212  0.3261 -1.6516
   6523SM  H14B 8340   4.834   6.250  17.244  0.0696 -0.1471 -0.7027
   6523SM  H14C 8341   4.906   6.373  17.352 -1.6194  0.8533 -0.8725
   6523SM   C13 8342   4.981   6.115  17.427 -0.4934  0.1396 -0.3099
   6523SM  H13A 8343   5.010   6.039  17.498  0.8093 -1.8809 -2.8300
   6523SM  H13B 8344   5.056   6.192  17.425 -2.6658  2.3573 -0.3419
   6523SM  H13C 8345   4.991   6.058  17.336  3.4071  1.2444 -0.7609
   6523SM   C12 8346   4.725   6.098  17.450  0.1846  0.2505 -0.5112
   6523SM  H12A 8347   4.635   6.158  17.459 -0.7496 -1.1271 -0.3978
   6523SM  H12B 8348   4.741   6.027  17.529  0.1711 -0.2560 -0.9586
   6523SM   C11 8349   4.700   6.012  17.321  0.7689 -0.7031 -1.1311
   6523SM  H11A 8350   4.688   6.079  17.234  0.1043 -0.7873 -1.1072
   6523SM  H11B 8351   4.611   5.951  17.347  1.3149 -0.4307  1.7419
   6523SM     P 8352   4.803   5.776  17.360 -0.4391  0.0407  0.4970
   6523SM   O13 8353   4.941   5.717  17.377  0.0898  0.3782  0.0506
   6523SM   O14 8354   4.728   5.775  17.485  0.0555 -0.4744 -0.1934
   6523SM   O11 8355   4.733   5.685  17.251  0.1470  0.0477  0.3473
   6523SM   O12 8356   4.812   5.919  17.298 -0.0933  0.4388  0.0672
   6523SM   C1S 8357   4.747   5.711  17.108 -0.6448 -0.8345  0.1617
   6523SM   H1S 8358   4.827   5.647  17.066 -1.2783 -1.6552  0.1863
   6523SM   H1T 8359   4.776   5.815  17.083 -1.9560 -0.9336 -2.0142
   6523SM    NF 8360   4.647   5.704  16.891 -0.6045  0.1040 -0.3424
   6523SM   HNF 8361   4.633   5.800  16.870  0.2865  0.1150 -0.9228
   6523SM   C2S 8362   4.623   5.665  17.025  0.5579  0.0081 -0.2593
   6523SM   H2S 8363   4.609   5.555  17.033 -0.2996  0.1185 -0.0926
   6523SM   C3S 8364   4.492   5.736  17.071  0.4387 -0.6965 -0.9960
   6523SM   H3S 8365   4.499   5.845  17.056  2.5586 -0.1697  2.6232
   6523SM    O3 8366   4.471   5.722  17.213  0.1694  0.9527 -0.6401
   6523SM   HO3 8367   4.554   5.694  17.250 -0.1896 -0.1336 -0.6196
   6523SM   C4S 8368   4.376   5.682  16.990 -0.0530  1.1074 -0.6247
   6523SM   H4S 8369   4.361   5.574  17.005 -0.5879  1.1590 -0.7910
   6523SM   C5S 8370   4.291   5.747  16.911  0.1783 -0.2788 -0.9880
   6523SM   H5S 8371   4.308   5.853  16.884 -1.2422 -0.4777 -2.8242
   6523SM   C6S 8372   4.179   5.683  16.840 -0.5470 -0.7543  0.0464
   6523SM   H6S 8373   4.095   5.755  16.840  0.5761  0.6120 -0.9051
   6523SM   H6T 8374   4.151   5.599  16.907  0.3696 -0.4190  0.8797
   6523SM   C7S 8375   4.216   5.642  16.701  0.2678  0.2097 -0.1426
   6523SM   H7S 8376   4.285   5.555  16.706  0.1502  0.1489  0.4542
   6523SM   H7T 8377   4.266   5.722  16.642 -2.6745  1.2112 -1.4728
   6523SM   C8S 8378   4.093   5.609  16.615  0.5777  0.0638  0.1931
   6523SM   H8S 8379   4.038   5.705  16.600 -0.2983 -0.5305 -0.5028
   6523SM   H8T 8380   4.015   5.550  16.668 -0.7279  0.0153 -1.6885
   6523SM   C9S 8381   4.133   5.529  16.486 -0.2129 -0.6406  0.7402
   6523SM   H9S 8382   4.037   5.525  16.430 -0.6127 -0.9450  1.4385
   6523SM   H9T 8383   4.133   5.420  16.506  0.6246 -0.3819  2.3393
   6523SM  C10S 8384   4.254   5.579  16.403  0.1071 -0.1143  0.3336
   6523SM  H10S 8385   4.344   5.587  16.468  1.9653 -3.2804 -1.5813
   6523SM  H10T 8386   4.223   5.682  16.376  0.5471  0.6256  2.4768
   6523SM  C11S 8387   4.284   5.492  16.281 -0.1617  0.1677 -0.3155
   6523SM  H11S 8388   4.189   5.477  16.226 -0.2347  0.2461 -0.2108
   6523SM  H11T 8389   4.312   5.392  16.320  0.9120  0.8837  0.8131
   6523SM  C12S 8390   4.387   5.561  16.196 -0.0108 -0.3575 -0.9885
   6523SM  H12S 8391   4.476   5.582  16.259  0.4010  1.9274 -2.1971
   6523SM  H12T 8392   4.335   5.655  16.166 -4.6284 -2.4502 -0.3844
   6523SM  C13S 8393   4.416   5.477  16.077 -0.2232 -0.6810  0.3107
   6523SM  H13S 8394   4.325   5.449  16.019  0.2645 -0.6315 -0.4960
   6523SM  H13T 8395   4.467   5.385  16.111  1.0903  0.8113  2.6722
   6523SM  C14S 8396   4.494   5.565  15.980 -0.2665 -0.5290  0.3669
   6523SM  H14S 8397   4.604   5.562  15.995  0.0542  1.9026 -0.9437
   6523SM  H14T 8398   4.469   5.674  15.979  0.7088 -0.2708  1.4861
   6523SM  C15S 8399   4.480   5.514  15.835 -0.2261 -0.5467  0.0559
   6523SM  H15S 8400   4.376   5.489  15.804  0.0393 -1.6175 -0.0165
   6523SM  H15T 8401   4.532   5.416  15.825 -1.1591 -1.0047 -0.4336
   6523SM  C16S 8402   4.547   5.618  15.736  0.3478 -0.2964 -0.1803
   6523SM  H16S 8403   4.653   5.641  15.758  0.9494  0.0467 -3.0378
   6523SM  H16T 8404   4.489   5.712  15.744  0.6385 -0.2201  1.4002
   6523SM  C17S 8405   4.538   5.574  15.595  0.3721  0.3569  0.3654
   6523SM  H17S 8406   4.431   5.556  15.571  0.1043  0.4782  1.4054
   6523SM  H17T 8407   4.587   5.476  15.576 -1.7352 -0.2934 -2.2133
   6523SM  C18S 8408   4.582   5.692  15.506 -0.8463 -0.0884  0.2034
   6523SM  H18S 8409   4.689   5.719  15.519  0.0596 -2.5006 -1.3612
   6523SM  H18T 8410   4.523   5.785  15.509  1.0573  1.1806 -0.0620
   6523SM  H18U 8411   4.577   5.666  15.398 -0.1020  1.8527 -0.3385
   6523SM   C1F 8412   4.722   5.635  16.805 -0.0681 -0.8368 -0.4409
   6523SM    OF 8413   4.786   5.536  16.834 -0.6115  0.1160 -0.5132
   6523SM   C2F 8414   4.730   5.692  16.665  0.4238  0.3579  0.1983
   6523SM   H2F 8415   4.752   5.801  16.672 -1.7857  0.9901 -1.3971
   6523SM   H2G 8416   4.625   5.697  16.628  0.4822  2.0077  0.1877
   6523SM   C3F 8417   4.816   5.602  16.574 -0.3442 -0.4309 -0.2265
   6523SM   H3F 8418   4.765   5.503  16.573 -2.0642  0.3862  1.0164
   6523SM   H3G 8419   4.924   5.603  16.602 -0.6279  1.9908  0.9647
   6523SM   C4F 8420   4.814   5.654  16.434  0.2348 -0.4657 -0.4983
   6523SM   H4F 8421   4.867   5.751  16.439  0.2767 -0.5551  1.6601
   6523SM   H4G 8422   4.708   5.674  16.407  0.1013 -0.5063 -0.0136
   6523SM   C5F 8423   4.893   5.561  16.343  0.0566 -0.0279  0.0543
   6523SM   H5F 8424   4.860   5.457  16.361  1.1749 -0.3445  0.3492
   6523SM   H5G 8425   5.002   5.563  16.367  0.2538 -1.2470 -0.6887
   6523SM   C6F 8426   4.870   5.598  16.201  0.3569 -0.2197 -0.5288
   6523SM   H6F 8427   4.882   5.708  16.198  0.1762 -0.1714  0.1708
   6523SM   H6G 8428   4.765   5.569  16.179  0.7050 -1.5525 -0.5306
   6523SM   C7F 8429   4.959   5.528  16.101 -0.3888 -0.2432 -0.4543
   6523SM   H7F 8430   4.934   5.420  16.093  0.1337 -0.3222 -1.0623
   6523SM   H7G 8431   5.066   5.548  16.121 -0.3961  0.6121 -1.2200
   6523SM   C8F 8432   4.923   5.601  15.969  0.1793 -0.6859 -0.1315
   6523SM   H8F 8433   4.936   5.710  15.985 -0.4300 -0.7723  1.0669
   6523SM   H8G 8434   4.817   5.582  15.940  0.4942 -1.0228 -1.0861
   6523SM   C9F 8435   5.005   5.541  15.854  0.5446 -0.1386  0.0583
   6523SM   H9F 8436   4.968   5.436  15.850 -1.4279  0.4917  0.6834
   6523SM   H9G 8437   5.111   5.552  15.884  1.0145 -0.0673 -1.5117
   6523SM  C10F 8438   4.987   5.615  15.720  0.1275  0.2533  0.0047
   6523SM  H10F 8439   5.017   5.721  15.735  1.8595 -0.4213  1.6419
   6523SM  H10G 8440   4.880   5.599  15.693  0.3043 -1.9965  0.4465
   6523SM  C11F 8441   5.063   5.534  15.627 -0.5402  0.0240  0.0114
   6523SM  H11F 8442   5.081   5.432  15.669 -0.0176 -0.4596 -1.3232
   6523SM  H11G 8443   5.162   5.585  15.622  1.0817 -2.8138  0.6538
   6523SM  C12F 8444   5.004   5.515  15.482 -0.3354 -0.3986 -0.4890
   6523SM  H12F 8445   4.996   5.620  15.444 -0.1449 -0.5380 -0.9159
   6523SM  H12G 8446   4.899   5.482  15.498 -0.8797  1.9520  1.4123
   6523SM  C13F 8447   5.081   5.423  15.389 -0.7067  0.0107 -0.1234
   6523SM  H13F 8448   5.064   5.318  15.422 -3.4053 -0.0731 -1.4547
   6523SM  H13G 8449   5.187   5.449  15.404 -0.7174 -0.3345  0.5898
   6523SM  C14F 8450   5.033   5.437  15.244  0.1866 -0.1576 -0.4029
   6523SM  H14F 8451   5.089   5.524  15.201 -0.9856  1.0060  0.3483
   6523SM  H14G 8452   4.926   5.464  15.245 -0.0345 -0.8950  2.3988
   6523SM  C15F 8453   5.062   5.314  15.158 -0.5136 -0.1562 -0.1863
   6523SM  H15F 8454   5.027   5.325  15.053  1.9109 -1.8214 -1.2719
   6523SM  H15G 8455   5.008   5.226  15.199 -1.1108 -0.1246 -0.8768
   6523SM  C16F 8456   5.212   5.273  15.147 -0.5034 -0.6879  0.8410
   6523SM  H16F 8457   5.223   5.166  15.118  1.8940 -0.9130  2.3210
   6523SM  H16G 8458   5.261   5.290  15.245  0.6002  1.7638 -0.0503
   6523SM  C17F 8459   5.289   5.365  15.045 -0.1834  0.1106  0.7280
   6523SM  H17F 8460   5.329   5.454  15.099  3.3099 -1.1156  0.4387
   6523SM  H17G 8461   5.221   5.393  14.962 -0.7489 -0.9641  0.8161
   6523SM  C18F 8462   5.403   5.285  14.982  0.2280  0.4120 -0.0108
   6523SM  H18F 8463   5.360   5.194  14.935 -0.0874  0.1186  0.8255
   6523SM  H18G 8464   5.450   5.232  15.068 -1.8028  0.7362  1.3808
   6523SM  C19F 8465   5.500   5.361  14.892  0.3827 -0.1418  0.5423
   6523SM  H19F 8466   5.453   5.419  14.809 -1.4018 -1.9096  0.2448
   6523SM  H19G 8467   5.554   5.279  14.841 -3.4479 -2.3744 -0.2672
   6523SM  C20F 8468   5.591   5.464  14.963  0.2013  0.2108  0.5225
   6523SM  H20F 8469   5.532   5.556  14.987 -0.3257 -0.4630  1.8984
   6523SM  H20G 8470   5.679   5.484  14.898 -0.3254 -1.7520 -0.8925
   6523SM  C21F 8471   5.632   5.420  15.110 -0.4523 -0.2171  0.9971
   6523SM  H21F 8472   5.674   5.317  15.109 -1.9968 -0.8865  1.9472
   6523SM  H21G 8473   5.549   5.426  15.183 -1.2536 -0.0902  0.0896
   6523SM  C22F 8474   5.735   5.525  15.165 -0.5734  0.0169 -0.0221
   6523SM  H22F 8475   5.699   5.629  15.156 -1.7233 -0.4413 -0.9019
   6523SM  H22G 8476   5.829   5.521  15.105  0.2024 -1.5494  1.2190
   6523SM  C23F 8477   5.774   5.503  15.311  0.6046  0.4166  0.2194
   6523SM  H23F 8478   5.804   5.398  15.329  0.2675  0.6837  2.5987
   6523SM  H23G 8479   5.697   5.527  15.387  0.1390  0.3711 -0.2335
   6523SM  H23H 8480   5.868   5.557  15.335 -0.3149  2.3007 -0.1874
   6623SM     N 8481   3.653   3.439  17.673 -0.0345  0.0973  0.1296
   6623SM   C15 8482   3.693   3.574  17.618  0.2184  0.1372 -0.2512
   6623SM  H15A 8483   3.606   3.638  17.625  0.3047  0.4763 -1.8327
   6623SM  H15B 8484   3.720   3.559  17.514 -0.8230 -2.8304 -0.1740
   6623SM  H15C 8485   3.778   3.620  17.667  1.2413 -1.0956 -0.7955
   6623SM   C14 8486   3.764   3.351  17.689  0.6310  0.2124 -0.5357
   6623SM  H14A 8487   3.835   3.390  17.760 -0.1855 -0.2848  0.5800
   6623SM  H14B 8488   3.815   3.334  17.595 -0.9008 -0.2222 -1.3371
   6623SM  H14C 8489   3.737   3.261  17.742  1.2312  0.5100  0.2961
   6623SM   C13 8490   3.586   3.462  17.807 -0.1226  0.3696  0.0061
   6623SM  H13A 8491   3.513   3.542  17.809 -0.7420 -0.1912  0.2855
   6623SM  H13B 8492   3.660   3.498  17.877  1.0231  1.4608 -1.7008
   6623SM  H13C 8493   3.538   3.370  17.838  1.0136 -0.5770 -0.9263
   6623SM   C12 8494   3.562   3.378  17.573  0.0597  0.1043 -0.0174
   6623SM  H12A 8495   3.480   3.447  17.557 -0.1668  0.0335  0.7582
   6623SM  H12B 8496   3.515   3.291  17.618 -1.6233  0.8762 -0.1909
   6623SM   C11 8497   3.616   3.340  17.434 -0.9745  0.6177 -0.4217
   6623SM  H11A 8498   3.643   3.434  17.380 -0.1487 -0.0043 -1.1387
   6623SM  H11B 8499   3.525   3.309  17.379 -1.3597  1.0431 -0.0276
   6623SM     P 8500   3.704   3.088  17.461 -0.3041 -0.2350 -0.4385
   6623SM   O13 8501   3.843   3.036  17.458  0.2062  0.3182  0.3557
   6623SM   O14 8502   3.622   3.063  17.577 -0.2121  0.1891  0.3103
   6623SM   O11 8503   3.633   3.029  17.336  0.6223  0.1035 -0.0991
   6623SM   O12 8504   3.721   3.244  17.431  0.7329 -0.6266 -0.4713
   6623SM   C1S 8505   3.656   3.060  17.198 -0.1668  0.1757 -0.2526
   6623SM   H1S 8506   3.765   3.051  17.175  0.0001  1.1479  0.1079
   6623SM   H1T 8507   3.630   3.167  17.188  2.1781  0.9329  0.8575
   6623SM    NF 8508   3.619   3.030  16.971 -0.1690 -0.3275 -0.2378
   6623SM   HNF 8509   3.548   3.063  16.909  0.9718  0.0592 -1.3751
   6623SM   C2S 8510   3.580   2.974  17.098  0.2330 -0.6457  0.8751
   6623SM   H2S 8511   3.612   2.868  17.103  0.2304 -0.7286 -0.4696
   6623SM   C3S 8512   3.424   2.983  17.125 -0.0951 -0.2557 -0.4479
   6623SM   H3S 8513   3.395   3.087  17.102  0.0278 -0.0309  0.3724
   6623SM    O3 8514   3.375   2.957  17.260  0.4847  0.0756  0.1417
   6623SM   HO3 8515   3.455   2.955  17.313  0.7064  0.1569 -0.1953
   6623SM   C4S 8516   3.364   2.889  17.030  0.4638 -0.5207  0.2657
   6623SM   H4S 8517   3.384   2.784  17.054  1.0708 -0.2700  0.8652
   6623SM   C5S 8518   3.287   2.910  16.920 -0.6448 -0.0148  0.4563
   6623SM   H5S 8519   3.257   3.015  16.904  2.1632  0.7943  0.0110
   6623SM   C6S 8520   3.221   2.806  16.831  0.6049 -0.4136  0.2622
   6623SM   H6S 8521   3.236   2.846  16.729  1.0728  0.4643  0.6668
   6623SM   H6T 8522   3.110   2.797  16.841  0.6433 -0.4607  0.6942
   6623SM   C7S 8523   3.287   2.663  16.840  0.3299  0.1723  0.4568
   6623SM   H7S 8524   3.279   2.620  16.943 -0.4480 -1.2098 -0.1526
   6623SM   H7T 8525   3.395   2.675  16.816  0.3926 -1.7682 -0.3948
   6623SM   C8S 8526   3.217   2.543  16.767  0.5635  0.4792  0.4951
   6623SM   H8S 8527   3.107   2.546  16.784  0.3598  0.2596 -0.7053
   6623SM   H8T 8528   3.260   2.448  16.806 -2.0184  0.0771  2.6155
   6623SM   C9S 8529   3.224   2.563  16.618 -0.2475  0.2859 -0.2331
   6623SM   H9S 8530   3.326   2.591  16.587 -0.2476  1.2934  0.6152
   6623SM   H9T 8531   3.166   2.655  16.595  0.7411  0.3273 -2.9012
   6623SM  C10S 8532   3.181   2.448  16.533 -0.6777  0.8657  0.2914
   6623SM  H10S 8533   3.071   2.437  16.524 -0.7742  2.2484 -0.4269
   6623SM  H10T 8534   3.210   2.354  16.586  0.3700  0.4792 -0.9093
   6623SM  C11S 8535   3.244   2.439  16.395  0.3673 -0.4797 -0.3102
   6623SM  H11S 8536   3.198   2.355  16.338  2.3243 -2.9521  1.5228
   6623SM  H11T 8537   3.350   2.412  16.417  0.5662  0.1055 -0.5400
   6623SM  C12S 8538   3.252   2.573  16.312  0.2458  1.1369  0.1690
   6623SM  H12S 8539   3.249   2.661  16.380  1.5348  1.2822  0.0541
   6623SM  H12T 8540   3.159   2.576  16.250  0.8395 -2.5104 -1.1784
   6623SM  C13S 8541   3.373   2.587  16.219 -0.0977 -0.5940  0.6074
   6623SM  H13S 8542   3.459   2.615  16.285  0.3001 -0.9645  0.2516
   6623SM  H13T 8543   3.366   2.680  16.159 -1.4645 -1.7871 -1.1657
   6623SM  C14S 8544   3.403   2.471  16.124  0.3054 -0.5328 -0.7137
   6623SM  H14S 8545   3.307   2.456  16.070  0.5548  1.2172 -1.7532
   6623SM  H14T 8546   3.435   2.380  16.180  1.2556  0.6013  0.6778
   6623SM  C15S 8547   3.502   2.499  16.007  0.1087 -0.0238 -0.2413
   6623SM  H15S 8548   3.605   2.511  16.047  0.2872 -1.3866 -0.2227
   6623SM  H15T 8549   3.472   2.590  15.952 -0.4655  1.3675  2.2109
   6623SM  C16S 8550   3.489   2.382  15.908  0.6365  0.2987 -0.6267
   6623SM  H16S 8551   3.395   2.400  15.852 -0.0215 -2.4933 -0.5563
   6623SM  H16T 8552   3.475   2.294  15.973  0.2520 -0.2443 -1.4308
   6623SM  C17S 8553   3.607   2.351  15.815  0.3864 -0.3064  0.7724
   6623SM  H17S 8554   3.561   2.278  15.746 -0.7004 -1.6455  2.8110
   6623SM  H17T 8555   3.678   2.296  15.881 -0.9833 -0.7316  1.9209
   6623SM  C18S 8556   3.683   2.461  15.734  0.4439  0.4990 -0.3322
   6623SM  H18S 8557   3.769   2.423  15.675 -1.1050 -1.8946 -1.1962
   6623SM  H18T 8558   3.708   2.541  15.807  1.5495 -0.1721  0.0555
   6623SM  H18U 8559   3.613   2.509  15.663 -0.5723 -2.3437 -1.4211
   6623SM   C1F 8560   3.736   3.021  16.906 -0.4056 -0.6672 -0.3093
   6623SM    OF 8561   3.827   2.967  16.962  0.3139  0.0249 -0.2894
   6623SM   C2F 8562   3.749   3.072  16.765  0.4318 -0.0758 -0.1947
   6623SM   H2F 8563   3.815   3.161  16.760 -0.8567  0.8651 -1.1611
   6623SM   H2G 8564   3.651   3.097  16.718  1.3056  1.1058 -1.4900
   6623SM   C3F 8565   3.815   2.973  16.670 -0.3655 -0.6337  0.8865
   6623SM   H3F 8566   3.768   2.875  16.691  0.4977 -0.8902  1.7113
   6623SM   H3G 8567   3.921   2.974  16.703  0.9027  0.9298 -2.8133
   6623SM   C4F 8568   3.817   3.013  16.526 -0.5802 -0.1451 -0.4700
   6623SM   H4F 8569   3.861   3.115  16.517  0.3745 -0.4246  0.7838
   6623SM   H4G 8570   3.710   3.038  16.508 -0.9625 -1.9907 -0.9963
   6623SM   C5F 8571   3.868   2.913  16.428 -0.2121  0.3973 -0.4448
   6623SM   H5F 8572   3.828   2.812  16.454  3.0742 -0.9658 -0.2455
   6623SM   H5G 8573   3.976   2.905  16.407 -0.7251 -0.3819 -3.2451
   6623SM   C6F 8574   3.802   2.923  16.287  0.4915  0.5832  0.3878
   6623SM   H6F 8575   3.852   3.012  16.243  0.3128  1.2137  1.4173
   6623SM   H6G 8576   3.693   2.940  16.298  0.7855  2.1284  1.2275
   6623SM   C7F 8577   3.845   2.801  16.204  0.4482 -0.7814  0.4443
   6623SM   H7F 8578   3.775   2.720  16.231 -0.4485  0.3540  1.6827
   6623SM   H7G 8579   3.950   2.774  16.226  0.4085 -0.3284  1.2153
   6623SM   C8F 8580   3.835   2.828  16.051 -0.2842  0.3402  0.2049
   6623SM   H8F 8581   3.862   2.737  15.993  0.4356  1.9685 -2.1704
   6623SM   H8G 8582   3.907   2.907  16.024 -0.9751  0.3840 -1.6536
   6623SM   C9F 8583   3.700   2.875  16.014 -0.3726 -0.0657 -0.7521
   6623SM   H9F 8584   3.697   2.981  16.049 -0.2736  0.8145 -3.2310
   6623SM   H9G 8585   3.615   2.829  16.068 -1.4483 -0.0727 -2.3962
   6623SM  C10F 8586   3.680   2.878  15.864 -0.2160 -0.1795 -0.2249
   6623SM  H10F 8587   3.700   2.772  15.836 -0.2455 -0.6001  1.2654
   6623SM  H10G 8588   3.756   2.953  15.834 -1.5215  1.3672  0.2120
   6623SM  C11F 8589   3.544   2.913  15.812  0.0868 -0.0160 -0.4274
   6623SM  H11F 8590   3.515   3.017  15.838  0.0727 -0.0670 -0.2399
   6623SM  H11G 8591   3.476   2.848  15.871 -0.3834  0.0848 -0.8435
   6623SM  C12F 8592   3.528   2.897  15.662 -0.0921  0.3381  0.7949
   6623SM  H12F 8593   3.559   2.795  15.631  0.2150  0.9902 -1.1781
   6623SM  H12G 8594   3.603   2.967  15.618  0.5703 -1.6692 -1.4920
   6623SM  C13F 8595   3.396   2.937  15.605  0.2563  0.0569  0.3870
   6623SM  H13F 8596   3.400   2.932  15.495 -0.4697  0.6372  0.3251
   6623SM  H13G 8597   3.375   3.046  15.609 -1.9594 -0.2507 -1.0707
   6623SM  C14F 8598   3.275   2.855  15.660 -0.4086  0.4834 -0.4622
   6623SM  H14F 8599   3.194   2.870  15.586 -0.3138  1.7157 -0.3272
   6623SM  H14G 8600   3.256   2.895  15.762  2.8420  1.6164 -0.1853
   6623SM  C15F 8601   3.303   2.702  15.662  0.1421 -0.2645 -0.6926
   6623SM  H15F 8602   3.212   2.662  15.711  1.9885 -2.5780  1.0832
   6623SM  H15G 8603   3.389   2.666  15.721 -0.1649 -0.1358 -0.1651
   6623SM  C16F 8604   3.310   2.647  15.515 -0.1492 -0.0360  0.3354
   6623SM  H16F 8605   3.394   2.702  15.467 -0.2036  1.4813  1.8901
   6623SM  H16G 8606   3.211   2.668  15.469 -0.0361 -0.9403 -0.3602
   6623SM  C17F 8607   3.335   2.489  15.506 -0.1439 -1.3968  0.0955
   6623SM  H17F 8608   3.263   2.445  15.578 -1.0879 -0.2661 -0.1268
   6623SM  H17G 8609   3.443   2.469  15.527  1.1287  1.5203 -2.6817
   6623SM  C18F 8610   3.311   2.446  15.365  0.8910  0.1708  0.5309
   6623SM  H18F 8611   3.211   2.464  15.322  1.6913 -1.0165 -2.0084
   6623SM  H18G 8612   3.335   2.337  15.364  0.4251  0.0128 -2.9695
   6623SM  C19F 8613   3.420   2.494  15.268  0.8584  0.1421 -0.2961
   6623SM  H19F 8614   3.516   2.458  15.311 -0.0591  0.9217  2.6365
   6623SM  H19G 8615   3.407   2.602  15.289  1.7097  0.0518  0.8123
   6623SM  C20F 8616   3.409   2.447  15.127  0.4984  0.2417  0.2318
   6623SM  H20F 8617   3.413   2.336  15.130  0.6249  0.2603  0.9202
   6623SM  H20G 8618   3.496   2.492  15.074  0.4701  0.5555  0.4483
   6623SM  C21F 8619   3.286   2.493  15.046  0.1913 -0.3366  0.4734
   6623SM  H21F 8620   3.297   2.603  15.037  2.2417 -0.4621  0.9894
   6623SM  H21G 8621   3.197   2.459  15.104  1.4610 -1.7438  1.6976
   6623SM  C22F 8622   3.285   2.419  14.910  0.4668 -0.1868 -0.6990
   6623SM  H22F 8623   3.191   2.456  14.864  1.1719  3.7327  0.6814
   6623SM  H22G 8624   3.264   2.310  14.924 -0.4492  0.0510 -0.1191
   6623SM  C23F 8625   3.401   2.440  14.822 -0.3515  0.1146  0.1888
   6623SM  H23F 8626   3.495   2.417  14.876  0.0070  0.9878 -0.0478
   6623SM  H23G 8627   3.400   2.547  14.791  1.4321 -0.1136 -0.7875
   6623SM  H23H 8628   3.405   2.380  14.728  1.3257 -1.8698  1.4433
   6723SM     N 8629   3.153   6.115  17.465  0.5820 -0.4083  0.2433
   6723SM   C15 8630   3.169   6.196  17.589 -0.3384  0.1083 -0.2163
   6723SM  H15A 8631   3.101   6.280  17.594 -0.5817 -0.1452  1.3053
   6723SM  H15B 8632   3.271   6.229  17.593  1.0507 -3.5406 -1.3824
   6723SM  H15C 8633   3.162   6.136  17.679 -0.3624 -0.1131 -0.3658
   6723SM   C14 8634   3.268   6.026  17.440  0.4522 -0.2077 -0.4854
   6723SM  H14A 8635   3.298   5.978  17.532  0.1020  2.1615  0.9476
   6723SM  H14B 8636   3.353   6.082  17.404  0.4876 -0.4290 -0.7447
   6723SM  H14C 8637   3.252   5.960  17.356 -0.1443  0.0568 -0.5839
   6723SM   C13 8638   3.032   6.033  17.504  0.1406 -0.5108 -0.7214
   6723SM  H13A 8639   2.956   6.094  17.550 -0.1474 -1.7425  0.4887
   6723SM  H13B 8640   3.056   5.965  17.584 -0.7433  0.7400  0.6429
   6723SM  H13C 8641   3.002   5.970  17.420  1.7027  0.8020 -2.3498
   6723SM   C12 8642   3.113   6.201  17.346 -0.3783 -0.5212  0.3956
   6723SM  H12A 8643   3.011   6.235  17.354 -0.1616  0.0092  0.9808
   6723SM  H12B 8644   3.116   6.147  17.253  0.9943 -0.9838  0.6844
   6723SM   C11 8645   3.210   6.319  17.321 -0.7554  0.2406  0.5749
   6723SM  H11A 8646   3.217   6.390  17.406 -0.8487  2.0150 -0.8466
   6723SM  H11B 8647   3.185   6.387  17.237  1.3857 -1.0981 -1.2595
   6723SM     P 8648   3.466   6.359  17.322  0.1227  0.4379 -0.0854
   6723SM   O13 8649   3.454   6.486  17.256 -0.5358 -0.6358 -0.8314
   6723SM   O14 8650   3.507   6.371  17.461  0.1227 -0.2656 -0.2007
   6723SM   O11 8651   3.583   6.287  17.249  0.2758 -0.0894 -0.0408
   6723SM   O12 8652   3.339   6.267  17.299  0.2034 -0.4824  0.0878
   6723SM   C1S 8653   3.574   6.261  17.110 -0.7833 -0.2893 -0.4899
   6723SM   H1S 8654   3.468   6.263  17.075 -0.1720  0.4983 -2.4095
   6723SM   H1T 8655   3.622   6.161  17.097  0.9348 -0.1885  3.6803
   6723SM    NF 8656   3.638   6.317  16.882  0.4428  0.7053  0.6570
   6723SM   HNF 8657   3.695   6.256  16.826 -0.6353  1.1224 -0.9743
   6723SM   C2S 8658   3.659   6.353  17.020 -0.5240  0.1295 -0.1792
   6723SM   H2S 8659   3.641   6.461  17.043  1.7202  0.4793  0.1271
   6723SM   C3S 8660   3.811   6.335  17.068  1.0723  0.1581 -0.8123
   6723SM   H3S 8661   3.836   6.227  17.076 -0.5516 -0.2897 -1.4158
   6723SM    O3 8662   3.832   6.393  17.196 -0.3013  0.0549 -0.3584
   6723SM   HO3 8663   3.755   6.369  17.248  0.9442  2.5728  2.9857
   6723SM   C4S 8664   3.895   6.391  16.959  0.9591 -0.2011 -0.4713
   6723SM   H4S 8665   3.944   6.315  16.895  0.5277  0.7363 -1.9788
   6723SM   C5S 8666   3.928   6.518  16.936 -0.2268  0.0669  0.1482
   6723SM   H5S 8667   3.885   6.603  16.990 -0.6469  0.7737 -1.2770
   6723SM   C6S 8668   4.005   6.571  16.821  0.2476 -0.0619 -0.2664
   6723SM   H6S 8669   4.115   6.572  16.835  0.2775  2.2166 -0.4256
   6723SM   H6T 8670   3.987   6.680  16.816  2.3324  0.3927  1.1274
   6723SM   C7S 8671   3.990   6.498  16.682 -0.3171  0.4987 -0.0592
   6723SM   H7S 8672   3.884   6.471  16.665  0.3084 -2.3806  0.1434
   6723SM   H7T 8673   4.056   6.409  16.688  0.7203  1.2357 -0.1439
   6723SM   C8S 8674   4.044   6.591  16.572  0.4003  0.2670  0.2291
   6723SM   H8S 8675   4.155   6.596  16.567  0.2922  2.4000 -1.6945
   6723SM   H8T 8676   3.998   6.691  16.583 -0.2914  0.0791 -0.8197
   6723SM   C9S 8677   4.009   6.538  16.430 -0.2053  0.2500  0.1257
   6723SM   H9S 8678   3.906   6.550  16.392  0.6262 -0.3705 -2.5804
   6723SM   H9T 8679   4.028   6.428  16.425 -0.9011  0.1719 -1.5695
   6723SM  C10S 8680   4.074   6.621  16.324 -0.7675 -0.0074  0.5401
   6723SM  H10S 8681   4.182   6.640  16.346 -0.5967  1.1744 -1.1675
   6723SM  H10T 8682   4.034   6.724  16.323  1.0782  0.7865 -2.1439
   6723SM  C11S 8683   4.057   6.557  16.184 -0.5499  0.1609  0.0652
   6723SM  H11S 8684   3.951   6.528  16.167 -0.0522 -0.0000 -3.4229
   6723SM  H11T 8685   4.125   6.470  16.172  0.9285  1.0176  1.7656
   6723SM  C12S 8686   4.079   6.659  16.074  0.4039 -0.2499  0.2891
   6723SM  H12S 8687   4.174   6.710  16.100 -0.6347  1.3684  1.0184
   6723SM  H12T 8688   3.998   6.734  16.079 -0.4167 -1.0919 -0.0102
   6723SM  C13S 8689   4.098   6.590  15.932  0.7216 -0.3124 -0.0310
   6723SM  H13S 8690   4.014   6.518  15.922  0.9734 -0.5484 -0.5242
   6723SM  H13T 8691   4.195   6.537  15.941  1.4041  0.7155 -0.9634
   6723SM  C14S 8692   4.103   6.681  15.818 -0.2479 -0.2414  0.8507
   6723SM  H14S 8693   4.204   6.725  15.804 -0.0010 -0.8710  0.6352
   6723SM  H14T 8694   4.032   6.767  15.825 -0.3202  0.0778 -2.3881
   6723SM  C15S 8695   4.044   6.622  15.693  1.1604  0.5085 -0.4698
   6723SM  H15S 8696   3.935   6.639  15.707  1.4823  1.2047  1.5232
   6723SM  H15T 8697   4.062   6.512  15.698  3.1352  0.8376  1.1349
   6723SM  C16S 8698   4.088   6.676  15.559  0.1411  0.1227 -0.2987
   6723SM  H16S 8699   4.197   6.655  15.546 -0.1845 -1.5263 -0.5405
   6723SM  H16T 8700   4.065   6.785  15.565 -1.9562 -0.3575  1.7131
   6723SM  C17S 8701   4.005   6.608  15.448 -0.2461  0.2443 -0.7976
   6723SM  H17S 8702   3.920   6.564  15.503  0.5979 -1.9822 -1.1636
   6723SM  H17T 8703   4.057   6.519  15.406  0.4926  0.6669 -0.8068
   6723SM  C18S 8704   3.949   6.710  15.350 -0.2836 -0.0844 -0.1054
   6723SM  H18S 8705   3.901   6.794  15.404  1.0906  0.6288  0.0499
   6723SM  H18T 8706   3.877   6.651  15.290  0.0167  0.4974 -1.0587
   6723SM  H18U 8707   4.029   6.755  15.288 -0.9940 -1.2548 -1.9475
   6723SM   C1F 8708   3.518   6.342  16.822 -0.3997  0.5714 -0.4086
   6723SM    OF 8709   3.425   6.402  16.881 -0.2679 -0.4051  0.7044
   6723SM   C2F 8710   3.511   6.288  16.687 -0.6308  0.5157  0.1430
   6723SM   H2F 8711   3.414   6.312  16.640 -0.3278  1.4523 -0.0117
   6723SM   H2G 8712   3.530   6.178  16.693  0.4692  0.6882  0.0668
   6723SM   C3F 8713   3.625   6.335  16.594  0.0290 -0.0394 -0.1886
   6723SM   H3F 8714   3.718   6.283  16.625 -0.5568 -2.1503 -1.7399
   6723SM   H3G 8715   3.649   6.444  16.591 -1.1104  0.1984 -2.5208
   6723SM   C4F 8716   3.598   6.288  16.453 -0.2628 -0.5940  0.1377
   6723SM   H4F 8717   3.500   6.327  16.416  0.6469 -0.1772 -2.0089
   6723SM   H4G 8718   3.594   6.177  16.453 -1.9664 -0.6025 -1.6561
   6723SM   C5F 8719   3.702   6.332  16.343  0.2446  0.5991 -0.1735
   6723SM   H5F 8720   3.807   6.308  16.369  0.1957 -0.2343 -0.6853
   6723SM   H5G 8721   3.693   6.442  16.350 -0.3138  0.4714  1.5719
   6723SM   C6F 8722   3.664   6.274  16.206  0.5415 -1.1902 -0.0138
   6723SM   H6F 8723   3.573   6.328  16.171  0.8717 -1.8089 -1.9128
   6723SM   H6G 8724   3.642   6.166  16.193 -1.7973 -0.7179 -0.3861
   6723SM   C7F 8725   3.778   6.293  16.101 -0.5091  1.0337  0.1278
   6723SM   H7F 8726   3.866   6.253  16.156  0.0117  2.0411  0.0461
   6723SM   H7G 8727   3.808   6.398  16.081  2.3538  0.0017 -1.6205
   6723SM   C8F 8728   3.745   6.196  15.982  0.4538 -0.0089  0.2895
   6723SM   H8F 8729   3.642   6.228  15.953  0.4455  1.0510  1.3873
   6723SM   H8G 8730   3.751   6.087  16.003 -2.0092  0.0789  1.8559
   6723SM   C9F 8731   3.836   6.229  15.865 -0.6361  0.3820 -0.7557
   6723SM   H9F 8732   3.934   6.180  15.883 -0.5974  0.7437  0.1006
   6723SM   H9G 8733   3.854   6.339  15.861  1.8150  0.1852  1.8121
   6723SM  C10F 8734   3.788   6.173  15.730 -0.3807  0.0969  0.1019
   6723SM  H10F 8735   3.685   6.208  15.710 -0.0920  0.4711 -0.7915
   6723SM  H10G 8736   3.780   6.062  15.735 -0.6020  0.1411  0.9071
   6723SM  C11F 8737   3.873   6.212  15.611  0.9845 -0.1036  0.1652
   6723SM  H11F 8738   3.965   6.150  15.620  0.9298  0.1072  3.0871
   6723SM  H11G 8739   3.908   6.317  15.618  1.0811 -0.2226  1.5998
   6723SM  C12F 8740   3.805   6.196  15.472 -0.6023  0.3580 -0.7757
   6723SM  H12F 8741   3.706   6.247  15.475 -1.1948 -0.7853 -0.1735
   6723SM  H12G 8742   3.793   6.088  15.448  0.4775 -0.2607  1.2340
   6723SM  C13F 8743   3.889   6.241  15.349  0.2437 -0.1246 -0.0363
   6723SM  H13F 8744   3.995   6.215  15.369  0.8221 -0.7915 -3.3427
   6723SM  H13G 8745   3.883   6.349  15.322 -2.2703 -0.2743 -0.4052
   6723SM  C14F 8746   3.846   6.185  15.211  0.6830  0.1584  0.1515
   6723SM  H14F 8747   3.738   6.212  15.204  0.4449 -1.2030 -2.3937
   6723SM  H14G 8748   3.860   6.075  15.214  1.6040  0.2735  0.1071
   6723SM  C15F 8749   3.934   6.232  15.099 -0.0002  0.1809  0.3816
   6723SM  H15F 8750   4.038   6.198  15.121  0.3570  0.6007 -0.5994
   6723SM  H15G 8751   3.941   6.342  15.107  0.8815  0.1054  0.8114
   6723SM  C16F 8752   3.895   6.178  14.959  0.0751 -0.3894 -0.1200
   6723SM  H16F 8753   3.942   6.221  14.867  1.1135  0.3021  0.7102
   6723SM  H16G 8754   3.785   6.189  14.946 -0.2002 -1.5881  1.0514
   6723SM  C17F 8755   3.930   6.029  14.953 -0.3434 -0.1225 -1.0237
   6723SM  H17F 8756   3.863   5.977  15.025  1.1144  0.4838  0.8709
   6723SM  H17G 8757   4.036   6.009  14.981 -0.9946 -0.4494  1.5099
   6723SM  C18F 8758   3.932   5.969  14.810 -0.1343  0.3961  0.6543
   6723SM  H18F 8759   3.975   6.046  14.741 -1.1122  1.1641  0.8822
   6723SM  H18G 8760   3.829   5.951  14.773  0.7755 -0.7145 -1.5385
   6723SM  C19F 8761   4.015   5.840  14.805  0.0785 -0.7188 -0.5439
   6723SM  H19F 8762   3.952   5.759  14.848  0.4809 -0.2855  0.8943
   6723SM  H19G 8763   4.108   5.856  14.862 -0.3806  0.1363 -0.0095
   6723SM  C20F 8764   4.062   5.798  14.665 -0.1510 -0.5790  0.4447
   6723SM  H20F 8765   4.106   5.881  14.605 -1.9085  0.1571  0.0940
   6723SM  H20G 8766   3.976   5.764  14.603  0.4351 -2.9022  0.8279
   6723SM  C21F 8767   4.135   5.662  14.662 -0.2276 -0.4887 -0.7883
   6723SM  H21F 8768   4.072   5.582  14.706  1.8616 -1.9487 -0.2855
   6723SM  H21G 8769   4.222   5.667  14.730 -0.9719 -2.7447  0.4266
   6723SM  C22F 8770   4.155   5.608  14.523  0.1615  0.4516  0.5507
   6723SM  H22F 8771   4.233   5.668  14.471  0.2452 -0.4442 -0.3821
   6723SM  H22G 8772   4.064   5.616  14.459 -1.3266 -1.6802  2.2781
   6723SM  C23F 8773   4.199   5.463  14.524 -0.4437  0.2797 -0.0921
   6723SM  H23F 8774   4.310   5.455  14.532 -0.3046  1.0761 -0.9714
   6723SM  H23G 8775   4.185   5.418  14.423 -0.1524 -0.2797  0.1116
   6723SM  H23H 8776   4.138   5.404  14.595  0.1820  0.8317  0.9189
   6823SM     N 8777   2.942   1.908  17.773 -0.4910 -0.2200 -0.1494
   6823SM   C15 8778   2.997   1.980  17.655  0.3853 -0.1820  0.5025
   6823SM  H15A 8779   2.928   1.960  17.574  1.8877 -0.6533 -0.7234
   6823SM  H15B 8780   3.098   1.948  17.634  0.5317 -0.8627  2.1336
   6823SM  H15C 8781   2.999   2.088  17.665 -0.1355 -0.0963 -0.1998
   6823SM   C14 8782   2.979   1.762  17.762 -0.7310  0.7670  0.0678
   6823SM  H14A 8783   2.929   1.700  17.835 -0.8012  0.5030 -0.2003
   6823SM  H14B 8784   3.085   1.749  17.780 -0.8558 -1.8664 -0.6291
   6823SM  H14C 8785   2.950   1.730  17.663  1.6422 -2.1441  0.1535
   6823SM   C13 8786   3.005   1.956  17.898  0.0151 -0.2976  1.0127
   6823SM  H13A 8787   3.113   1.963  17.892  0.0558 -1.4196  0.1715
   6823SM  H13B 8788   2.982   1.889  17.979 -0.6635 -1.7582 -0.3495
   6823SM  H13C 8789   2.970   2.053  17.928  3.3420  0.9978  1.1976
   6823SM   C12 8790   2.796   1.933  17.782  0.3000  0.2650 -0.0416
   6823SM  H12A 8791   2.781   2.039  17.770 -1.0777 -0.0157 -1.1634
   6823SM  H12B 8792   2.762   1.913  17.883 -0.5776 -0.3677 -0.4431
   6823SM   C11 8793   2.700   1.865  17.682  0.6396  0.8080  0.2231
   6823SM  H11A 8794   2.593   1.884  17.707  0.1955  0.2729 -1.1490
   6823SM  H11B 8795   2.703   1.755  17.696 -2.2687  0.8679  2.3683
   6823SM     P 8796   2.630   2.007  17.474  0.4170 -0.1149  0.1033
   6823SM   O13 8797   2.495   1.942  17.480 -0.5635  0.3153  0.0104
   6823SM   O14 8798   2.638   2.144  17.532 -0.9102  0.2211 -0.1988
   6823SM   O11 8799   2.674   2.016  17.324  0.0679  0.4469 -0.0722
   6823SM   O12 8800   2.733   1.910  17.548  0.6693  0.4681 -0.7128
   6823SM   C1S 8801   2.672   1.914  17.226  0.7372  0.0595  0.4073
   6823SM   H1S 8802   2.567   1.904  17.194  0.9811  0.6282 -0.6203
   6823SM   H1T 8803   2.692   1.817  17.276 -0.5704  0.0873  1.0195
   6823SM    NF 8804   2.743   1.888  16.986 -0.0064 -0.4940 -0.6063
   6823SM   HNF 8805   2.822   1.839  16.950  3.4865  2.1870  2.6415
   6823SM   C2S 8806   2.768   1.960  17.107  0.3084  0.8862 -0.8679
   6823SM   H2S 8807   2.755   2.069  17.091  0.1769  1.3998  2.1112
   6823SM   C3S 8808   2.910   1.943  17.160  1.5912  0.5617  0.0185
   6823SM   H3S 8809   2.935   1.837  17.185  2.0477  0.1519 -1.9935
   6823SM    O3 8810   2.942   2.017  17.272 -0.2704 -0.1742  0.2662
   6823SM   HO3 8811   2.859   2.032  17.317 -0.8466 -0.9005 -0.5277
   6823SM   C4S 8812   3.005   2.000  17.066  0.3234  0.4437  0.7692
   6823SM   H4S 8813   2.995   2.107  17.042  2.2309  0.6505  0.7311
   6823SM   C5S 8814   3.113   1.932  17.013 -0.1027  0.5228  0.9279
   6823SM   H5S 8815   3.143   1.829  17.038  3.8456  0.8426 -1.5588
   6823SM   C6S 8816   3.215   1.996  16.920  0.1159 -0.3366  0.4197
   6823SM   H6S 8817   3.302   2.031  16.981  0.4962 -1.2789  0.4331
   6823SM   H6T 8818   3.174   2.090  16.878 -0.1950  0.0234  1.4957
   6823SM   C7S 8819   3.268   1.912  16.801 -0.5488 -0.4416 -0.5821
   6823SM   H7S 8820   3.186   1.842  16.775  0.1255 -2.0002  1.3027
   6823SM   H7T 8821   3.348   1.843  16.836 -0.0692 -0.1474 -1.0819
   6823SM   C8S 8822   3.312   2.000  16.686  0.4242 -0.8945 -0.4027
   6823SM   H8S 8823   3.345   2.103  16.710 -0.2036 -0.3999 -1.5825
   6823SM   H8T 8824   3.218   2.027  16.632 -0.7379  0.7078  2.2342
   6823SM   C9S 8825   3.412   1.929  16.590 -0.0124  0.5883 -0.3891
   6823SM   H9S 8826   3.374   1.828  16.563  0.4119  0.7023 -1.4582
   6823SM   H9T 8827   3.498   1.894  16.652  0.6711 -1.1960 -2.2531
   6823SM  C10S 8828   3.450   2.002  16.467  0.3708 -0.0971  0.3821
   6823SM  H10S 8829   3.516   1.943  16.400 -0.6837  1.1571 -1.9087
   6823SM  H10T 8830   3.503   2.098  16.483 -0.8391  1.1560 -2.3372
   6823SM  C11S 8831   3.327   2.062  16.378  0.6981  0.3803  0.3436
   6823SM  H11S 8832   3.376   2.116  16.295 -0.5442  1.1042  0.0693
   6823SM  H11T 8833   3.280   2.139  16.443  0.8683 -0.2101  1.1826
   6823SM  C12S 8834   3.219   1.964  16.327 -0.1486  0.6707 -0.0339
   6823SM  H12S 8835   3.137   2.029  16.292  0.1803  1.1545  0.0766
   6823SM  H12T 8836   3.183   1.910  16.417  0.2146 -1.1001 -0.9027
   6823SM  C13S 8837   3.265   1.844  16.240  1.0449  0.4385  0.1116
   6823SM  H13S 8838   3.230   1.748  16.283 -1.1322  1.0640 -0.1424
   6823SM  H13T 8839   3.376   1.849  16.234  1.0240  0.4153 -0.2921
   6823SM  C14S 8840   3.215   1.855  16.090  0.0876  0.7770  0.5063
   6823SM  H14S 8841   3.104   1.851  16.081  0.0216  1.5824  0.9340
   6823SM  H14T 8842   3.260   1.766  16.041  0.9491  1.6855 -0.3847
   6823SM  C15S 8843   3.267   1.973  16.009  0.2301  0.3060  0.2558
   6823SM  H15S 8844   3.367   2.008  16.042  1.5870  1.1053 -4.1173
   6823SM  H15T 8845   3.194   2.054  16.034 -0.7303 -0.7794  1.0820
   6823SM  C16S 8846   3.277   1.952  15.861 -0.4273  0.2985 -0.0442
   6823SM  H16S 8847   3.180   1.923  15.814  0.2813 -0.7372 -0.9302
   6823SM  H16T 8848   3.353   1.873  15.844 -0.4875  0.3621 -0.6474
   6823SM  C17S 8849   3.314   2.073  15.780  0.4883  0.4278  0.4636
   6823SM  H17S 8850   3.403   2.118  15.829  0.8647 -0.6254  0.7721
   6823SM  H17T 8851   3.235   2.152  15.790 -0.5665 -0.6971  1.3684
   6823SM  C18S 8852   3.331   2.037  15.628  0.0337  0.1809 -0.4572
   6823SM  H18S 8853   3.234   1.988  15.603 -0.5563  0.3179  1.4184
   6823SM  H18T 8854   3.410   1.960  15.626 -0.4220 -0.2870 -0.9015
   6823SM  H18U 8855   3.348   2.129  15.567 -3.2620  0.0675 -1.8072
   6823SM   C1F 8856   2.627   1.922  16.923 -0.0259  0.8915 -0.2755
   6823SM    OF 8857   2.547   1.998  16.966 -0.4894 -0.1820  0.2263
   6823SM   C2F 8858   2.608   1.847  16.795  0.4308  0.0627  0.2869
   6823SM   H2F 8859   2.538   1.764  16.820 -0.5852  0.7090 -0.3544
   6823SM   H2G 8860   2.702   1.809  16.750  0.3144 -0.4898  0.5016
   6823SM   C3F 8861   2.531   1.940  16.689 -0.0714  1.1790  0.2346
   6823SM   H3F 8862   2.596   2.024  16.659 -1.1040  1.9683  0.1702
   6823SM   H3G 8863   2.440   1.972  16.744  0.1969  1.9624  0.2326
   6823SM   C4F 8864   2.459   1.874  16.568  0.5337  0.3168  0.3419
   6823SM   H4F 8865   2.388   1.796  16.604 -1.4877  1.7748 -0.2781
   6823SM   H4G 8866   2.533   1.818  16.508 -0.2009 -0.5469  0.2083
   6823SM   C5F 8867   2.368   1.963  16.478 -0.5096 -0.4355  0.4606
   6823SM   H5F 8868   2.431   2.044  16.436  0.0789 -0.8122  0.6116
   6823SM   H5G 8869   2.305   2.025  16.545 -0.7371  0.8187 -0.8714
   6823SM   C6F 8870   2.283   1.875  16.384  0.7237 -0.0512 -0.3670
   6823SM   H6F 8871   2.233   1.805  16.454  2.2267 -0.8936 -0.0877
   6823SM   H6G 8872   2.353   1.813  16.325  0.8874 -0.3125  0.0927
   6823SM   C7F 8873   2.176   1.960  16.306 -0.3885  0.5741  0.3038
   6823SM   H7F 8874   2.231   2.008  16.222 -0.6557  2.5472  1.1963
   6823SM   H7G 8875   2.137   2.037  16.377  0.4560  0.5772  0.7808
   6823SM   C8F 8876   2.065   1.866  16.258  0.2037 -0.1380  0.4305
   6823SM   H8F 8877   2.019   1.837  16.355  0.0407  1.6142  0.9256
   6823SM   H8G 8878   2.099   1.773  16.209 -0.0599 -0.1971  0.3585
   6823SM   C9F 8879   1.971   1.954  16.187 -0.0749 -0.1421 -0.0128
   6823SM   H9F 8880   1.956   2.046  16.248 -0.4365 -0.5331  0.4922
   6823SM   H9G 8881   1.873   1.905  16.172  0.5794 -1.6898  0.5816
   6823SM  C10F 8882   2.000   2.002  16.050  0.0782  0.7070  0.4834
   6823SM  H10F 8883   2.025   1.914  15.988 -0.6515 -0.3638  1.6770
   6823SM  H10G 8884   2.087   2.071  16.044 -0.8075  1.8526  0.2156
   6823SM  C11F 8885   1.888   2.084  15.972  0.1068  0.4671 -0.6621
   6823SM  H11F 8886   1.862   2.175  16.031 -0.0109 -0.1358  0.2405
   6823SM  H11G 8887   1.797   2.022  15.967  0.1670  0.4359 -1.4099
   6823SM  C12F 8888   1.920   2.122  15.827 -0.2993  0.3522 -1.2747
   6823SM  H12F 8889   1.914   2.039  15.754 -0.2395 -0.1757 -0.6833
   6823SM  H12G 8890   2.022   2.165  15.821  0.0222 -0.3479 -0.9346
   6823SM  C13F 8891   1.827   2.237  15.787  0.7079 -0.7047  0.2691
   6823SM  H13F 8892   1.860   2.336  15.825  1.0417  0.0398 -1.8461
   6823SM  H13G 8893   1.726   2.229  15.834 -0.0388  0.3202 -1.0886
   6823SM  C14F 8894   1.814   2.262  15.634 -0.0732 -0.1814  0.0910
   6823SM  H14F 8895   1.738   2.191  15.595 -0.0480  0.7768 -1.7692
   6823SM  H14G 8896   1.907   2.222  15.588 -1.1101  0.3759 -2.6521
   6823SM  C15F 8897   1.789   2.413  15.598  0.6191  0.4450 -0.0257
   6823SM  H15F 8898   1.857   2.481  15.653  0.1174  0.3758  0.6884
   6823SM  H15G 8899   1.685   2.439  15.625  1.1665  2.2351  0.4294
   6823SM  C16F 8900   1.804   2.450  15.451  0.7259 -0.1786  0.3346
   6823SM  H16F 8901   1.908   2.432  15.417  0.8407 -0.0663  0.6258
   6823SM  H16G 8902   1.775   2.557  15.440 -0.2511 -0.4044  0.6056
   6823SM  C17F 8903   1.707   2.367  15.356 -0.3294 -0.2989 -0.1540
   6823SM  H17F 8904   1.610   2.370  15.410 -0.5391  4.1624 -0.3766
   6823SM  H17G 8905   1.750   2.265  15.347  0.5445  0.1329 -1.1634
   6823SM  C18F 8906   1.693   2.436  15.220  0.5384 -0.4111 -0.2993
   6823SM  H18F 8907   1.654   2.534  15.253 -0.2352 -1.0225  0.6562
   6823SM  H18G 8908   1.616   2.392  15.152 -0.7533 -0.6979  1.2960
   6823SM  C19F 8909   1.829   2.471  15.151 -0.6490 -0.2819 -0.5676
   6823SM  H19F 8910   1.870   2.370  15.129 -1.1763 -0.7264  0.3922
   6823SM  H19G 8911   1.903   2.516  15.221  2.0852 -2.2649 -1.9810
   6823SM  C20F 8912   1.814   2.546  15.016  0.2062  0.0628 -0.4422
   6823SM  H20F 8913   1.742   2.492  14.949  1.3674 -0.9527 -0.9146
   6823SM  H20G 8914   1.915   2.553  14.970 -0.0975  1.0905 -0.9779
   6823SM  C21F 8915   1.776   2.696  15.035  0.3331  0.3776  0.4017
   6823SM  H21F 8916   1.837   2.732  15.121  2.4040 -0.1352 -0.7754
   6823SM  H21G 8917   1.670   2.697  15.065  0.3887 -0.8111  0.7130
   6823SM  C22F 8918   1.806   2.784  14.912  0.2330 -0.4913 -0.9461
   6823SM  H22F 8919   1.745   2.758  14.823 -0.2735  0.8862 -1.0274
   6823SM  H22G 8920   1.915   2.770  14.894  0.5728 -1.0574  1.2217
   6823SM  C23F 8921   1.798   2.933  14.957  0.1697 -0.3200 -0.7150
   6823SM  H23F 8922   1.831   2.992  14.869  1.2439 -1.6000 -1.2153
   6823SM  H23G 8923   1.867   2.958  15.041 -1.9150  2.3532  0.3375
   6823SM  H23H 8924   1.695   2.959  14.987  0.2100  2.4260 -2.6186
   6923SM     N 8925   4.795   3.421  17.790  0.3546 -0.4989 -0.9973
   6923SM   C15 8926   4.875   3.338  17.889  0.2850 -0.5355  0.3479
   6923SM  H15A 8927   4.971   3.300  17.857  1.5085  1.5681  1.3046
   6923SM  H15B 8928   4.820   3.249  17.913  1.6632 -1.0978  1.5408
   6923SM  H15C 8929   4.879   3.393  17.982 -0.0425  0.8505 -0.4256
   6923SM   C14 8930   4.661   3.457  17.856 -0.7963 -0.2263 -0.0653
   6923SM  H14A 8931   4.685   3.505  17.950  2.4818  1.6174 -1.6895
   6923SM  H14B 8932   4.612   3.365  17.885  0.6179 -0.2529  2.5673
   6923SM  H14C 8933   4.605   3.520  17.788  1.1490  0.9246 -0.6701
   6923SM   C13 8934   4.860   3.547  17.742  0.3083  0.6336  0.2274
   6923SM  H13A 8935   4.952   3.515  17.696  0.6236 -0.4889  1.5591
   6923SM  H13B 8936   4.885   3.611  17.825 -1.6879  0.4318  1.0484
   6923SM  H13C 8937   4.802   3.590  17.661 -0.1625 -0.0627  0.1860
   6923SM   C12 8938   4.767   3.330  17.671 -0.6767 -0.1675  0.0577
   6923SM  H12A 8939   4.684   3.367  17.613 -1.8792  1.0604  2.3989
   6923SM  H12B 8940   4.741   3.230  17.703 -0.9053 -0.0677  0.1830
   6923SM   C11 8941   4.887   3.315  17.568 -0.2857  0.0742 -0.2036
   6923SM  H11A 8942   4.859   3.233  17.498 -1.1218 -0.9914  1.3219
   6923SM  H11B 8943   4.977   3.296  17.631 -0.2264  1.9914  0.3453
   6923SM     P 8944   4.812   3.503  17.393 -0.0107  0.0854 -0.2478
   6923SM   O13 8945   4.669   3.486  17.450  0.1179 -0.5188 -0.2121
   6923SM   O14 8946   4.849   3.637  17.345 -0.1869  0.3463  0.2675
   6923SM   O11 8947   4.829   3.416  17.261  0.7159  0.6024  0.4418
   6923SM   O12 8948   4.913   3.442  17.500  0.4205 -0.3782  0.4290
   6923SM   C1S 8949   4.725   3.405  17.164  0.7054  0.7665 -0.3179
   6923SM   H1S 8950   4.708   3.504  17.116  0.4839 -0.4567 -2.9814
   6923SM   H1T 8951   4.629   3.373  17.209  0.8553 -0.9053 -1.1246
   6923SM    NF 8952   4.676   3.298  16.939  0.1176  0.2637 -0.3925
   6923SM   HNF 8953   4.624   3.213  16.926 -0.5239  0.6690 -0.5249
   6923SM   C2S 8954   4.768   3.298  17.054  0.0073 -0.9240 -0.0808
   6923SM   H2S 8955   4.864   3.327  17.006 -1.2649 -0.6561 -2.6515
   6923SM   C3S 8956   4.786   3.152  17.115  0.0476 -0.1771  0.3795
   6923SM   H3S 8957   4.684   3.111  17.131  0.0693 -0.1353  0.6394
   6923SM    O3 8958   4.842   3.146  17.247 -0.1574  0.9500  0.2330
   6923SM   HO3 8959   4.860   3.237  17.271  1.5197  0.7580 -0.1837
   6923SM   C4S 8960   4.861   3.062  17.017  0.5599 -0.0848  0.3334
   6923SM   H4S 8961   4.948   3.110  16.970 -0.8041  1.4191 -0.7566
   6923SM   C5S 8962   4.826   2.933  16.977  0.6358  0.1915 -0.9118
   6923SM   H5S 8963   4.735   2.883  17.012  1.3318 -1.4302 -1.3380
   6923SM   C6S 8964   4.905   2.852  16.874 -0.2363 -0.2191  0.4165
   6923SM   H6S 8965   4.887   2.742  16.873  0.4575 -0.3437 -0.9761
   6923SM   H6T 8966   5.013   2.857  16.900 -0.1371  0.9692 -0.1318
   6923SM   C7S 8967   4.898   2.931  16.742 -0.2522 -0.0622  0.1762
   6923SM   H7S 8968   4.979   2.887  16.681 -1.8763  0.0414 -2.1832
   6923SM   H7T 8969   4.916   3.040  16.755 -1.8211  0.3041 -0.4406
   6923SM   C8S 8970   4.762   2.910  16.662  0.7929  0.3596  0.8584
   6923SM   H8S 8971   4.674   2.927  16.727 -0.8086 -1.6620 -0.6509
   6923SM   H8T 8972   4.763   2.803  16.632  1.0079  1.2597 -2.7916
   6923SM   C9S 8973   4.762   2.991  16.529 -0.2440 -0.0156 -0.4161
   6923SM   H9S 8974   4.842   3.067  16.537 -0.4978  0.1132  1.2640
   6923SM   H9T 8975   4.666   3.047  16.529  0.5147  1.6444  3.5553
   6923SM  C10S 8976   4.774   2.904  16.401 -0.1116  0.5810 -0.2399
   6923SM  H10S 8977   4.672   2.859  16.399 -0.9565  2.2546  1.3490
   6923SM  H10T 8978   4.855   2.829  16.406 -2.9729 -2.6552  1.7484
   6923SM  C11S 8979   4.802   2.988  16.277 -0.2421  0.0155  0.3910
   6923SM  H11S 8980   4.909   3.017  16.271  0.3559 -2.0455  0.6066
   6923SM  H11T 8981   4.743   3.082  16.265  1.3095  0.8739 -0.9136
   6923SM  C12S 8982   4.771   2.912  16.147 -0.6648  0.7792 -0.6970
   6923SM  H12S 8983   4.668   2.871  16.145 -0.0635 -0.8512 -0.2230
   6923SM  H12T 8984   4.840   2.825  16.145 -0.4890  0.7103  2.4643
   6923SM  C13S 8985   4.780   3.006  16.029  0.0526  0.3336 -0.0983
   6923SM  H13S 8986   4.870   3.071  16.025  0.0426  0.2796 -1.6208
   6923SM  H13T 8987   4.689   3.069  16.044  0.4117  0.5908  1.1858
   6923SM  C14S 8988   4.773   2.938  15.898 -0.2152  0.5580  0.6509
   6923SM  H14S 8989   4.684   2.872  15.883  0.0491  0.4270 -0.4311
   6923SM  H14T 8990   4.863   2.874  15.888 -0.0679  1.1130 -3.2809
   6923SM  C15S 8991   4.801   3.033  15.775 -0.4174  0.3592  0.1955
   6923SM  H15S 8992   4.878   3.111  15.795 -1.5952  1.4276  0.7535
   6923SM  H15T 8993   4.712   3.100  15.768 -1.3634 -0.4255  3.2468
   6923SM  C16S 8994   4.835   2.964  15.640 -0.3073  0.3920  0.2334
   6923SM  H16S 8995   4.910   2.883  15.656  0.0948  0.5491 -0.7859
   6923SM  H16T 8996   4.881   3.042  15.575 -0.8446  0.0430 -0.5792
   6923SM  C17S 8997   4.702   2.912  15.566 -0.2312  0.4367 -0.2777
   6923SM  H17S 8998   4.650   2.832  15.622  0.2674 -0.7713 -1.4761
   6923SM  H17T 8999   4.730   2.857  15.473 -1.8756  0.0559 -0.5645
   6923SM  C18S 9000   4.601   3.018  15.536  0.6117 -0.1122  0.6958
   6923SM  H18S 9001   4.553   3.065  15.624 -0.3921  0.9607 -0.3828
   6923SM  H18T 9002   4.521   2.978  15.471 -0.4333  0.6572  1.4904
   6923SM  H18U 9003   4.650   3.097  15.475  1.2615 -0.2233  1.0641
   6923SM   C1F 9004   4.651   3.403  16.860  0.0794  0.0268 -0.5144
   6923SM    OF 9005   4.725   3.502  16.868 -0.5117 -0.4236  0.2962
   6923SM   C2F 9006   4.521   3.395  16.784 -0.4363  0.0176 -0.3005
   6923SM   H2F 9007   4.464   3.491  16.777  0.8075  0.6557 -2.6270
   6923SM   H2G 9008   4.457   3.337  16.854  0.1020  2.6172  2.5493
   6923SM   C3F 9009   4.541   3.334  16.642 -0.1989  0.4405 -0.0288
   6923SM   H3F 9010   4.440   3.305  16.604  0.1734  0.1619 -0.8245
   6923SM   H3G 9011   4.597   3.238  16.651  1.4055  1.4635  1.5356
   6923SM   C4F 9012   4.615   3.421  16.537 -0.1678  0.0571  0.4281
   6923SM   H4F 9013   4.712   3.465  16.569 -1.5142  3.6061  0.0725
   6923SM   H4G 9014   4.562   3.517  16.520  1.4309  0.5619 -2.2695
   6923SM   C5F 9015   4.627   3.350  16.402 -0.1891 -0.0792  1.0449
   6923SM   H5F 9016   4.525   3.333  16.361 -0.7990  1.9565  1.6368
   6923SM   H5G 9017   4.665   3.248  16.425 -3.1712 -2.2120 -2.3017
   6923SM   C6F 9018   4.716   3.427  16.299  0.1429 -0.1162  0.2422
   6923SM   H6F 9019   4.817   3.456  16.333 -0.6019  2.2596  0.6159
   6923SM   H6G 9020   4.664   3.515  16.255  1.5059  0.5406 -0.0871
   6923SM   C7F 9021   4.746   3.344  16.169 -0.1293  0.4724 -0.5742
   6923SM   H7F 9022   4.661   3.273  16.161 -0.0352  0.1937  0.7646
   6923SM   H7G 9023   4.845   3.295  16.165 -0.0000  0.6506  0.3388
   6923SM   C8F 9024   4.718   3.427  16.044 -0.0985 -0.0478 -0.6058
   6923SM   H8F 9025   4.780   3.520  16.048  4.2369 -2.6943  0.9244
   6923SM   H8G 9026   4.608   3.443  16.042 -0.5807 -2.8710 -2.4586
   6923SM   C9F 9027   4.761   3.354  15.919  0.3787  0.0078  0.7516
   6923SM   H9F 9028   4.706   3.258  15.912  0.3084  0.0183  1.1479
   6923SM   H9G 9029   4.871   3.335  15.916  0.7225  1.5804  1.9838
   6923SM  C10F 9030   4.722   3.424  15.788  0.2692  0.3220 -0.7929
   6923SM  H10F 9031   4.753   3.354  15.708  1.8467  0.2092 -0.1064
   6923SM  H10G 9032   4.774   3.520  15.770 -2.3880  2.0915  0.3686
   6923SM  C11F 9033   4.572   3.457  15.763  0.4792 -0.2652 -0.0056
   6923SM  H11F 9034   4.567   3.504  15.662  0.2996 -0.2291  0.0191
   6923SM  H11G 9035   4.538   3.529  15.841 -3.9034 -1.0042 -0.9924
   6923SM  C12F 9036   4.483   3.338  15.777  0.5390  0.3602 -0.0558
   6923SM  H12F 9037   4.458   3.316  15.883 -1.5053  0.8829 -0.3765
   6923SM  H12G 9038   4.544   3.254  15.737 -0.4733  0.1405 -1.2050
   6923SM  C13F 9039   4.347   3.340  15.699  0.1117 -0.3146 -0.1316
   6923SM  H13F 9040   4.275   3.406  15.751  0.4979 -0.7719  1.0079
   6923SM  H13G 9041   4.306   3.238  15.706  1.1507 -0.6603  1.4030
   6923SM  C14F 9042   4.344   3.395  15.559 -0.2156  0.0223 -0.2433
   6923SM  H14F 9043   4.391   3.495  15.571  1.5906 -0.9953  2.2990
   6923SM  H14G 9044   4.236   3.399  15.534 -0.6784 -0.4279  1.5116
   6923SM  C15F 9045   4.414   3.310  15.455  0.2664 -0.0224 -0.4692
   6923SM  H15F 9046   4.387   3.202  15.467  1.6309 -0.6104 -2.2201
   6923SM  H15G 9047   4.524   3.318  15.464  0.1364  1.2099  0.2298
   6923SM  C16F 9048   4.370   3.343  15.313  0.2401  0.1970 -0.9891
   6923SM  H16F 9049   4.383   3.452  15.294  0.6912  0.4198  0.5166
   6923SM  H16G 9050   4.260   3.328  15.317  0.4789 -1.4035  1.1700
   6923SM  C17F 9051   4.430   3.260  15.200  0.5502  0.0315  0.6665
   6923SM  H17F 9052   4.396   3.156  15.218  1.7088 -0.2084  1.6319
   6923SM  H17G 9053   4.541   3.260  15.210  0.6116 -0.2671  0.0202
   6923SM  C18F 9054   4.382   3.296  15.056  0.6325  0.6276  0.2771
   6923SM  H18F 9055   4.382   3.407  15.051 -2.3370  0.7937  1.8178
   6923SM  H18G 9056   4.283   3.251  15.030  1.7118 -1.3736 -0.6226
   6923SM  C19F 9057   4.493   3.252  14.960 -0.1374  1.1438  1.1008
   6923SM  H19F 9058   4.484   3.142  14.960 -1.9773  1.2606  1.9311
   6923SM  H19G 9059   4.591   3.283  15.004  0.8337  0.9551 -0.8218
   6923SM  C20F 9060   4.470   3.307  14.817  0.2848 -0.2661 -0.3410
   6923SM  H20F 9061   4.437   3.413  14.815 -0.1651 -0.4191 -1.8023
   6923SM  H20G 9062   4.385   3.247  14.777  0.1325  0.2774 -0.8295
   6923SM  C21F 9063   4.581   3.273  14.714 -1.3444 -0.7970 -0.1292
   6923SM  H21F 9064   4.597   3.164  14.729  1.0887 -0.3675  0.8591
   6923SM  H21G 9065   4.678   3.325  14.728 -1.7372  0.0389 -0.4169
   6923SM  C22F 9066   4.549   3.303  14.561  0.4441 -0.2426 -0.6008
   6923SM  H22F 9067   4.472   3.227  14.537  0.3675 -0.0479 -0.9729
   6923SM  H22G 9068   4.641   3.288  14.500  1.3289 -2.3463  1.0866
   6923SM  C23F 9069   4.476   3.433  14.521 -0.3632 -0.6804  0.4236
   6923SM  H23F 9070   4.372   3.414  14.553 -0.0264 -2.2947  0.6441
   6923SM  H23G 9071   4.487   3.459  14.413 -0.0435  1.2712  0.8795
   6923SM  H23H 9072   4.517   3.524  14.571 -1.0313  2.5344 -4.1972
   7023SM     N 9073   3.308   2.370  17.417 -0.2653 -0.2816 -0.8487
   7023SM   C15 9074   3.355   2.293  17.541  0.2045 -0.3413 -0.3067
   7023SM  H15A 9075   3.449   2.242  17.523  0.7189  0.6523 -0.4694
   7023SM  H15B 9076   3.284   2.221  17.579  1.2077 -0.4465  1.4308
   7023SM  H15C 9077   3.374   2.369  17.615 -0.5510 -0.4839  0.0484
   7023SM   C14 9078   3.168   2.408  17.446  0.5133  0.5310  0.4803
   7023SM  H14A 9079   3.126   2.450  17.356 -1.2453 -0.4376  0.7935
   7023SM  H14B 9080   3.157   2.487  17.520  2.0030  0.2925  0.9843
   7023SM  H14C 9081   3.103   2.326  17.473  0.2048  0.6063 -0.0114
   7023SM   C13 9082   3.397   2.489  17.403 -0.1275  0.5562 -0.4859
   7023SM  H13A 9083   3.375   2.540  17.311  2.1552  1.1426 -0.7568
   7023SM  H13B 9084   3.492   2.445  17.379 -0.7036 -2.1928  1.7622
   7023SM  H13C 9085   3.398   2.562  17.483 -1.2769  3.1893 -2.6854
   7023SM   C12 9086   3.304   2.285  17.295  0.2404  0.3147  0.1462
   7023SM  H12A 9087   3.403   2.266  17.257 -0.6574 -0.0547 -2.1905
   7023SM  H12B 9088   3.254   2.332  17.211  1.9352  0.9564 -0.5368
   7023SM   C11 9089   3.237   2.142  17.305  0.1832  0.3487  0.1504
   7023SM  H11A 9090   3.197   2.123  17.203 -0.4217  3.8608 -0.3978
   7023SM  H11B 9091   3.140   2.153  17.357 -0.1441  0.2934 -0.4307
   7023SM     P 9092   3.471   2.013  17.310 -0.1626  0.2990 -0.1452
   7023SM   O13 9093   3.572   2.087  17.390  0.2852  0.2609  0.1945
   7023SM   O14 9094   3.489   1.868  17.298 -0.3996  0.5686  0.0997
   7023SM   O11 9095   3.475   2.080  17.167 -0.0015  0.1544 -0.0180
   7023SM   O12 9096   3.321   2.042  17.367 -0.2007 -0.7001  0.1443
   7023SM   C1S 9097   3.591   2.050  17.095  0.1232 -0.0374 -0.0809
   7023SM   H1S 9098   3.597   1.944  17.062 -1.9109 -0.4774  0.8139
   7023SM   H1T 9099   3.683   2.079  17.151 -2.0974  1.3257  3.1036
   7023SM    NF 9100   3.715   2.105  16.893  0.3226  0.0304 -0.1319
   7023SM   HNF 9101   3.779   2.182  16.888  1.9805 -1.3827 -2.9878
   7023SM   C2S 9102   3.594   2.130  16.960  0.1217  0.1485  0.6280
   7023SM   H2S 9103   3.515   2.104  16.887 -0.9177 -1.0635  2.1103
   7023SM   C3S 9104   3.577   2.286  16.979 -0.1757 -0.4509 -0.5124
   7023SM   H3S 9105   3.645   2.330  17.055 -0.6707 -1.4767  0.5720
   7023SM    O3 9106   3.441   2.309  17.020 -0.0244 -0.4337 -0.1133
   7023SM   HO3 9107   3.411   2.224  17.052 -0.9366 -0.0458  0.0935
   7023SM   C4S 9108   3.588   2.363  16.843  0.7883 -0.0083 -0.7351
   7023SM   H4S 9109   3.510   2.355  16.766  1.5470 -0.9237 -1.4393
   7023SM   C5S 9110   3.697   2.446  16.823 -0.2785 -0.2567  0.0517
   7023SM   H5S 9111   3.757   2.469  16.912  1.2846 -0.8328 -0.8113
   7023SM   C6S 9112   3.713   2.534  16.698  0.8679  0.1671 -0.0170
   7023SM   H6S 9113   3.822   2.529  16.678  0.6399 -0.1616 -1.2924
   7023SM   H6T 9114   3.692   2.641  16.720 -0.9977  0.0842 -1.1644
   7023SM   C7S 9115   3.653   2.486  16.566  0.0163 -0.0992 -1.1145
   7023SM   H7S 9116   3.665   2.569  16.493  1.9720  1.5500  0.9019
   7023SM   H7T 9117   3.544   2.474  16.582 -0.3119  1.6071 -1.8005
   7023SM   C8S 9118   3.712   2.359  16.514 -0.2303 -0.8434 -0.1365
   7023SM   H8S 9119   3.698   2.266  16.573  0.2802  0.6214  2.4479
   7023SM   H8T 9120   3.820   2.381  16.498 -0.1510 -0.8037  0.4467
   7023SM   C9S 9121   3.651   2.325  16.376 -0.1144 -0.1664  0.2903
   7023SM   H9S 9122   3.626   2.411  16.310 -0.6840  0.7850  1.7170
   7023SM   H9T 9123   3.551   2.276  16.384 -0.8786  1.1956 -0.5702
   7023SM  C10S 9124   3.745   2.225  16.304 -0.8642 -0.5030  0.0844
   7023SM  H10S 9125   3.768   2.145  16.377 -2.7392 -0.1820  1.0663
   7023SM  H10T 9126   3.843   2.275  16.285 -0.3887 -1.3882  0.1267
   7023SM  C11S 9127   3.681   2.168  16.177 -0.0391 -0.6069 -0.5598
   7023SM  H11S 9128   3.676   2.256  16.108  2.3902  0.8714  1.0149
   7023SM  H11T 9129   3.580   2.126  16.196 -0.7677  1.1492 -0.3152
   7023SM  C12S 9130   3.765   2.052  16.126 -0.4862 -0.1776  0.7449
   7023SM  H12S 9131   3.777   1.979  16.209 -0.2140 -0.0164  0.8489
   7023SM  H12T 9132   3.869   2.086  16.107 -0.8060  0.4426  0.0243
   7023SM  C13S 9133   3.699   1.983  16.013  0.6726  0.1355  0.3610
   7023SM  H13S 9134   3.642   2.049  15.944  1.0948  1.0528  0.8702
   7023SM  H13T 9135   3.622   1.925  16.068  0.7171  1.4598  1.9014
   7023SM  C14S 9136   3.784   1.888  15.925 -0.5787 -0.6170  0.5636
   7023SM  H14S 9137   3.838   1.807  15.980  1.7855  0.9834  0.7416
   7023SM  H14T 9138   3.860   1.955  15.879 -0.9277 -1.6508 -1.6614
   7023SM  C15S 9139   3.694   1.814  15.828  0.4366 -0.1882  0.2360
   7023SM  H15S 9140   3.630   1.886  15.772  1.2714  0.6074  0.2810
   7023SM  H15T 9141   3.629   1.746  15.887 -2.8295  2.0224 -0.5664
   7023SM  C16S 9142   3.763   1.739  15.717 -0.4372  0.4013  0.0748
   7023SM  H16S 9143   3.828   1.665  15.769  1.0938  0.2542 -1.9092
   7023SM  H16T 9144   3.819   1.807  15.648 -1.4164 -0.8906 -2.0792
   7023SM  C17S 9145   3.679   1.647  15.631  0.2890 -0.0391 -0.0924
   7023SM  H17S 9146   3.624   1.580  15.700 -1.4437  0.2041 -1.1725
   7023SM  H17T 9147   3.743   1.582  15.567  1.5328 -1.0249  2.0618
   7023SM  C18S 9148   3.569   1.718  15.556  0.3352  0.0201 -0.2312
   7023SM  H18S 9149   3.492   1.645  15.523 -2.7572  1.4972  3.0224
   7023SM  H18T 9150   3.609   1.790  15.482  2.0029 -2.5056 -1.9723
   7023SM  H18U 9151   3.502   1.778  15.622 -1.0101  0.6090 -2.0433
   7023SM   C1F 9152   3.740   2.001  16.818  0.6997  0.0505  0.1565
   7023SM    OF 9153   3.679   1.901  16.842  0.0771 -0.0192  0.2107
   7023SM   C2F 9154   3.835   2.002  16.708  0.1103 -0.4801 -0.3449
   7023SM   H2F 9155   3.941   2.007  16.742  0.7928  1.5514 -2.4897
   7023SM   H2G 9156   3.812   2.099  16.660 -0.1067 -0.0876  0.5328
   7023SM   C3F 9157   3.825   1.881  16.614  0.0792 -0.1583  0.6253
   7023SM   H3F 9158   3.719   1.880  16.583 -0.6345  2.3770  2.6571
   7023SM   H3G 9159   3.839   1.786  16.672 -1.9556 -1.7415 -1.3356
   7023SM   C4F 9160   3.917   1.889  16.498  0.4063  0.6075  0.3015
   7023SM   H4F 9161   4.025   1.911  16.513  0.4688  1.9592 -1.7683
   7023SM   H4G 9162   3.886   1.968  16.427  1.7696  1.2540  0.3894
   7023SM   C5F 9163   3.908   1.757  16.417 -0.2069 -0.0360  0.0761
   7023SM   H5F 9164   3.949   1.777  16.316  0.2325 -0.6475  0.1311
   7023SM   H5G 9165   3.802   1.730  16.398 -0.4848  0.9426  0.1859
   7023SM   C6F 9166   3.988   1.636  16.466  0.0775  0.3262  0.3402
   7023SM   H6F 9167   3.976   1.626  16.576  0.8155 -0.1278  0.3884
   7023SM   H6G 9168   4.096   1.662  16.452  0.2540 -1.2148 -1.4932
   7023SM   C7F 9169   3.960   1.508  16.390 -0.0463  0.4847  0.4152
   7023SM   H7F 9170   3.851   1.486  16.398 -0.4804  1.3471 -2.0874
   7023SM   H7G 9171   4.017   1.423  16.431  0.8469  0.3304 -1.0597
   7023SM   C8F 9172   3.984   1.514  16.233 -0.1111 -0.0397 -0.8431
   7023SM   H8F 9173   4.094   1.517  16.219 -0.0080 -0.3821 -0.1220
   7023SM   H8G 9174   3.928   1.596  16.182 -3.3865 -1.0622  0.8273
   7023SM   C9F 9175   3.932   1.391  16.162 -0.1281 -0.1176 -0.1840
   7023SM   H9F 9176   3.840   1.356  16.214  0.8490 -1.9488  0.4039
   7023SM   H9G 9177   4.010   1.312  16.172 -0.9523 -1.1446 -1.5785
   7023SM  C10F 9178   3.893   1.413  16.017  0.0436 -0.3839  0.7241
   7023SM  H10F 9179   3.990   1.449  15.978  0.0842  0.2985  1.4338
   7023SM  H10G 9180   3.820   1.496  16.004  1.7678  0.7561 -3.0088
   7023SM  C11F 9181   3.848   1.284  15.948 -0.3581 -0.1310  0.3438
   7023SM  H11F 9182   3.737   1.276  15.957 -0.8675  4.2315  0.0980
   7023SM  H11G 9183   3.894   1.196  15.997  1.0814  0.4132  0.0331
   7023SM  C12F 9184   3.884   1.280  15.801 -0.2407 -0.0743  0.7617
   7023SM  H12F 9185   3.995   1.270  15.803 -0.1486  0.8892  1.3174
   7023SM  H12G 9186   3.836   1.366  15.750 -1.4129 -2.0268 -1.6757
   7023SM  C13F 9187   3.826   1.154  15.736  0.4095 -0.2339  0.3297
   7023SM  H13F 9188   3.717   1.173  15.727  0.2954  0.5378  2.7200
   7023SM  H13G 9189   3.852   1.075  15.809 -1.9683 -0.6234  0.8429
   7023SM  C14F 9190   3.878   1.115  15.594  0.3823 -0.0605  0.4498
   7023SM  H14F 9191   3.819   1.034  15.546  1.3317 -0.1148 -0.6561
   7023SM  H14G 9192   3.988   1.105  15.595  0.7256  2.9452  0.2759
   7023SM  C15F 9193   3.869   1.237  15.494 -0.3542  0.4714 -0.3785
   7023SM  H15F 9194   3.948   1.304  15.533 -0.5388  1.4002 -1.5204
   7023SM  H15G 9195   3.769   1.286  15.499 -0.0538  0.9778  0.8602
   7023SM  C16F 9196   3.909   1.209  15.353 -0.2801 -0.4122  0.1966
   7023SM  H16F 9197   3.943   1.103  15.347 -0.3636 -0.4096 -0.4012
   7023SM  H16G 9198   3.995   1.265  15.312  0.8414 -1.6586  0.7844
   7023SM  C17F 9199   3.798   1.210  15.256  0.7311 -0.2134 -0.5194
   7023SM  H17F 9200   3.803   1.309  15.207 -4.3587  1.0032  0.8389
   7023SM  H17G 9201   3.701   1.201  15.311  0.8974  3.3117  0.5838
   7023SM  C18F 9202   3.797   1.106  15.146  0.0345 -0.7269  0.2154
   7023SM  H18F 9203   3.718   1.136  15.074  0.5751  1.4728  0.4559
   7023SM  H18G 9204   3.789   1.007  15.196  1.4897 -0.9751  0.0218
   7023SM  C19F 9205   3.930   1.107  15.063 -0.5082 -0.3327 -0.7769
   7023SM  H19F 9206   4.008   1.069  15.132 -1.4380  0.8767  1.0338
   7023SM  H19G 9207   3.947   1.209  15.022  2.5508 -0.5405 -0.2669
   7023SM  C20F 9208   3.916   1.016  14.936 -0.8873 -0.3272  0.1468
   7023SM  H20F 9209   3.828   1.064  14.889  0.9363  1.6332 -1.5091
   7023SM  H20G 9210   3.894   0.912  14.968 -0.0399 -1.1390 -1.7290
   7023SM  C21F 9211   4.038   1.007  14.843 -0.4905 -0.5114  0.4803
   7023SM  H21F 9212   4.005   0.951  14.753 -2.2693 -0.3314  0.9807
   7023SM  H21G 9213   4.105   0.935  14.895 -1.0094 -0.1313  1.7193
   7023SM  C22F 9214   4.124   1.129  14.818 -0.5010 -0.8794  0.1288
   7023SM  H22F 9215   4.220   1.090  14.778 -0.7500 -0.2501 -1.1247
   7023SM  H22G 9216   4.160   1.165  14.917 -0.7863 -0.1587 -0.0235
   7023SM  C23F 9217   4.073   1.243  14.730 -0.3719 -0.5409 -0.3446
   7023SM  H23F 9218   4.144   1.328  14.725  0.4553 -0.9170  2.6613
   7023SM  H23G 9219   3.971   1.277  14.759 -0.2481 -0.7752  0.3935
   7023SM  H23H 9220   4.062   1.200  14.628 -1.0970  1.1151 -0.9933
   7123SM     N 9221   4.500   0.229  17.184  0.4625  1.0352 -0.2622
   7123SM   C15 9222   4.469   0.236  17.037 -0.5833  0.2989 -0.7930
   7123SM  H15A 9223   4.497   0.143  16.989 -0.3472 -0.2551  0.3726
   7123SM  H15B 9224   4.537   0.311  16.999  0.8425 -1.0987 -1.0997
   7123SM  H15C 9225   4.365   0.260  17.023 -1.4200 -0.9517  2.3197
   7123SM   C14 9226   4.419   0.118  17.249 -0.5844  0.3252 -0.0731
   7123SM  H14A 9227   4.445   0.021  17.209  1.4532  0.4663  0.7981
   7123SM  H14B 9228   4.313   0.130  17.235 -0.5675  0.7567  0.1438
   7123SM  H14C 9229   4.441   0.114  17.355  0.1148  0.2759 -0.2150
   7123SM   C13 9230   4.646   0.194  17.210 -0.4827 -0.1792 -0.3279
   7123SM  H13A 9231   4.674   0.095  17.178  0.3618  0.4194 -1.5027
   7123SM  H13B 9232   4.664   0.197  17.317  1.7725  0.7721 -0.6756
   7123SM  H13C 9233   4.707   0.272  17.168  0.1665 -0.4775  0.0409
   7123SM   C12 9234   4.467   0.364  17.249 -0.0189 -0.2973  0.4116
   7123SM  H12A 9235   4.359   0.367  17.246  0.0139  1.3995 -0.0978
   7123SM  H12B 9236   4.504   0.444  17.187  0.9595 -2.1500 -1.5400
   7123SM   C11 9237   4.512   0.379  17.398 -0.0593  1.2589  0.1801
   7123SM  H11A 9238   4.504   0.282  17.451  0.2615  1.7512  1.1736
   7123SM  H11B 9239   4.441   0.449  17.448 -0.9778  0.5973 -0.1682
   7123SM     P 9240   4.692   0.557  17.373  0.0537  0.2401 -0.0936
   7123SM   O13 9241   4.610   0.654  17.445  0.2631 -0.3056 -0.2283
   7123SM   O14 9242   4.841   0.564  17.392  0.1491  0.4176 -0.4223
   7123SM   O11 9243   4.669   0.566  17.217 -0.0972  0.1606 -0.1127
   7123SM   O12 9244   4.646   0.412  17.405 -0.5018  0.3407  0.1693
   7123SM   C1S 9245   4.744   0.497  17.113 -0.2026 -0.3872  0.2293
   7123SM   H1S 9246   4.687   0.410  17.075 -1.9067  0.1820  1.3607
   7123SM   H1T 9247   4.842   0.456  17.145 -0.8244 -1.6438  0.5625
   7123SM    NF 9248   4.835   0.524  16.878 -0.2530  0.4643 -0.1535
   7123SM   HNF 9249   4.920   0.558  16.840 -0.8852 -0.8232 -3.0682
   7123SM   C2S 9250   4.774   0.594  16.989 -0.2698  0.2172 -0.0066
   7123SM   H2S 9251   4.676   0.637  16.959 -0.5997 -0.6421 -0.2039
   7123SM   C3S 9252   4.860   0.715  17.025  0.2767 -0.7274  0.1495
   7123SM   H3S 9253   4.965   0.696  17.058  0.5106  0.2696 -0.0048
   7123SM    O3 9254   4.809   0.804  17.128  0.1357 -0.2625 -0.0242
   7123SM   HO3 9255   4.726   0.767  17.158  0.8998 -0.6636  1.6994
   7123SM   C4S 9256   4.882   0.803  16.901 -0.0314 -0.1372  0.4370
   7123SM   H4S 9257   4.800   0.870  16.870  1.1187 -0.1340 -3.0399
   7123SM   C5S 9258   5.006   0.817  16.848  1.2495  0.2030  0.2693
   7123SM   H5S 9259   5.095   0.768  16.889  0.1248 -1.7963  0.4910
   7123SM   C6S 9260   5.046   0.900  16.726 -0.0224  0.1484 -0.1576
   7123SM   H6S 9261   5.133   0.964  16.754 -0.7615  1.0385  0.1415
   7123SM   H6T 9262   4.964   0.969  16.698  0.7766  2.1581  2.1033
   7123SM   C7S 9263   5.078   0.812  16.604  0.1580 -0.6608 -0.0815
   7123SM   H7S 9264   5.000   0.733  16.594  0.3685 -0.6835 -2.0436
   7123SM   H7T 9265   5.176   0.761  16.617 -0.2001 -2.0587 -2.3183
   7123SM   C8S 9266   5.077   0.894  16.472 -0.0076  0.8190  0.4045
   7123SM   H8S 9267   4.992   0.965  16.473 -0.4901  0.3328 -1.4866
   7123SM   H8T 9268   5.063   0.822  16.388  1.7599  0.1110  0.6694
   7123SM   C9S 9269   5.203   0.975  16.445 -0.1272 -0.0472 -0.7125
   7123SM   H9S 9270   5.297   0.917  16.458 -0.8441 -1.5951 -2.0223
   7123SM   H9T 9271   5.197   1.039  16.535 -3.3580  0.2073 -0.9996
   7123SM  C10S 9272   5.203   1.057  16.314 -0.0694 -0.0818  0.0273
   7123SM  H10S 9273   5.275   1.142  16.311 -0.0898 -0.0664 -0.0178
   7123SM  H10T 9274   5.105   1.107  16.299  0.6340  0.6757 -2.5707
   7123SM  C11S 9275   5.237   0.979  16.194 -0.3017  0.0477 -0.2460
   7123SM  H11S 9276   5.156   0.906  16.170 -1.7042  1.7030 -0.7573
   7123SM  H11T 9277   5.336   0.929  16.203 -0.3140  0.1302  0.3409
   7123SM  C12S 9278   5.241   1.066  16.067  0.1824  0.1979  0.3040
   7123SM  H12S 9279   5.320   1.144  16.079  1.0726 -0.4415 -1.2107
   7123SM  H12T 9280   5.144   1.117  16.051 -0.1423  0.1649  1.9568
   7123SM  C13S 9281   5.263   0.972  15.955  0.2029 -0.4500  0.1662
   7123SM  H13S 9282   5.185   0.894  15.963  0.3713 -0.8091 -1.4309
   7123SM  H13T 9283   5.360   0.919  15.952 -0.5299 -1.8589 -3.1693
   7123SM  C14S 9284   5.262   1.039  15.812  0.5284 -0.1679 -0.1369
   7123SM  H14S 9285   5.346   1.111  15.811 -0.6753  1.3096 -0.6918
   7123SM  H14T 9286   5.159   1.081  15.802 -0.0972 -0.9980  2.1405
   7123SM  C15S 9287   5.294   0.945  15.704  0.2434  0.7598 -0.1105
   7123SM  H15S 9288   5.227   0.858  15.722  2.1688 -0.5320  1.2063
   7123SM  H15T 9289   5.398   0.907  15.716 -0.0715 -0.9912 -2.2494
   7123SM  C16S 9290   5.286   1.000  15.557 -0.5606 -0.7587  0.1263
   7123SM  H16S 9291   5.368   1.072  15.539  0.3271 -1.4714  1.1413
   7123SM  H16T 9292   5.201   1.071  15.554  1.8483  2.6467  3.4380
   7123SM  C17S 9293   5.284   0.888  15.453 -0.4111  0.6651  0.3906
   7123SM  H17S 9294   5.297   0.937  15.354  1.6836 -0.6216 -0.0159
   7123SM  H17T 9295   5.190   0.829  15.449  0.1769 -0.2490 -0.2172
   7123SM  C18S 9296   5.397   0.787  15.468 -0.5372 -0.0571  0.0675
   7123SM  H18S 9297   5.496   0.836  15.480  0.5326 -2.0303 -0.3111
   7123SM  H18T 9298   5.393   0.715  15.383 -1.9374  1.2399 -1.0196
   7123SM  H18U 9299   5.382   0.738  15.567  0.4247  0.7214  0.6030
   7123SM   C1F 9300   4.774   0.417  16.818  0.2356 -0.5271 -0.6206
   7123SM    OF 9301   4.652   0.401  16.830 -0.3449  0.2097 -0.7917
   7123SM   C2F 9302   4.851   0.332  16.731 -0.0455  0.9551  0.4748
   7123SM   H2F 9303   4.950   0.322  16.780 -0.5582  0.6253  1.4556
   7123SM   H2G 9304   4.849   0.370  16.626  0.7508 -2.8644 -1.1033
   7123SM   C3F 9305   4.776   0.192  16.709  0.8514  0.0354 -0.9243
   7123SM   H3F 9306   4.673   0.209  16.670 -0.5289 -0.7386  2.0881
   7123SM   H3G 9307   4.767   0.137  16.805  2.0723 -2.1287 -1.9739
   7123SM   C4F 9308   4.840   0.093  16.606  0.1539  0.2094  0.2231
   7123SM   H4F 9309   4.792  -0.007  16.617  1.3097 -0.3813  0.0760
   7123SM   H4G 9310   4.947   0.082  16.633 -0.2379  0.3711  1.9565
   7123SM   C5F 9311   4.823   0.130  16.454  1.1008  0.6433  0.0477
   7123SM   H5F 9312   4.858   0.234  16.438  0.6117  0.6268 -1.2184
   7123SM   H5G 9313   4.714   0.115  16.436  0.5413  1.8375  2.0638
   7123SM   C6F 9314   4.910   0.029  16.373  0.1162 -0.0760 -0.0943
   7123SM   H6F 9315   4.895  -0.072  16.416 -2.1316  0.4029  0.3626
   7123SM   H6G 9316   5.017   0.057  16.384 -0.2950  2.1554 -1.1941
   7123SM   C7F 9317   4.862   0.025  16.226 -0.7013  0.0358 -0.5590
   7123SM   H7F 9318   4.757  -0.005  16.211 -0.8180  0.5850 -0.8678
   7123SM   H7G 9319   4.921  -0.054  16.174  0.0420 -0.4952  1.0168
   7123SM   C8F 9320   4.867   0.167  16.154  0.4106 -1.0045 -0.1584
   7123SM   H8F 9321   4.950   0.220  16.205  0.3003  0.7566 -1.6854
   7123SM   H8G 9322   4.772   0.221  16.173 -0.1852 -1.8893 -0.5328
   7123SM   C9F 9323   4.893   0.165  16.007 -0.1545 -0.4932 -0.3201
   7123SM   H9F 9324   4.987   0.111  15.985  0.3762 -1.5347  3.6841
   7123SM   H9G 9325   4.908   0.273  15.984 -1.4484 -0.6952 -2.3550
   7123SM  C10F 9326   4.776   0.117  15.921 -0.5401 -0.8158  0.9757
   7123SM  H10F 9327   4.687   0.180  15.942 -0.3346 -0.4703  0.8217
   7123SM  H10G 9328   4.737   0.014  15.933 -1.6270 -0.7256 -1.1586
   7123SM  C11F 9329   4.809   0.118  15.772 -0.3985 -0.2866 -0.2820
   7123SM  H11F 9330   4.869   0.029  15.745  1.7701  1.6878 -2.5748
   7123SM  H11G 9331   4.875   0.206  15.754 -1.5586  0.4358 -1.0816
   7123SM  C12F 9332   4.683   0.153  15.681 -0.2838 -0.5075 -0.7628
   7123SM  H12F 9333   4.633   0.244  15.720  1.1432 -0.4278  1.0189
   7123SM  H12G 9334   4.620   0.061  15.687  1.7530 -1.8803  3.0128
   7123SM  C13F 9335   4.734   0.186  15.534 -0.3110  0.2771 -0.5023
   7123SM  H13F 9336   4.817   0.115  15.511 -0.8873  0.1248 -2.2988
   7123SM  H13G 9337   4.783   0.285  15.547  1.6610 -0.7569  0.4709
   7123SM  C14F 9338   4.626   0.186  15.428 -0.1522  0.4588  0.8454
   7123SM  H14F 9339   4.673   0.245  15.346  1.8124 -0.0507  1.5423
   7123SM  H14G 9340   4.535   0.236  15.466 -0.4831  0.5519 -0.0456
   7123SM  C15F 9341   4.578   0.046  15.389 -0.7096  0.1875  0.0800
   7123SM  H15F 9342   4.471   0.057  15.362 -0.3839  1.2683 -0.8052
   7123SM  H15G 9343   4.583  -0.028  15.473 -1.2992  1.8055  1.6100
   7123SM  C16F 9344   4.655   0.001  15.258 -0.1997 -0.3969  0.2611
   7123SM  H16F 9345   4.765  -0.007  15.275 -0.0055  2.1099  0.5754
   7123SM  H16G 9346   4.641   0.086  15.188 -3.3555 -0.8223  0.2710
   7123SM  C17F 9347   4.604  -0.127  15.196  0.8170  0.0062  0.4770
   7123SM  H17F 9348   4.589  -0.195  15.283 -2.5122  0.1933  0.1821
   7123SM  H17G 9349   4.679  -0.174  15.128  0.2406 -0.5709  0.2301
   7123SM  C18F 9350   4.472  -0.124  15.127  0.1287  0.4887 -0.9003
   7123SM  H18F 9351   4.387  -0.100  15.194  0.6804  0.2444 -0.1009
   7123SM  H18G 9352   4.460  -0.223  15.076  1.5490 -0.5906  0.7554
   7123SM  C19F 9353   4.465  -0.023  15.010 -0.6293  0.3516 -0.6308
   7123SM  H19F 9354   4.540  -0.055  14.935 -0.7952  0.2442 -0.7516
   7123SM  H19G 9355   4.487   0.082  15.039 -0.7600  0.3535 -0.5395
   7123SM  C20F 9356   4.334  -0.029  14.942 -0.0930 -0.8019  0.8752
   7123SM  H20F 9357   4.319   0.074  14.904 -0.3795 -0.1600  2.6009
   7123SM  H20G 9358   4.252  -0.056  15.014  0.4338 -0.4968  1.6026
   7123SM  C21F 9359   4.325  -0.124  14.823  0.0063 -0.1002  0.2757
   7123SM  H21F 9360   4.416  -0.137  14.760 -1.7880  0.3494 -2.5597
   7123SM  H21G 9361   4.251  -0.075  14.756 -0.2216  1.0728  1.3375
   7123SM  C22F 9362   4.270  -0.265  14.853  0.1864 -0.3332  1.2271
   7123SM  H22F 9363   4.185  -0.249  14.922  0.7960  0.9259  1.7059
   7123SM  H22G 9364   4.347  -0.326  14.904  0.7918 -0.2048  0.4972
   7123SM  C23F 9365   4.226  -0.332  14.720 -0.3874  0.5887  0.4197
   7123SM  H23F 9366   4.305  -0.395  14.673 -0.9377  0.4183 -0.2898
   7123SM  H23G 9367   4.173  -0.261  14.654 -0.8496  0.8486  1.0542
   7123SM  H23H 9368   4.152  -0.414  14.735 -0.1829  0.0488 -1.3534
   7223SM     N 9369   5.525   4.175  17.339  0.1620  0.3773 -0.2919
   7223SM   C15 9370   5.658   4.232  17.296  0.0997  0.8287 -0.1697
   7223SM  H15A 9371   5.705   4.276  17.383  0.1112 -1.9941  1.3493
   7223SM  H15B 9372   5.651   4.292  17.206 -1.5295 -1.2438 -1.5259
   7223SM  H15C 9373   5.713   4.142  17.272 -0.6392  0.3055  0.0592
   7223SM   C14 9374   5.435   4.285  17.377  0.7187 -0.3587 -0.0843
   7223SM  H14A 9375   5.346   4.243  17.422  0.6819 -1.2698 -0.9772
   7223SM  H14B 9376   5.386   4.341  17.298  0.2818  0.4370  0.7274
   7223SM  H14C 9377   5.473   4.353  17.453 -1.3386  0.8681 -0.0520
   7223SM   C13 9378   5.467   4.109  17.217  0.5223  0.0275 -0.5100
   7223SM  H13A 9379   5.455   4.178  17.135 -1.4810 -0.5565 -0.7523
   7223SM  H13B 9380   5.367   4.081  17.244  1.0152  0.4252  2.0106
   7223SM  H13C 9381   5.532   4.030  17.184  2.7097  0.9843  1.1612
   7223SM   C12 9382   5.544   4.082  17.455  0.3431 -0.4280 -0.3550
   7223SM  H12A 9383   5.447   4.054  17.492  0.1299  1.9297  1.0527
   7223SM  H12B 9384   5.595   4.141  17.530 -1.8496  0.2461  0.6800
   7223SM   C11 9385   5.639   3.960  17.447  0.6185  0.2832  0.3841
   7223SM  H11A 9386   5.608   3.886  17.370  1.5837  0.8750 -0.5894
   7223SM  H11B 9387   5.623   3.893  17.534 -0.9860 -2.1317 -1.6193
   7223SM     P 9388   5.894   3.909  17.405  0.3306 -0.2968  0.0707
   7223SM   O13 9389   6.018   3.991  17.406  0.0036 -0.2763 -0.1999
   7223SM   O14 9390   5.886   3.792  17.502 -0.0449 -0.2336  0.3851
   7223SM   O11 9391   5.860   3.848  17.265  0.7573  0.2132  0.5965
   7223SM   O12 9392   5.773   4.007  17.433  0.5497  0.2091 -0.1013
   7223SM   C1S 9393   5.909   3.922  17.151  0.7998 -0.0816 -0.4184
   7223SM   H1S 9394   6.018   3.910  17.137  1.1345 -0.3547  2.0062
   7223SM   H1T 9395   5.888   4.031  17.155 -1.3298 -0.4521 -0.4620
   7223SM    NF 9396   5.935   3.919  16.911  0.0579 -0.4346  0.3347
   7223SM   HNF 9397   5.918   4.008  16.871  0.5863 -0.1959  0.6244
   7223SM   C2S 9398   5.851   3.868  17.013 -0.3266  0.4030  0.2310
   7223SM   H2S 9399   5.858   3.757  17.011  0.4107  0.4188 -2.5801
   7223SM   C3S 9400   5.705   3.916  17.006 -0.2074  0.0506  0.0937
   7223SM   H3S 9401   5.711   4.027  17.009 -1.6797  0.2092 -1.1790
   7223SM    O3 9402   5.629   3.878  17.124 -0.0044  0.4173  0.0794
   7223SM   HO3 9403   5.697   3.847  17.184  3.1778  2.0634 -2.3976
   7223SM   C4S 9404   5.649   3.872  16.877 -0.6584  0.9774 -0.4112
   7223SM   H4S 9405   5.690   3.941  16.802  0.1421  0.2849 -0.6310
   7223SM   C5S 9406   5.575   3.767  16.840 -0.2283  0.0871  0.8548
   7223SM   H5S 9407   5.529   3.696  16.910  0.4661 -1.5759 -0.3140
   7223SM   C6S 9408   5.541   3.736  16.696  0.6392 -0.1501  0.1649
   7223SM   H6S 9409   5.432   3.724  16.678  1.2314 -2.6479 -2.5298
   7223SM   H6T 9410   5.585   3.637  16.671  0.3037  0.4017 -2.9387
   7223SM   C7S 9411   5.592   3.838  16.592 -0.5036 -0.3810 -0.6459
   7223SM   H7S 9412   5.702   3.849  16.605 -0.2554 -2.8941  0.0404
   7223SM   H7T 9413   5.538   3.933  16.609 -2.0932 -1.6497  2.3284
   7223SM   C8S 9414   5.563   3.790  16.449 -0.2034 -0.2929  0.5453
   7223SM   H8S 9415   5.584   3.874  16.379  0.1932  1.7086  2.9709
   7223SM   H8T 9416   5.460   3.748  16.454 -0.9178  1.2672 -0.3224
   7223SM   C9S 9417   5.663   3.675  16.403  0.7792 -0.1358  0.1985
   7223SM   H9S 9418   5.657   3.584  16.467  2.3927 -1.1300 -1.0162
   7223SM   H9T 9419   5.765   3.715  16.416 -0.1808  2.5565 -0.0173
   7223SM  C10S 9420   5.640   3.630  16.260  0.5453 -0.0714 -0.0136
   7223SM  H10S 9421   5.611   3.722  16.206 -1.3253  0.2351  1.4160
   7223SM  H10T 9422   5.553   3.561  16.259  1.2908 -1.1365  1.9945
   7223SM  C11S 9423   5.761   3.557  16.197 -0.0992  0.0539  0.2316
   7223SM  H11S 9424   5.786   3.464  16.251 -0.7330  0.6408  1.6037
   7223SM  H11T 9425   5.847   3.627  16.205  0.8339 -1.0705  0.2187
   7223SM  C12S 9426   5.734   3.532  16.053 -0.3158  0.0217 -0.0424
   7223SM  H12S 9427   5.718   3.624  15.993 -1.0687 -0.2668 -0.3035
   7223SM  H12T 9428   5.635   3.481  16.053  0.3432 -1.3512  1.9010
   7223SM  C13S 9429   5.853   3.451  15.988  0.4347 -0.4167  0.1198
   7223SM  H13S 9430   5.938   3.521  15.970  0.2177 -0.3418 -0.6749
   7223SM  H13T 9431   5.830   3.421  15.883  0.2543 -2.5822  0.7341
   7223SM  C14S 9432   5.905   3.317  16.065  0.1125 -1.2048  1.0685
   7223SM  H14S 9433   5.831   3.258  16.124  0.1453 -0.1007  2.2470
   7223SM  H14T 9434   5.975   3.372  16.131  2.1013  1.1186 -2.6054
   7223SM  C15S 9435   5.990   3.234  15.957 -0.2579  0.3030 -0.8408
   7223SM  H15S 9436   6.074   3.289  15.908 -0.6374  0.1707 -1.6550
   7223SM  H15T 9437   5.925   3.204  15.873  2.9608 -1.9180 -2.7872
   7223SM  C16S 9438   6.049   3.114  16.021  0.1975  0.6430  0.1278
   7223SM  H16S 9439   5.976   3.077  16.096  0.9680  0.5231  0.8380
   7223SM  H16T 9440   6.148   3.127  16.069  0.9882 -2.7109 -0.3229
   7223SM  C17S 9441   6.083   3.006  15.923  0.3343  0.0856 -0.7758
   7223SM  H17S 9442   6.155   3.030  15.841  0.1034  0.0026 -1.0070
   7223SM  H17T 9443   5.993   2.988  15.860 -0.2684 -1.5893  0.5174
   7223SM  C18S 9444   6.121   2.876  15.998 -0.7532  0.1856  0.4170
   7223SM  H18S 9445   6.052   2.858  16.083 -1.7164  0.2816 -0.3418
   7223SM  H18T 9446   6.228   2.873  16.028 -0.6469  0.2134  0.0478
   7223SM  H18U 9447   6.099   2.791  15.930 -0.9290 -0.2229  0.9734
   7223SM   C1F 9448   6.045   3.862  16.871 -0.1037  0.4275  0.3521
   7223SM    OF 9449   6.088   3.765  16.928  0.1321  0.2887 -0.0400
   7223SM   C2F 9450   6.109   3.924  16.748  0.3304  0.4208  0.1220
   7223SM   H2F 9451   6.219   3.910  16.742  0.3763  0.3611  1.0177
   7223SM   H2G 9452   6.103   4.035  16.751 -1.1666  0.3358  2.0496
   7223SM   C3F 9453   6.041   3.877  16.618 -0.0377  0.5664 -0.6143
   7223SM   H3F 9454   5.943   3.929  16.605 -0.1977  0.9912  1.7127
   7223SM   H3G 9455   6.037   3.766  16.620 -0.0725  0.5688  0.3749
   7223SM   C4F 9456   6.121   3.914  16.487  0.0935  0.3473  0.0580
   7223SM   H4F 9457   6.222   3.870  16.484 -0.1159 -0.0892 -0.9859
   7223SM   H4G 9458   6.132   4.025  16.488 -1.1979  0.5066 -0.5874
   7223SM   C5F 9459   6.046   3.870  16.368  0.4734  0.1946  0.7045
   7223SM   H5F 9460   5.948   3.922  16.358  0.5186  0.1856  0.1404
   7223SM   H5G 9461   6.034   3.759  16.369  1.4863  0.0313 -0.8994
   7223SM   C6F 9462   6.121   3.895  16.233  0.1328 -0.0767  0.0671
   7223SM   H6F 9463   6.214   3.834  16.234  0.7862  0.8910  1.2672
   7223SM   H6G 9464   6.152   4.000  16.216 -0.8113  0.2838  0.5110
   7223SM   C7F 9465   6.046   3.863  16.104 -0.4252 -0.0664  0.3429
   7223SM   H7F 9466   5.953   3.921  16.086 -0.3874 -0.5814 -1.8406
   7223SM   H7G 9467   6.011   3.759  16.120 -0.0421 -0.2144  0.2274
   7223SM   C8F 9468   6.133   3.882  15.981  0.0934  0.0563 -0.3047
   7223SM   H8F 9469   6.229   3.827  15.990 -0.8160 -1.4038  1.3964
   7223SM   H8G 9470   6.155   3.989  15.961  0.8658 -0.3228 -1.6359
   7223SM   C9F 9471   6.068   3.813  15.856 -0.1464 -0.3161 -0.0965
   7223SM   H9F 9472   6.021   3.714  15.875 -1.2104 -0.0257 -1.0397
   7223SM   H9G 9473   6.145   3.783  15.781  1.1569 -0.4282  1.2480
   7223SM  C10F 9474   5.954   3.890  15.780 -0.0042 -0.4204 -0.0481
   7223SM  H10F 9475   6.005   3.959  15.710 -1.0166  0.4398  0.0396
   7223SM  H10G 9476   5.902   3.946  15.860  0.7436  0.3915 -0.1133
   7223SM  C11F 9477   5.858   3.796  15.705 -0.2661  0.0576  1.1011
   7223SM  H11F 9478   5.813   3.717  15.769 -1.6151 -0.0492  0.0758
   7223SM  H11G 9479   5.919   3.734  15.635  0.3929  2.3166 -0.4458
   7223SM  C12F 9480   5.742   3.855  15.618  0.0433 -0.3780  0.3032
   7223SM  H12F 9481   5.740   3.784  15.533 -1.6887  1.6986 -1.5226
   7223SM  H12G 9482   5.772   3.953  15.575  0.5478 -0.4475  0.4822
   7223SM  C13F 9483   5.596   3.853  15.665 -0.0096 -0.0968 -0.1772
   7223SM  H13F 9484   5.561   3.750  15.687 -0.4039 -0.1075 -0.8276
   7223SM  H13G 9485   5.532   3.899  15.586 -1.6672  3.0140  2.7164
   7223SM  C14F 9486   5.574   3.943  15.794 -0.3970 -0.6699  0.0142
   7223SM  H14F 9487   5.604   4.046  15.766  0.2385 -0.8046  0.1666
   7223SM  H14G 9488   5.635   3.925  15.886 -0.6230  1.5086  0.6547
   7223SM  C15F 9489   5.430   3.933  15.854  0.0810 -0.5774 -0.6165
   7223SM  H15F 9490   5.411   3.833  15.897  1.8960 -0.3722  0.7958
   7223SM  H15G 9491   5.356   3.943  15.772 -1.7686  1.3654  1.1587
   7223SM  C16F 9492   5.398   4.035  15.965 -0.0515 -0.5719  0.6759
   7223SM  H16F 9493   5.459   4.022  16.057  1.0303  0.0193  0.0677
   7223SM  H16G 9494   5.295   4.014  16.003 -0.6293  0.0953 -0.4879
   7223SM  C17F 9495   5.406   4.185  15.923  0.4812 -0.5868  0.2616
   7223SM  H17F 9496   5.509   4.207  15.890  0.3687  0.0895  0.3442
   7223SM  H17G 9497   5.402   4.255  16.010  1.2036  0.2049 -0.3243
   7223SM  C18F 9498   5.307   4.225  15.811  0.5078  0.1866 -0.0010
   7223SM  H18F 9499   5.202   4.208  15.843  0.7724 -2.6720 -0.4374
   7223SM  H18G 9500   5.324   4.153  15.729  0.4993  1.6043 -1.2987
   7223SM  C19F 9501   5.319   4.369  15.753  0.1999  0.5051 -0.2010
   7223SM  H19F 9502   5.358   4.432  15.836  1.7767  1.5727 -1.6811
   7223SM  H19G 9503   5.222   4.412  15.721  0.0501 -0.1504 -0.6545
   7223SM  C20F 9504   5.416   4.361  15.635  0.0789 -0.0976 -0.1651
   7223SM  H20F 9505   5.372   4.307  15.549  1.4884  0.0097 -0.9866
   7223SM  H20G 9506   5.500   4.292  15.657  1.0226  1.8853  3.1419
   7223SM  C21F 9507   5.460   4.508  15.596 -0.1806 -1.0185  0.5735
   7223SM  H21F 9508   5.514   4.554  15.681 -2.1098 -0.3492  1.4916
   7223SM  H21G 9509   5.367   4.565  15.575  0.6905 -0.5143 -2.5579
   7223SM  C22F 9510   5.549   4.526  15.466 -0.8095  0.2596  0.1833
   7223SM  H22F 9511   5.634   4.454  15.465 -1.0752 -0.0517 -0.0730
   7223SM  H22G 9512   5.578   4.633  15.458 -0.3242  0.4329  3.2413
   7223SM  C23F 9513   5.469   4.485  15.348  0.2448 -0.7691  0.4265
   7223SM  H23F 9514   5.419   4.386  15.344 -1.5550  0.1214 -1.3813
   7223SM  H23G 9515   5.537   4.491  15.259 -0.6629 -1.6972 -0.3504
   7223SM  H23H 9516   5.382   4.550  15.324  0.4395 -0.5510  0.2923
   7323SM     N 9517   4.267   1.311  17.077 -0.8612 -0.5325 -0.2856
   7323SM   C15 9518   4.374   1.227  17.142 -0.7069 -0.6920  0.1234
   7323SM  H15A 9519   4.403   1.272  17.236  0.9530 -0.3653 -0.5091
   7323SM  H15B 9520   4.465   1.226  17.083 -0.0847 -1.5626  1.0531
   7323SM  H15C 9521   4.351   1.123  17.157 -0.2092 -1.1221 -1.8369
   7323SM   C14 9522   4.291   1.283  16.927 -0.2756  0.2780  0.3352
   7323SM  H14A 9523   4.306   1.177  16.914 -0.4218  0.2118  0.7144
   7323SM  H14B 9524   4.381   1.330  16.890 -0.2259 -2.0516 -2.9568
   7323SM  H14C 9525   4.211   1.313  16.861  0.6580  0.9927 -0.5069
   7323SM   C13 9526   4.133   1.255  17.118 -0.3916 -0.1070  0.3172
   7323SM  H13A 9527   4.057   1.303  17.057  1.2281 -0.1578 -1.9032
   7323SM  H13B 9528   4.114   1.275  17.222 -0.6394 -0.6430  0.3740
   7323SM  H13C 9529   4.131   1.148  17.108 -0.8411 -0.1155  0.4727
   7323SM   C12 9530   4.283   1.462  17.101  0.2959  0.0153  0.7859
   7323SM  H12A 9531   4.207   1.515  17.045 -1.3472 -2.3770  0.6019
   7323SM  H12B 9532   4.382   1.497  17.076  0.5261 -0.8660  0.4444
   7323SM   C11 9533   4.255   1.497  17.248  0.4482 -0.3580  0.0085
   7323SM  H11A 9534   4.156   1.459  17.281 -0.2932  0.8405 -0.7636
   7323SM  H11B 9535   4.249   1.607  17.264  0.2461  0.4444 -4.3260
   7323SM     P 9536   4.492   1.520  17.368  0.4664 -0.1234  0.2352
   7323SM   O13 9537   4.468   1.572  17.502  0.8087 -0.1563 -0.4231
   7323SM   O14 9538   4.612   1.438  17.342  0.5526  0.0955 -0.3319
   7323SM   O11 9539   4.492   1.642  17.268 -0.0338 -0.2585 -0.2329
   7323SM   O12 9540   4.359   1.444  17.331  0.4984 -0.1580 -0.4705
   7323SM   C1S 9541   4.577   1.654  17.157 -0.4163  0.5860  0.6214
   7323SM   H1S 9542   4.609   1.556  17.115  0.8384  1.3688 -0.3561
   7323SM   H1T 9543   4.664   1.710  17.196  0.5596  0.3372 -1.0653
   7323SM    NF 9544   4.592   1.712  16.927 -0.6286  0.1016  0.4148
   7323SM   HNF 9545   4.656   1.780  16.892 -1.6303  0.0104 -1.7889
   7323SM   C2S 9546   4.516   1.739  17.046 -0.8081  0.3432 -0.7894
   7323SM   H2S 9547   4.410   1.715  17.027 -0.9175  1.5012 -1.7461
   7323SM   C3S 9548   4.517   1.887  17.089  0.2302  0.4616 -0.3025
   7323SM   H3S 9549   4.618   1.926  17.115  0.2991  0.7722 -0.9935
   7323SM    O3 9550   4.428   1.901  17.203 -0.5584 -0.0529  0.1965
   7323SM   HO3 9551   4.426   1.815  17.246  2.6344  0.8128  2.4068
   7323SM   C4S 9552   4.471   1.968  16.968 -0.2627  0.3369  0.6122
   7323SM   H4S 9553   4.547   2.014  16.903 -0.9639  0.3136 -0.2501
   7323SM   C5S 9554   4.339   1.964  16.915  0.2406  0.3481  0.5387
   7323SM   H5S 9555   4.266   1.896  16.963 -0.9376  2.7724  2.3997
   7323SM   C6S 9556   4.300   2.042  16.792  0.4625  0.5349 -0.0681
   7323SM   H6S 9557   4.384   2.114  16.787  2.2754 -1.4769  0.3253
   7323SM   H6T 9558   4.209   2.107  16.793  1.6400  2.3192 -1.4368
   7323SM   C7S 9559   4.309   1.945  16.673 -0.5825 -0.8884  0.3981
   7323SM   H7S 9560   4.236   1.862  16.687 -1.5920  0.1479  1.5415
   7323SM   H7T 9561   4.414   1.910  16.670 -0.7993 -1.4955 -0.5581
   7323SM   C8S 9562   4.288   2.007  16.533 -0.2727 -0.0130 -0.0915
   7323SM   H8S 9563   4.347   2.101  16.523  0.2416 -0.3297 -0.0690
   7323SM   H8T 9564   4.184   2.039  16.511 -0.1737 -0.7001 -1.6870
   7323SM   C9S 9565   4.321   1.908  16.419 -0.4176 -1.0949  0.1973
   7323SM   H9S 9566   4.312   1.809  16.468 -1.4632 -0.3354  1.5877
   7323SM   H9T 9567   4.428   1.920  16.392 -0.6906  0.2898 -0.3820
   7323SM  C10S 9568   4.236   1.942  16.298  0.3700  0.1899 -0.8154
   7323SM  H10S 9569   4.252   2.045  16.259 -0.0135  1.2619  1.6541
   7323SM  H10T 9570   4.131   1.943  16.334 -0.0372  1.3659 -1.9589
   7323SM  C11S 9571   4.249   1.842  16.187  0.0327 -0.0965 -0.5705
   7323SM  H11S 9572   4.210   1.746  16.225  2.6507 -1.3799 -0.9323
   7323SM  H11T 9573   4.356   1.813  16.175  0.1945 -0.7545  1.9500
   7323SM  C12S 9574   4.171   1.870  16.055 -0.0716  0.3685  0.3297
   7323SM  H12S 9575   4.203   1.962  16.000 -0.5245 -0.6480 -1.7533
   7323SM  H12T 9576   4.062   1.874  16.074 -0.0196 -0.3988  0.7919
   7323SM  C13S 9577   4.190   1.755  15.952  0.2234  0.0778 -0.2363
   7323SM  H13S 9578   4.137   1.664  15.989 -0.3635  0.7813  0.6913
   7323SM  H13T 9579   4.297   1.725  15.941  0.2866 -0.6250  1.8175
   7323SM  C14S 9580   4.141   1.806  15.820  0.1154  0.3311 -0.0975
   7323SM  H14S 9581   4.195   1.899  15.789  0.4181  1.0668  2.4131
   7323SM  H14T 9582   4.036   1.840  15.829 -0.1680 -0.3423 -0.7971
   7323SM  C15S 9583   4.150   1.705  15.708  0.0045 -0.3438 -0.5604
   7323SM  H15S 9584   4.089   1.618  15.741 -0.3154 -0.6957 -1.9866
   7323SM  H15T 9585   4.256   1.681  15.685  0.3654  0.5040  0.1782
   7323SM  C16S 9586   4.096   1.752  15.574 -0.0029 -0.6646  0.0577
   7323SM  H16S 9587   4.167   1.797  15.502 -0.6002  0.7660  0.3132
   7323SM  H16T 9588   4.012   1.824  15.591 -0.5425 -1.0859 -0.7570
   7323SM  C17S 9589   4.040   1.633  15.494 -0.1968 -0.2408  0.2087
   7323SM  H17S 9590   3.963   1.582  15.556  1.0424 -1.0064  1.1741
   7323SM  H17T 9591   4.122   1.559  15.480 -1.8300 -2.4192  1.5276
   7323SM  C18S 9592   3.979   1.687  15.357  0.0389 -0.1853 -0.1205
   7323SM  H18S 9593   3.926   1.607  15.301  0.9549 -0.0367 -1.2308
   7323SM  H18T 9594   4.049   1.736  15.285  0.1817 -0.9591 -0.5250
   7323SM  H18U 9595   3.899   1.759  15.384 -0.1445 -0.6619  0.6337
   7323SM   C1F 9596   4.582   1.596  16.861  0.0326 -0.3571  0.5474
   7323SM    OF 9597   4.506   1.507  16.902  0.0500 -0.4985 -0.1290
   7323SM   C2F 9598   4.677   1.583  16.741  0.2971  0.1053  0.5803
   7323SM   H2F 9599   4.768   1.530  16.776  0.7538 -0.4174 -1.2897
   7323SM   H2G 9600   4.706   1.683  16.704 -1.5190 -0.3405 -2.3817
   7323SM   C3F 9601   4.601   1.500  16.633 -0.2740 -0.7028 -0.1843
   7323SM   H3F 9602   4.561   1.404  16.673 -1.2713 -0.8215 -1.4110
   7323SM   H3G 9603   4.675   1.470  16.556  2.5566 -0.4664  2.2470
   7323SM   C4F 9604   4.485   1.589  16.574 -1.0076 -0.4508 -0.1505
   7323SM   H4F 9605   4.525   1.691  16.556  0.9947 -1.2286 -0.3682
   7323SM   H4G 9606   4.409   1.594  16.655  0.1833  0.0283  0.9684
   7323SM   C5F 9607   4.413   1.539  16.456  0.3149 -0.0793 -0.3000
   7323SM   H5F 9608   4.313   1.588  16.457  0.7683  0.8662 -0.3707
   7323SM   H5G 9609   4.400   1.430  16.472 -4.4967 -0.0718 -2.3173
   7323SM   C6F 9610   4.488   1.554  16.323  0.0252 -0.1259  1.1531
   7323SM   H6F 9611   4.589   1.514  16.344 -0.0364 -0.0025  1.6983
   7323SM   H6G 9612   4.491   1.659  16.287 -0.3693 -0.2362  0.7942
   7323SM   C7F 9613   4.427   1.471  16.209 -0.4987 -0.1170  0.3212
   7323SM   H7F 9614   4.345   1.529  16.160  0.1303  0.0204 -0.5866
   7323SM   H7G 9615   4.383   1.386  16.266 -0.0114 -0.1603  0.6334
   7323SM   C8F 9616   4.526   1.420  16.102  0.0558  0.1364  0.9060
   7323SM   H8F 9617   4.604   1.353  16.144  0.3780  0.5601  0.9831
   7323SM   H8G 9618   4.582   1.506  16.061  1.4391  0.1579  2.7266
   7323SM   C9F 9619   4.449   1.342  15.983 -0.2827  0.1161 -0.8064
   7323SM   H9F 9620   4.387   1.263  16.030  0.5650 -0.8477 -1.2774
   7323SM   H9G 9621   4.516   1.288  15.914 -0.7449  1.3161 -2.2628
   7323SM  C10F 9622   4.370   1.434  15.893 -0.5030 -0.1055 -0.5721
   7323SM  H10F 9623   4.440   1.496  15.833  0.5900  0.4201  1.1671
   7323SM  H10G 9624   4.307   1.507  15.948 -0.5827  1.3695 -2.5049
   7323SM  C11F 9625   4.268   1.362  15.789 -0.5137  0.0018 -0.1368
   7323SM  H11F 9626   4.197   1.431  15.739 -1.8598 -1.7082 -0.6702
   7323SM  H11G 9627   4.222   1.277  15.844 -0.3662  1.7382  2.9182
   7323SM  C12F 9628   4.350   1.304  15.670  0.1692  0.1471  0.4123
   7323SM  H12F 9629   4.431   1.241  15.714 -1.0915 -0.1376  2.4931
   7323SM  H12G 9630   4.382   1.383  15.599  2.3332 -4.1149 -3.9475
   7323SM  C13F 9631   4.258   1.209  15.588  0.6564  0.7358 -0.4104
   7323SM  H13F 9632   4.176   1.267  15.539 -0.1131  0.3313  0.3657
   7323SM  H13G 9633   4.216   1.138  15.663 -3.2905  1.9976 -1.1789
   7323SM  C14F 9634   4.336   1.118  15.486  0.2218  0.2022 -0.0147
   7323SM  H14F 9635   4.434   1.091  15.531 -1.3899 -0.1733  3.5502
   7323SM  H14G 9636   4.351   1.170  15.389 -0.1871  0.2908 -0.0313
   7323SM  C15F 9637   4.256   0.994  15.448  0.0010 -0.2340  0.5937
   7323SM  H15F 9638   4.147   1.015  15.439  0.5919  2.9810 -0.5894
   7323SM  H15G 9639   4.270   0.922  15.531 -0.3266  1.4067  2.1265
   7323SM  C16F 9640   4.301   0.935  15.317 -0.1551 -0.1076  0.3951
   7323SM  H16F 9641   4.312   1.013  15.239 -2.1959 -0.7872 -0.6573
   7323SM  H16G 9642   4.236   0.852  15.280 -0.7456  1.5264 -2.4892
   7323SM  C17F 9643   4.445   0.875  15.323 -0.2016 -0.0894  0.1494
   7323SM  H17F 9644   4.434   0.773  15.365 -0.9719  0.2025  0.6915
   7323SM  H17G 9645   4.506   0.936  15.393 -1.3606  0.1917  0.9426
   7323SM  C18F 9646   4.521   0.878  15.193  0.2898 -0.0913 -0.7984
   7323SM  H18F 9647   4.629   0.865  15.213 -0.1345  0.1483  2.1527
   7323SM  H18G 9648   4.508   0.976  15.143  0.3829  0.4498  0.2004
   7323SM  C19F 9649   4.470   0.759  15.119 -0.3125  0.3160 -0.0487
   7323SM  H19F 9650   4.361   0.763  15.098 -0.5420  0.3037  1.0819
   7323SM  H19G 9651   4.475   0.665  15.178  0.9217 -0.6271 -1.5879
   7323SM  C20F 9652   4.520   0.741  14.979 -0.3775 -0.9341  0.9876
   7323SM  H20F 9653   4.625   0.703  14.969  0.4925  1.2649  1.1721
   7323SM  H20G 9654   4.524   0.843  14.934  2.6334 -1.2273  0.3604
   7323SM  C21F 9655   4.419   0.670  14.883  0.1437 -0.5882  0.4392
   7323SM  H21F 9656   4.320   0.719  14.879  1.0186  1.2342 -0.2404
   7323SM  H21G 9657   4.397   0.571  14.928  0.2537 -0.9741 -0.3283
   7323SM  C22F 9658   4.455   0.666  14.733 -0.0417 -0.2502 -0.1412
   7323SM  H22F 9659   4.550   0.614  14.710 -0.1397 -1.3664  1.7187
   7323SM  H22G 9660   4.468   0.770  14.697  1.4064 -1.0718 -2.1094
   7323SM  C23F 9661   4.341   0.595  14.657 -0.7197 -0.0381  0.1294
   7323SM  H23F 9662   4.368   0.583  14.550  1.2618  1.7292  0.3613
   7323SM  H23G 9663   4.249   0.653  14.678 -0.0496 -0.0813  3.9726
   7323SM  H23H 9664   4.333   0.492  14.699 -1.7225 -0.5684 -1.3051
   7423SM     N 9665   7.374   5.297  17.804  0.7404 -0.2759  0.1518
   7423SM   C15 9666   7.314   5.431  17.784  0.3479  0.5673  0.0979
   7423SM  H15A 9667   7.356   5.491  17.863 -0.6861  0.1289  1.0155
   7423SM  H15B 9668   7.207   5.427  17.802  0.5820 -4.0616  1.7817
   7423SM  H15C 9669   7.339   5.476  17.690  2.4873  2.5203  1.4875
   7423SM   C14 9670   7.518   5.304  17.811  0.3963  0.3126 -0.0928
   7423SM  H14A 9671   7.560   5.207  17.832  0.0321  0.5895  2.1152
   7423SM  H14B 9672   7.555   5.373  17.886 -1.1390  0.2435  0.7501
   7423SM  H14C 9673   7.550   5.345  17.716  0.6070  2.1771  0.7396
   7423SM   C13 9674   7.312   5.260  17.942 -0.1222 -0.1958 -0.0585
   7423SM  H13A 9675   7.322   5.153  17.956  1.7197 -0.6922 -3.9261
   7423SM  H13B 9676   7.208   5.288  17.946 -0.5108 -1.4328 -0.9269
   7423SM  H13C 9677   7.371   5.304  18.020  0.5440 -1.1286 -0.0197
   7423SM   C12 9678   7.316   5.196  17.697 -0.4808  0.7710 -0.6091
   7423SM  H12A 9679   7.213   5.182  17.727 -0.6086 -0.5943 -1.5907
   7423SM  H12B 9680   7.377   5.108  17.706 -0.5025  0.6042 -1.8788
   7423SM   C11 9681   7.304   5.217  17.546 -0.5496 -0.7056  0.5966
   7423SM  H11A 9682   7.252   5.315  17.552  2.7989  1.7850 -4.2895
   7423SM  H11B 9683   7.234   5.146  17.498 -1.1409  0.0947  0.2586
   7423SM     P 9684   7.541   5.127  17.459 -0.0268  0.2182 -0.2308
   7423SM   O13 9685   7.674   5.191  17.468 -0.4072  0.0669  0.4435
   7423SM   O14 9686   7.528   5.007  17.539  0.3711  0.1385 -0.0032
   7423SM   O11 9687   7.507   5.088  17.309 -0.1351 -0.6678 -0.0137
   7423SM   O12 9688   7.435   5.235  17.491 -0.4484 -0.7431  0.3375
   7423SM   C1S 9689   7.509   5.179  17.197  0.2407 -0.1975 -0.1793
   7423SM   H1S 9690   7.599   5.243  17.208 -0.9803  1.5583  0.0296
   7423SM   H1T 9691   7.416   5.240  17.193  0.3106  0.1119  1.8942
   7423SM    NF 9692   7.551   5.198  16.958  0.4251  0.5881 -0.1978
   7423SM   HNF 9693   7.478   5.233  16.900  0.3147 -1.8740 -1.7101
   7423SM   C2S 9694   7.519   5.100  17.065  0.2806  0.7017 -0.2523
   7423SM   H2S 9695   7.610   5.040  17.082  0.8107  1.7772  0.8324
   7423SM   C3S 9696   7.386   5.015  17.045  0.0422 -0.2914 -0.1114
   7423SM   H3S 9697   7.297   5.081  17.029 -1.8272 -2.4519  0.8172
   7423SM    O3 9698   7.349   4.927  17.146  0.0678 -0.5940  0.3959
   7423SM   HO3 9699   7.405   4.951  17.220 -1.3005  0.7880  1.0550
   7423SM   C4S 9700   7.409   4.931  16.922 -0.1843  0.6586  0.0596
   7423SM   H4S 9701   7.470   4.841  16.932  1.0659  1.6342  1.7180
   7423SM   C5S 9702   7.353   4.967  16.807  0.3073  0.3906 -0.0525
   7423SM   H5S 9703   7.289   5.056  16.802 -0.1987 -0.0227 -3.0709
   7423SM   C6S 9704   7.368   4.884  16.681  0.0299 -0.8351 -0.7032
   7423SM   H6S 9705   7.447   4.807  16.691 -1.2144 -2.1888 -0.9352
   7423SM   H6T 9706   7.387   4.955  16.597  2.1790 -0.6960 -0.1618
   7423SM   C7S 9707   7.248   4.799  16.667  0.4934  0.8242 -1.0652
   7423SM   H7S 9708   7.153   4.850  16.692  0.5983 -0.6234  3.0256
   7423SM   H7T 9709   7.242   4.723  16.748  0.6042  2.1343  0.2152
   7423SM   C8S 9710   7.250   4.718  16.537  0.2771  0.0674 -0.0837
   7423SM   H8S 9711   7.218   4.612  16.550  0.7395  0.0696  1.1925
   7423SM   H8T 9712   7.352   4.704  16.495  0.1239  0.6570 -0.6595
   7423SM   C9S 9713   7.157   4.771  16.425 -0.2416  0.7330 -0.0956
   7423SM   H9S 9714   7.186   4.878  16.411  0.3600  0.4211 -1.2933
   7423SM   H9T 9715   7.057   4.785  16.470  0.3943 -0.2256  1.7650
   7423SM  C10S 9716   7.161   4.695  16.290 -0.7287 -0.4099 -0.1126
   7423SM  H10S 9717   7.106   4.600  16.309 -0.7748 -0.4381 -0.3778
   7423SM  H10T 9718   7.267   4.676  16.265 -0.6033  2.1617 -1.8591
   7423SM  C11S 9719   7.085   4.763  16.176  0.0792 -0.0218 -0.0616
   7423SM  H11S 9720   7.123   4.863  16.149 -0.8154  0.0968 -0.9091
   7423SM  H11T 9721   6.981   4.782  16.211 -0.1685  1.3314 -1.4738
   7423SM  C12S 9722   7.087   4.668  16.055  0.2518 -0.2409 -0.0874
   7423SM  H12S 9723   7.021   4.580  16.073 -0.1486  0.6163  3.4085
   7423SM  H12T 9724   7.187   4.621  16.042  0.1990 -0.9696  1.7576
   7423SM  C13S 9725   7.057   4.737  15.926  0.0356  0.6570  0.0793
   7423SM  H13S 9726   7.119   4.826  15.901  0.4238 -0.2775 -2.7079
   7423SM  H13T 9727   6.952   4.771  15.931 -1.1950 -2.8015  0.2854
   7423SM  C14S 9728   7.051   4.634  15.810 -0.4644 -0.2165  0.8238
   7423SM  H14S 9729   6.978   4.554  15.829 -2.1220  1.1119  0.3022
   7423SM  H14T 9730   7.155   4.598  15.793  0.0500  0.9943  1.2254
   7423SM  C15S 9731   7.014   4.706  15.674  0.2629 -0.4888  0.4850
   7423SM  H15S 9732   7.091   4.779  15.641 -2.2954  1.3535 -1.9308
   7423SM  H15T 9733   6.917   4.760  15.682  0.1667 -0.5605 -0.1310
   7423SM  C16S 9734   7.005   4.606  15.553  0.4406 -0.0467 -0.0431
   7423SM  H16S 9735   6.899   4.576  15.568  0.2956  0.6419  0.3216
   7423SM  H16T 9736   7.080   4.524  15.544  2.7655  1.8942  0.4624
   7423SM  C17S 9737   7.014   4.676  15.418  0.4905 -0.1521 -0.7120
   7423SM  H17S 9738   7.099   4.747  15.414  1.5131 -1.3412 -0.3735
   7423SM  H17T 9739   6.921   4.735  15.397 -0.7844 -0.8110  2.5136
   7423SM  C18S 9740   7.023   4.577  15.299  0.2429  0.2370 -0.5127
   7423SM  H18S 9741   7.129   4.565  15.268  0.0889  1.7851 -1.8271
   7423SM  H18T 9742   6.973   4.629  15.214  0.8047  1.9572  0.1509
   7423SM  H18U 9743   6.974   4.480  15.319  2.0724 -0.4161  1.1637
   7423SM   C1F 9744   7.669   5.259  16.949  0.4564 -0.5994  0.6533
   7423SM    OF 9745   7.761   5.225  17.025 -0.0612  0.6292 -0.7877
   7423SM   C2F 9746   7.686   5.354  16.836  0.0994 -0.4736 -0.6630
   7423SM   H2F 9747   7.790   5.391  16.839  0.2078 -0.6315  3.4944
   7423SM   H2G 9748   7.621   5.442  16.860  2.8013  1.5219 -0.1475
   7423SM   C3F 9749   7.618   5.311  16.706 -0.0464  0.0051  0.7704
   7423SM   H3F 9750   7.615   5.393  16.632 -3.4409 -1.1532 -0.5685
   7423SM   H3G 9751   7.508   5.305  16.721  0.0181  0.1182  1.3250
   7423SM   C4F 9752   7.681   5.184  16.646 -0.4993 -0.1930 -0.7200
   7423SM   H4F 9753   7.681   5.106  16.724  0.6741  2.0706  1.6968
   7423SM   H4G 9754   7.781   5.223  16.619 -0.5089  3.1248  3.1019
   7423SM   C5F 9755   7.595   5.149  16.517  0.0282 -0.3170 -0.3907
   7423SM   H5F 9756   7.584   5.241  16.455  0.5410 -0.8476 -1.2936
   7423SM   H5G 9757   7.498   5.127  16.567 -1.0335  0.5899 -1.9730
   7423SM   C6F 9758   7.643   5.031  16.437  0.0104  0.0422  0.1763
   7423SM   H6F 9759   7.665   4.950  16.510  0.1566 -0.0910 -0.0149
   7423SM   H6G 9760   7.735   5.040  16.375 -0.0618  2.5304  0.3381
   7423SM   C7F 9761   7.526   4.971  16.361  0.1813 -0.3763  0.7199
   7423SM   H7F 9762   7.435   5.033  16.376 -0.3197 -0.6968 -0.8486
   7423SM   H7G 9763   7.503   4.867  16.390  2.1526 -1.4355 -1.2149
   7423SM   C8F 9764   7.574   4.955  16.212 -0.2605 -0.1268 -0.6667
   7423SM   H8F 9765   7.641   4.866  16.213  0.2219  0.1612  2.3332
   7423SM   H8G 9766   7.639   5.041  16.186  0.4782 -0.3204  0.4147
   7423SM   C9F 9767   7.473   4.934  16.101 -0.5498 -0.3099  0.0185
   7423SM   H9F 9768   7.397   5.013  16.084  0.0430  0.7371  1.9097
   7423SM   H9G 9769   7.418   4.842  16.130  1.5719 -1.4617  0.6487
   7423SM  C10F 9770   7.545   4.908  15.970 -0.1257 -0.1972 -0.0321
   7423SM  H10F 9771   7.629   4.838  15.987 -1.5345 -1.7715  0.7368
   7423SM  H10G 9772   7.603   4.994  15.929 -0.6722  0.0778 -0.2384
   7423SM  C11F 9773   7.453   4.846  15.869 -0.1110  0.6605  0.3830
   7423SM  H11F 9774   7.365   4.911  15.851  0.4999  0.9033 -2.1482
   7423SM  H11G 9775   7.418   4.752  15.917  3.0745 -0.8120  0.1129
   7423SM  C12F 9776   7.532   4.819  15.744  0.6864  0.6531  0.9673
   7423SM  H12F 9777   7.608   4.740  15.761  1.4258  1.4505  1.4225
   7423SM  H12G 9778   7.585   4.915  15.723  0.4827  0.5796  0.0474
   7423SM  C13F 9779   7.426   4.787  15.638  0.5303  0.4363  0.2612
   7423SM  H13F 9780   7.348   4.865  15.635  0.7768  0.6593 -0.4516
   7423SM  H13G 9781   7.379   4.690  15.668 -1.0289  0.2570 -2.4866
   7423SM  C14F 9782   7.492   4.765  15.504 -0.3812 -0.9881  0.0840
   7423SM  H14F 9783   7.424   4.715  15.432 -1.3423 -1.8605  1.5552
   7423SM  H14G 9784   7.581   4.705  15.533 -0.2519  0.3694  2.8449
   7423SM  C15F 9785   7.542   4.892  15.443 -0.3410 -0.5878  0.4586
   7423SM  H15F 9786   7.535   4.975  15.516 -0.9570 -0.1220 -0.1058
   7423SM  H15G 9787   7.472   4.914  15.359  0.4558 -2.1643 -0.6689
   7423SM  C16F 9788   7.680   4.889  15.387 -0.2444  0.4314 -0.2868
   7423SM  H16F 9789   7.678   4.958  15.299 -3.2727  1.7360  0.6732
   7423SM  H16G 9790   7.715   4.788  15.357  0.3338  0.3711  0.5493
   7423SM  C17F 9791   7.784   4.957  15.485  0.1932 -0.7187 -0.2330
   7423SM  H17F 9792   7.789   4.913  15.586 -1.2131  0.6846  0.4934
   7423SM  H17G 9793   7.748   5.060  15.507 -0.4031 -0.9229 -0.2252
   7423SM  C18F 9794   7.924   4.959  15.422 -0.2618 -0.2049  0.2637
   7423SM  H18F 9795   7.997   5.002  15.494  2.1202 -1.2946 -1.3805
   7423SM  H18G 9796   7.917   5.025  15.332 -1.0423  1.4844  1.5062
   7423SM  C19F 9797   7.986   4.820  15.379 -0.9356  0.3982 -0.5564
   7423SM  H19F 9798   7.922   4.752  15.319  1.9520 -1.3602 -1.8701
   7423SM  H19G 9799   8.005   4.759  15.470  2.9144 -1.9416 -2.6510
   7423SM  C20F 9800   8.131   4.822  15.315  0.4471 -0.1056  0.4055
   7423SM  H20F 9801   8.165   4.716  15.303 -0.0492 -0.3670  1.2367
   7423SM  H20G 9802   8.212   4.867  15.376  0.2456 -0.3987  0.8890
   7423SM  C21F 9803   8.123   4.894  15.176 -0.2079  0.1049  0.0281
   7423SM  H21F 9804   8.101   5.002  15.192  3.5263  0.9153  0.6815
   7423SM  H21G 9805   8.052   4.843  15.108 -2.3470  0.5783  1.7701
   7423SM  C22F 9806   8.260   4.886  15.103  0.2422  0.9681  0.2812
   7423SM  H22F 9807   8.294   4.784  15.076  1.6627  1.7171 -0.9970
   7423SM  H22G 9808   8.341   4.920  15.171 -0.8043 -0.1047  2.1252
   7423SM  C23F 9809   8.261   4.965  14.965  0.5412 -0.0180 -0.1246
   7423SM  H23F 9810   8.229   4.900  14.880  0.4456  0.0121 -0.1116
   7423SM  H23G 9811   8.360   5.001  14.931  1.0063 -0.2739  0.9296
   7423SM  H23H 9812   8.187   5.048  14.959  0.5294 -0.0836 -0.9357
   7523SM     N 9813   7.191   7.077  17.579 -0.3888  0.5519  0.1189
   7523SM   C15 9814   7.319   6.997  17.578  0.2571 -0.3127 -0.1734
   7523SM  H15A 9815   7.406   7.062  17.580  0.9311 -1.1952  1.2974
   7523SM  H15B 9816   7.323   6.930  17.493  1.0206 -0.0640 -0.3456
   7523SM  H15C 9817   7.324   6.931  17.663  1.6323 -0.0099  0.0148
   7523SM   C14 9818   7.177   7.148  17.712 -0.5393  0.2623  0.0153
   7523SM  H14A 9819   7.077   7.183  17.735 -0.5769  1.4766 -1.7832
   7523SM  H14B 9820   7.234   7.239  17.702 -0.9380  0.3615 -1.7507
   7523SM  H14C 9821   7.211   7.080  17.788 -0.4205  0.3391  0.0311
   7523SM   C13 9822   7.208   7.175  17.464  0.3293  0.0832 -0.3378
   7523SM  H13A 9823   7.175   7.140  17.367 -2.3128  0.7411  0.2554
   7523SM  H13B 9824   7.307   7.216  17.446  0.4621  0.0354  0.2518
   7523SM  H13C 9825   7.145   7.259  17.488  1.5706  0.5330  1.5711
   7523SM   C12 9826   7.067   6.999  17.556  0.2797  0.5697  0.3062
   7523SM  H12A 9827   6.984   7.060  17.524 -0.8176 -0.8271  0.3947
   7523SM  H12B 9828   7.040   6.959  17.653  3.0579  1.5213  1.5762
   7523SM   C11 9829   7.077   6.890  17.435  0.3025 -0.4051 -0.2379
   7523SM  H11A 9830   7.088   6.948  17.341 -0.4540  1.3209  0.6830
   7523SM  H11B 9831   6.977   6.842  17.439  0.3240 -0.3685  2.1402
   7523SM     P 9832   7.192   6.674  17.354  0.1746 -0.0707  0.0804
   7523SM   O13 9833   7.300   6.585  17.389  0.0159  0.5283  0.4151
   7523SM   O14 9834   7.060   6.605  17.323  0.1666 -0.6018  0.7038
   7523SM   O11 9835   7.239   6.768  17.234  0.2611  0.0988 -0.0821
   7523SM   O12 9836   7.167   6.782  17.467 -0.3787  0.4786  0.7149
   7523SM   C1S 9837   7.295   6.713  17.110  0.2803 -0.5406 -0.7012
   7523SM   H1S 9838   7.351   6.619  17.128 -0.3731 -0.8747 -0.3542
   7523SM   H1T 9839   7.383   6.774  17.080 -0.0953  0.9155  0.9898
   7523SM    NF 9840   7.276   6.651  16.871  0.4707 -0.0448  0.1316
   7523SM   HNF 9841   7.248   6.704  16.791 -3.0519  0.4735  1.5253
   7523SM   C2S 9842   7.197   6.679  16.993  0.1187 -0.4358 -0.4134
   7523SM   H2S 9843   7.150   6.586  17.031  1.9601 -1.0229  0.5801
   7523SM   C3S 9844   7.098   6.796  16.962  0.9020 -0.3416 -0.6046
   7523SM   H3S 9845   7.164   6.863  16.903 -0.8002  0.3937 -1.7418
   7523SM    O3 9846   7.042   6.869  17.070  0.1888  1.0435  0.1815
   7523SM   HO3 9847   7.086   6.840  17.150 -0.0819  2.3346  0.8194
   7523SM   C4S 9848   6.995   6.743  16.862 -0.4817 -0.2638 -0.5288
   7523SM   H4S 9849   7.022   6.755  16.756  1.8586  0.4720  0.0768
   7523SM   C5S 9850   6.872   6.695  16.893  0.4822  0.1535  0.3278
   7523SM   H5S 9851   6.838   6.690  16.997 -0.2068  0.3911  0.1128
   7523SM   C6S 9852   6.776   6.648  16.784  0.3558  0.1687 -1.0318
   7523SM   H6S 9853   6.719   6.739  16.753 -2.2978 -1.2511 -0.5722
   7523SM   H6T 9854   6.723   6.557  16.819  2.4407 -1.1334 -1.0849
   7523SM   C7S 9855   6.841   6.616  16.648  0.3115  0.0690  0.7643
   7523SM   H7S 9856   6.920   6.538  16.645  1.2829  0.9996 -3.2094
   7523SM   H7T 9857   6.895   6.706  16.612 -0.1512  1.1960  2.7613
   7523SM   C8S 9858   6.731   6.571  16.551  0.2475  0.0017  0.3421
   7523SM   H8S 9859   6.642   6.638  16.546 -0.0553 -0.4484 -0.4473
   7523SM   H8T 9860   6.690   6.472  16.581  0.3702 -1.3930 -3.5816
   7523SM   C9S 9861   6.776   6.547  16.406 -0.4490 -0.1998 -0.5857
   7523SM   H9S 9862   6.868   6.485  16.413  1.1242  2.1384  0.3285
   7523SM   H9T 9863   6.807   6.647  16.368 -0.6181  0.7252  1.5834
   7523SM  C10S 9864   6.664   6.488  16.318 -0.2919 -0.6591 -0.1055
   7523SM  H10S 9865   6.580   6.560  16.313  0.5304  0.4473  1.3744
   7523SM  H10T 9866   6.615   6.400  16.365 -0.6787 -1.6824 -2.3074
   7523SM  C11S 9867   6.704   6.437  16.177 -0.1964  0.1343  0.3896
   7523SM  H11S 9868   6.761   6.342  16.188  0.8568  0.5279 -1.1964
   7523SM  H11T 9869   6.775   6.508  16.129 -0.7332  1.2227  1.1745
   7523SM  C12S 9870   6.583   6.408  16.080 -1.0043 -1.1329  0.0620
   7523SM  H12S 9871   6.537   6.506  16.059  1.1595 -0.2643 -0.9407
   7523SM  H12T 9872   6.505   6.356  16.140 -1.5801 -1.5278 -0.9881
   7523SM  C13S 9873   6.616   6.320  15.964 -0.4853  0.5712  0.5131
   7523SM  H13S 9874   6.641   6.215  15.990  1.4160  0.7854 -0.2836
   7523SM  H13T 9875   6.711   6.362  15.923  0.5219  2.0122  3.9722
   7523SM  C14S 9876   6.515   6.329  15.849  0.4664 -0.2014  0.3038
   7523SM  H14S 9877   6.499   6.435  15.821 -1.4854 -0.3279  0.7885
   7523SM  H14T 9878   6.418   6.291  15.886  1.3992 -1.7616  1.2749
   7523SM  C15S 9879   6.573   6.260  15.721 -0.0015  0.4785  0.0002
   7523SM  H15S 9880   6.570   6.150  15.736 -0.2271  0.2052 -1.8142
   7523SM  H15T 9881   6.682   6.273  15.704  0.4247 -0.4771  1.7973
   7523SM  C16S 9882   6.497   6.294  15.592  0.1759  0.2781 -0.2731
   7523SM  H16S 9883   6.507   6.403  15.576 -2.3316  0.2759 -2.5278
   7523SM  H16T 9884   6.388   6.274  15.583  0.3179 -0.3787 -0.6168
   7523SM  C17S 9885   6.569   6.229  15.477  0.2121  0.4431  0.2422
   7523SM  H17S 9886   6.567   6.120  15.496  0.6248  0.2587 -0.7172
   7523SM  H17T 9887   6.675   6.258  15.462 -0.2880  1.1860 -2.7091
   7523SM  C18S 9888   6.514   6.247  15.341 -0.4306  0.2226 -0.1134
   7523SM  H18S 9889   6.543   6.347  15.300 -1.8581  0.9738  0.6264
   7523SM  H18T 9890   6.403   6.244  15.336 -0.5932 -0.4195  2.5932
   7523SM  H18U 9891   6.550   6.169  15.271  1.0443  0.8753 -0.1090
   7523SM   C1F 9892   7.354   6.549  16.862  0.3155  0.8203 -0.2237
   7523SM    OF 9893   7.344   6.456  16.940  0.1426  0.4675 -0.3364
   7523SM   C2F 9894   7.438   6.546  16.743  0.0665  0.0865  0.2668
   7523SM   H2F 9895   7.475   6.650  16.730 -0.6488  0.2151 -0.8800
   7523SM   H2G 9896   7.374   6.549  16.653  0.1737 -0.6481  0.1662
   7523SM   C3F 9897   7.545   6.442  16.725  0.0515  1.2825  0.0104
   7523SM   H3F 9898   7.487   6.349  16.712  1.6212  0.0021  1.6665
   7523SM   H3G 9899   7.606   6.440  16.819  1.1493 -1.1417 -0.6831
   7523SM   C4F 9900   7.636   6.467  16.613  0.5163 -0.3494 -0.0122
   7523SM   H4F 9901   7.740   6.430  16.630  1.8335  1.7930 -2.5615
   7523SM   H4G 9902   7.638   6.577  16.594 -1.9437 -0.3652 -0.7108
   7523SM   C5F 9903   7.579   6.400  16.483  0.0672  0.1049 -0.0764
   7523SM   H5F 9904   7.480   6.439  16.451  0.2459  0.5123 -0.1452
   7523SM   H5G 9905   7.568   6.290  16.491  1.0026 -0.0862 -1.1262
   7523SM   C6F 9906   7.664   6.429  16.355  0.0113 -0.4681 -0.5994
   7523SM   H6F 9907   7.763   6.379  16.363  0.5795  0.5415 -1.0861
   7523SM   H6G 9908   7.684   6.539  16.354  0.6716 -0.5323  1.3595
   7523SM   C7F 9909   7.586   6.371  16.234 -0.0417  0.3640 -0.1542
   7523SM   H7F 9910   7.478   6.398  16.229 -0.4692 -0.8124  1.6174
   7523SM   H7G 9911   7.574   6.261  16.249  0.1248  0.6945  3.3149
   7523SM   C8F 9912   7.649   6.397  16.098 -0.0459  0.0226  0.2401
   7523SM   H8F 9913   7.756   6.371  16.086 -0.3255 -0.2524 -2.2693
   7523SM   H8G 9914   7.647   6.507  16.087 -0.0611  0.3115  2.6128
   7523SM   C9F 9915   7.569   6.327  15.981  0.1813 -0.3549 -0.4429
   7523SM   H9F 9916   7.606   6.382  15.891  1.1143 -0.0101  0.1407
   7523SM   H9G 9917   7.458   6.338  15.984  0.2676  0.3412  0.8595
   7523SM  C10F 9918   7.601   6.181  15.975  0.3787 -0.7348 -0.8066
   7523SM  H10F 9919   7.557   6.126  16.060 -2.3589 -0.4362 -1.9107
   7523SM  H10G 9920   7.711   6.170  15.986  0.4730 -1.2760 -2.0315
   7523SM  C11F 9921   7.552   6.109  15.847 -0.7883  0.0559 -0.6540
   7523SM  H11F 9922   7.559   6.176  15.758 -0.5890  1.5612  0.4505
   7523SM  H11G 9923   7.444   6.091  15.866 -0.2617 -0.8742  1.8184
   7523SM  C12F 9924   7.619   5.977  15.810 -0.4533  0.0527  0.2277
   7523SM  H12F 9925   7.727   6.002  15.813 -0.4184 -0.0445 -0.1529
   7523SM  H12G 9926   7.598   5.937  15.708  0.5764  0.3510 -0.1098
   7523SM  C13F 9927   7.587   5.863  15.904 -0.6746  0.2215 -0.1461
   7523SM  H13F 9928   7.565   5.914  16.000  2.9998  1.4040  0.2235
   7523SM  H13G 9929   7.676   5.803  15.934  0.0114  0.6243 -1.2985
   7523SM  C14F 9930   7.463   5.774  15.876 -0.2667  0.0117 -1.3454
   7523SM  H14F 9931   7.463   5.727  15.775  1.0015  1.8129 -2.2433
   7523SM  H14G 9932   7.372   5.836  15.864 -0.3107 -0.2943 -2.7760
   7523SM  C15F 9933   7.432   5.660  15.984  0.1290  0.2233  0.1764
   7523SM  H15F 9934   7.517   5.589  15.981  0.6736  0.9014 -0.9206
   7523SM  H15G 9935   7.343   5.608  15.943 -0.1945  0.6664  0.3060
   7523SM  C16F 9936   7.405   5.704  16.128 -0.2884  0.1031  0.5879
   7523SM  H16F 9937   7.492   5.758  16.170  0.2075  0.5936 -1.0199
   7523SM  H16G 9938   7.389   5.611  16.187  3.0912  0.5600  2.4976
   7523SM  C17F 9939   7.289   5.796  16.159  0.7863 -0.5209 -0.0551
   7523SM  H17F 9940   7.313   5.896  16.116  0.1458 -0.5411 -0.4798
   7523SM  H17G 9941   7.270   5.808  16.267 -2.5545 -2.6544 -0.2545
   7523SM  C18F 9942   7.149   5.735  16.111  0.2613 -0.2088  0.3059
   7523SM  H18F 9943   7.144   5.637  16.164  3.6733 -0.9009 -0.3993
   7523SM  H18G 9944   7.143   5.722  16.001 -1.2118 -0.5017  0.3974
   7523SM  C19F 9945   7.028   5.826  16.141 -0.4563  0.8367 -0.1791
   7523SM  H19F 9946   7.060   5.922  16.095  0.7361  0.4566 -0.1666
   7523SM  H19G 9947   7.003   5.842  16.248 -0.4667  1.3865 -0.2578
   7523SM  C20F 9948   6.909   5.797  16.057  0.5198  0.5385 -0.2187
   7523SM  H20F 9949   6.917   5.831  15.951 -0.6481 -0.0275 -0.5122
   7523SM  H20G 9950   6.824   5.859  16.094 -0.5222  0.5552 -2.4372
   7523SM  C21F 9951   6.859   5.655  16.062 -0.1510  0.2505  0.7219
   7523SM  H21F 9952   6.866   5.611  16.164 -3.8334  0.1064  1.0572
   7523SM  H21G 9953   6.917   5.579  16.007 -0.4711 -1.3060  2.4441
   7523SM  C22F 9954   6.709   5.638  16.024 -0.0202 -0.2589 -0.0978
   7523SM  H22F 9955   6.706   5.662  15.915  1.0240 -0.1733 -0.1133
   7523SM  H22G 9956   6.645   5.719  16.066 -0.5964 -0.1045 -1.2358
   7523SM  C23F 9957   6.651   5.506  16.063 -0.3012 -0.0743 -0.1464
   7523SM  H23F 9958   6.708   5.426  16.010 -0.4618  0.3362 -0.9570
   7523SM  H23G 9959   6.549   5.500  16.020 -0.2316  2.3579 -0.7864
   7523SM  H23H 9960   6.655   5.496  16.174  2.9296  3.8675  0.3201
   7623SM     N 9961   0.870   6.655  17.713 -0.2988  0.7956 -0.3441
   7623SM   C15 9962   0.984   6.736  17.768  0.5596  0.1516  0.0347
   7623SM  H15A 9963   0.982   6.833  17.723 -0.9968  0.5800  0.9297
   7623SM  H15B 9964   1.078   6.687  17.745  0.2618 -0.9401  0.9874
   7623SM  H15C 9965   0.979   6.747  17.876 -1.9796 -0.4623  0.0617
   7623SM   C14 9966   0.874   6.517  17.774 -0.4424  0.5259  0.1069
   7623SM  H14A 9967   0.793   6.462  17.729 -1.1525  1.0400  0.7279
   7623SM  H14B 9968   0.867   6.515  17.882 -0.5701 -3.0455  0.1430
   7623SM  H14C 9969   0.968   6.470  17.750 -0.6810 -0.4927  1.0428
   7623SM   C13 9970   0.756   6.737  17.755 -0.0529  0.8481 -0.4349
   7623SM  H13A 9971   0.758   6.840  17.724 -0.8084  0.6974 -1.0109
   7623SM  H13B 9972   0.741   6.729  17.862 -1.1687  2.9640 -0.3865
   7623SM  H13C 9973   0.673   6.691  17.703  0.9160 -0.3428 -0.9738
   7623SM   C12 9974   0.891   6.647  17.559  0.4096 -0.6152  0.4066
   7623SM  H12A 9975   0.990   6.606  17.548  1.4387  1.9782 -1.0962
   7623SM  H12B 9976   0.895   6.749  17.523 -0.1912 -0.8642 -0.3921
   7623SM   C11 9977   0.785   6.569  17.473 -0.8818  0.2801 -0.2524
   7623SM  H11A 9978   0.833   6.576  17.373  3.1575  1.1987  1.5478
   7623SM  H11B 9979   0.686   6.619  17.468 -0.3182  1.3336 -2.2564
   7623SM     P 9980   0.871   6.329  17.479 -0.6181  0.0684  0.0919
   7623SM   O13 9981   1.003   6.393  17.487 -0.1184  1.2143  0.1045
   7623SM   O14 9982   0.840   6.209  17.560  0.2115 -0.1542 -0.0459
   7623SM   O11 9983   0.842   6.286  17.332 -0.1708 -0.4140 -0.4267
   7623SM   O12 9984   0.766   6.434  17.515 -0.2901 -0.1768 -0.2662
   7623SM   C1S 9985   0.704   6.272  17.291 -0.5405 -0.1183  0.5402
   7623SM   H1S 9986   0.639   6.358  17.316  1.7539  2.2744 -1.0990
   7623SM   H1T 9987   0.666   6.180  17.341 -0.7183  0.0922  0.7918
   7623SM    NF 9988   0.546   6.242  17.117  0.4283 -0.2887 -0.3376
   7623SM   HNF 9989   0.485   6.164  17.130  3.0972 -2.2597  1.3316
   7623SM   C2S 9990   0.695   6.245  17.137  0.8311 -0.7746  0.4010
   7623SM   H2S 9991   0.750   6.319  17.075  0.3304 -1.6472 -1.1224
   7623SM   C3S 9992   0.759   6.113  17.098  0.0126 -0.8234  0.2956
   7623SM   H3S 9993   0.707   6.026  17.144  1.9312 -1.2679  1.7681
   7623SM    O3 9994   0.891   6.108  17.141 -0.1192 -0.2197  0.1125
   7623SM   HO3 9995   0.901   6.187  17.195 -0.0039 -0.0004 -0.2283
   7623SM   C4S 9996   0.759   6.082  16.947  0.7073 -0.2650 -0.6972
   7623SM   H4S 9997   0.800   6.163  16.886 -0.5930  1.0493  0.1301
   7623SM   C5S 9998   0.711   5.968  16.897 -0.2680 -0.3085 -0.1872
   7623SM   H5S 9999   0.650   5.909  16.967  0.2666 -0.1753  0.4012
   7623SM   C6S10000   0.705   5.931  16.751 -0.2568 -1.2291 -0.2205
   7623SM   H6S10001   0.602   5.935  16.710 -0.8571  0.0066  1.3101
   7623SM   H6T10002   0.737   5.825  16.745  1.3849 -0.9464  2.2058
   7623SM   C7S10003   0.793   6.017  16.656 -0.1082  0.5577 -0.5815
   7623SM   H7S10004   0.902   6.010  16.674  0.1180  2.4477 -0.9790
   7623SM   H7T10005   0.765   6.124  16.668 -0.8745  0.7223 -3.2136
   7623SM   C8S10006   0.780   5.977  16.514 -0.3464 -0.0805 -0.4805
   7623SM   H8S10007   0.687   6.002  16.459 -0.9825  0.3258  0.7308
   7623SM   H8T10008   0.787   5.866  16.510  0.2692 -0.0105 -1.6693
   7623SM   C9S10009   0.896   6.019  16.428 -0.6785 -0.2023 -0.5503
   7623SM   H9S10010   0.986   5.963  16.461 -1.7235 -2.1579 -0.8474
   7623SM   H9T10011   0.894   6.130  16.432  0.9317 -0.1755  0.2066
   7623SM  C10S10012   0.865   5.986  16.282  0.2247 -0.4809 -0.0234
   7623SM  H10S10013   0.775   6.040  16.247  0.9195  0.9341  0.2819
   7623SM  H10T10014   0.860   5.876  16.276  0.8268 -0.5319  0.3422
   7623SM  C11S10015   0.977   6.027  16.185  0.1581 -0.5974 -1.1902
   7623SM  H11S10016   1.075   5.988  16.222  1.0235  2.0575 -0.4976
   7623SM  H11T10017   0.975   6.138  16.188  0.0129 -0.5811  2.2554
   7623SM  C12S10018   0.960   5.978  16.043  0.0652 -0.2116 -0.7505
   7623SM  H12S10019   0.855   5.944  16.031  0.6443 -1.5583 -2.5119
   7623SM  H12T10020   1.015   5.885  16.019  0.7995  0.0941 -0.2679
   7623SM  C13S10021   0.986   6.087  15.929  0.0732  0.1945  0.4268
   7623SM  H13S10022   1.087   6.130  15.947 -0.2057  1.1499 -0.1882
   7623SM  H13T10023   0.905   6.160  15.948 -0.7193  0.1245 -2.2619
   7623SM  C14S10024   0.964   6.025  15.789  0.5632 -0.1296 -0.8738
   7623SM  H14S10025   0.975   5.915  15.800 -1.0306 -0.2118  0.1290
   7623SM  H14T10026   1.050   6.044  15.721  0.2468 -2.3550 -1.9911
   7623SM  C15S10027   0.842   6.076  15.712 -0.1175 -0.8815 -0.5501
   7623SM  H15S10028   0.828   6.184  15.733 -0.5774 -0.9457 -0.5094
   7623SM  H15T10029   0.749   6.025  15.747 -1.1865 -0.4488 -2.5889
   7623SM  C16S10030   0.858   6.076  15.556 -0.2222 -0.2821 -0.3418
   7623SM  H16S10031   0.864   5.968  15.528  1.4063  0.1145 -1.7115
   7623SM  H16T10032   0.941   6.133  15.508 -1.4531  0.5839 -1.5069
   7623SM  C17S10033   0.724   6.131  15.495  0.0418  0.4840 -0.7791
   7623SM  H17S10034   0.692   6.222  15.551 -2.0546 -1.2187  0.9647
   7623SM  H17T10035   0.654   6.047  15.513  0.1238  0.3581 -1.0552
   7623SM  C18S10036   0.737   6.163  15.348 -0.3043  0.2423 -0.2018
   7623SM  H18S10037   0.754   6.072  15.286 -0.9875 -0.4213  0.5620
   7623SM  H18T10038   0.817   6.239  15.337  1.5016 -1.2171  1.9047
   7623SM  H18U10039   0.641   6.196  15.304 -1.3295  0.2955  1.9294
   7623SM   C1F10040   0.493   6.357  17.086  0.1673 -0.8301 -0.2580
   7623SM    OF10041   0.557   6.463  17.114 -0.1876  0.2825  0.0211
   7623SM   C2F10042   0.351   6.347  17.024 -0.0109  0.1101  0.0721
   7623SM   H2F10043   0.275   6.386  17.095  2.5287  0.5765  2.7587
   7623SM   H2G10044   0.339   6.241  16.992 -2.0456 -0.2532  1.8402
   7623SM   C3F10045   0.336   6.446  16.909 -0.3283 -0.2874  0.3787
   7623SM   H3F10046   0.378   6.543  16.943 -0.8776 -0.1719  0.7425
   7623SM   H3G10047   0.227   6.459  16.889 -0.2184  0.6632  0.3466
   7623SM   C4F10048   0.398   6.390  16.776  0.3251  0.6365  0.0165
   7623SM   H4F10049   0.347   6.293  16.758 -1.2201  1.0886  1.6544
   7623SM   H4G10050   0.507   6.369  16.783  0.6214  0.2994 -3.5762
   7623SM   C5F10051   0.374   6.479  16.652  0.4739  0.0195  0.1742
   7623SM   H5F10052   0.417   6.580  16.663  1.6518 -0.2667 -1.4530
   7623SM   H5G10053   0.270   6.484  16.615  0.6844  0.9573 -0.3070
   7623SM   C6F10054   0.436   6.422  16.517 -0.3594  0.1995 -0.1654
   7623SM   H6F10055   0.536   6.386  16.549  0.0160  1.1557 -0.2466
   7623SM   H6G10056   0.445   6.497  16.435  1.3752  0.4493  0.2262
   7623SM   C7F10057   0.365   6.296  16.473 -0.6619 -0.3407 -0.1947
   7623SM   H7F10058   0.262   6.319  16.439 -1.4753  2.3067  3.4229
   7623SM   H7G10059   0.351   6.217  16.550 -2.1091  0.2865  0.2138
   7623SM   C8F10060   0.440   6.223  16.356  0.3537  0.1343  0.2506
   7623SM   H8F10061   0.542   6.196  16.389  1.7661  4.0447 -0.4735
   7623SM   H8G10062   0.455   6.295  16.273 -0.6313 -0.1514 -0.1984
   7623SM   C9F10063   0.361   6.108  16.293  0.5645 -0.4351 -0.1789
   7623SM   H9F10064   0.251   6.121  16.284  0.5933 -1.3192 -2.4430
   7623SM   H9G10065   0.366   6.026  16.368 -0.2724 -2.2560 -2.0176
   7623SM  C10F10066   0.417   6.051  16.163  0.0720 -0.1409 -0.4736
   7623SM  H10F10067   0.517   6.010  16.188 -0.2231 -0.8444 -0.4326
   7623SM  H10G10068   0.429   6.128  16.084  1.6032  1.3409  1.1285
   7623SM  C11F10069   0.331   5.938  16.111  0.0080  0.1647  0.3306
   7623SM  H11F10070   0.230   5.982  16.093  0.2813  0.7984  0.3206
   7623SM  H11G10071   0.330   5.863  16.194 -0.2999  1.8468  1.9187
   7623SM  C12F10072   0.373   5.872  15.982 -0.0813 -0.1394 -0.2218
   7623SM  H12F10073   0.478   5.841  16.002  0.0005  1.5765  2.5377
   7623SM  H12G10074   0.377   5.949  15.902 -2.7522  0.6133  0.2762
   7623SM  C13F10075   0.300   5.742  15.937 -0.9629  0.2413 -0.6384
   7623SM  H13F10076   0.190   5.757  15.948 -1.2248 -1.5015 -0.5621
   7623SM  H13G10077   0.328   5.652  15.995  0.1751 -0.4433 -2.1781
   7623SM  C14F10078   0.331   5.708  15.791 -0.4661  0.2640  0.9006
   7623SM  H14F10079   0.439   5.687  15.776 -1.0054 -2.1901  0.0740
   7623SM  H14G10080   0.303   5.797  15.731  0.9137  0.5840  0.6962
   7623SM  C15F10081   0.250   5.603  15.720  0.4601  0.3583 -0.9543
   7623SM  H15F10082   0.253   5.498  15.755  2.1406  0.6033 -0.2867
   7623SM  H15G10083   0.282   5.612  15.614  1.8279  1.6973 -0.4686
   7623SM  C16F10084   0.099   5.641  15.723 -0.6788  0.5021  0.6106
   7623SM  H16F10085   0.099   5.747  15.691  0.6793  0.2023 -0.4316
   7623SM  H16G10086   0.044   5.622  15.818  0.1230 -0.0441  0.9793
   7623SM  C17F10087   0.025   5.562  15.612  0.5397  0.3939  0.0801
   7623SM  H17F10088  -0.081   5.581  15.639  0.0782 -0.5620 -0.9951
   7623SM  H17G10089   0.046   5.452  15.614 -0.3750  0.2180  0.6207
   7623SM  C18F10090   0.051   5.613  15.475  0.2842 -0.2944 -0.1317
   7623SM  H18F10091   0.153   5.587  15.441 -0.2608 -0.9643 -1.3443
   7623SM  H18G10092   0.042   5.724  15.468 -0.3616 -0.3521 -0.2951
   7623SM  C19F10093  -0.055   5.566  15.377 -0.1849 -0.2177 -0.2117
   7623SM  H19F10094  -0.023   5.610  15.280  2.4410 -3.7539 -1.1675
   7623SM  H19G10095  -0.157   5.602  15.403  0.1596  0.1709  0.6236
   7623SM  C20F10096  -0.059   5.414  15.364 -0.0883  0.7975 -0.2038
   7623SM  H20F10097  -0.145   5.383  15.301  0.8958  0.5198 -1.4504
   7623SM  H20G10098  -0.077   5.381  15.469  0.0683  0.6328 -0.2274
   7623SM  C21F10099   0.076   5.342  15.311 -0.0635  0.1963 -0.4524
   7623SM  H21F10100   0.068   5.232  15.296  1.7499 -0.2757  1.4791
   7623SM  H21G10101   0.156   5.346  15.388  1.3131 -0.2120 -1.8176
   7623SM  C22F10102   0.133   5.407  15.188  0.3532 -0.5212 -0.6076
   7623SM  H22F10103   0.151   5.513  15.215 -0.1080 -0.8772  1.2492
   7623SM  H22G10104   0.047   5.426  15.120 -0.4466 -0.3448  0.4244
   7623SM  C23F10105   0.251   5.337  15.119 -0.2870 -0.3521 -0.1482
   7623SM  H23F10106   0.344   5.354  15.177  1.4171 -2.3158 -2.1390
   7623SM  H23G10107   0.257   5.387  15.020 -2.2468  0.5298  0.1301
   7623SM  H23H10108   0.218   5.232  15.107 -0.5878 -0.4956  1.6190
   7723SM     N10109   6.601   2.619  17.509  0.0081  0.4938 -0.4559
   7723SM   C1510110   6.453   2.630  17.522  0.1535  0.9360 -0.1648
   7723SM  H15A10111   6.410   2.571  17.443 -0.7294  0.4677  0.6400
   7723SM  H15B10112   6.418   2.732  17.518 -1.9268  0.3841  1.5013
   7723SM  H15C10113   6.419   2.589  17.616  1.9327  0.9667  0.5297
   7723SM   C1410114   6.638   2.691  17.383  0.1451 -0.0205  0.1215
   7723SM  H14A10115   6.614   2.795  17.397 -0.6500 -0.3873  1.6775
   7723SM  H14B10116   6.589   2.650  17.296 -2.9623 -0.6273  2.0177
   7723SM  H14C10117   6.743   2.668  17.368  0.4391 -0.3394  2.4026
   7723SM   C1310118   6.667   2.700  17.622  0.3782  0.3396 -0.2952
   7723SM  H13A10119   6.774   2.706  17.616  0.5140 -0.8855  0.6393
   7723SM  H13B10120   6.637   2.667  17.720  1.7923  3.3420  1.2723
   7723SM  H13C10121   6.631   2.802  17.617 -0.1125  0.2218  0.6699
   7723SM   C1210122   6.650   2.475  17.502 -0.2274 -0.5295  0.2860
   7723SM  H12A10123   6.580   2.416  17.444 -0.3487  0.7057 -0.8663
   7723SM  H12B10124   6.646   2.446  17.606 -0.3511  2.2051  1.1405
   7723SM   C1110125   6.802   2.449  17.452  0.0995  0.4736 -0.2505
   7723SM  H11A10126   6.821   2.341  17.468 -3.5605 -0.3128 -0.3775
   7723SM  H11B10127   6.872   2.501  17.521  1.6917 -1.2666 -0.4874
   7723SM     P10128   6.977   2.522  17.278 -0.0652  0.0163  0.0454
   7723SM   O1310129   6.999   2.660  17.322 -0.1870 -0.8443  0.0555
   7723SM   O1410130   7.072   2.412  17.317  0.0394 -0.1060  0.6002
   7723SM   O1110131   6.964   2.529  17.123 -0.1304 -0.2792 -0.3623
   7723SM   O1210132   6.825   2.479  17.313  0.2263  0.3007  0.1900
   7723SM   C1S10133   6.861   2.613  17.063  0.6550 -0.5546  0.6367
   7723SM   H1S10134   6.889   2.720  17.076 -0.3111 -0.3197  0.8679
   7723SM   H1T10135   6.757   2.583  17.090  0.7562 -0.5754  1.0057
   7723SM    NF10136   6.791   2.687  16.842  0.2114  0.3879  0.6407
   7723SM   HNF10137   6.701   2.663  16.807  0.3389 -3.4371  2.4638
   7723SM   C2S10138   6.860   2.581  16.904  0.4830  0.1820 -0.1665
   7723SM   H2S10139   6.964   2.574  16.866  1.1293  0.7612  1.4459
   7723SM   C3S10140   6.799   2.438  16.902  0.2178  0.6139  0.5245
   7723SM   H3S10141   6.696   2.443  16.942  0.3431  2.6211  0.6698
   7723SM    O310142   6.871   2.332  16.980 -0.0889 -0.6649 -0.2479
   7723SM   HO310143   6.941   2.381  17.024 -0.9989 -0.2559  0.7919
   7723SM   C4S10144   6.801   2.402  16.753  0.1909  0.4471  0.2323
   7723SM   H4S10145   6.699   2.394  16.713  1.2231 -2.3934 -2.2088
   7723SM   C5S10146   6.902   2.358  16.678 -0.4584 -0.5116  0.3636
   7723SM   H5S10147   7.000   2.340  16.725 -1.4148  0.1802  2.7519
   7723SM   C6S10148   6.886   2.331  16.533 -0.2774  0.5792  0.0033
   7723SM   H6S10149   6.788   2.352  16.485 -0.3169 -0.1582 -0.2436
   7723SM   H6T10150   6.914   2.229  16.501  0.1504  0.5485  0.4611
   7723SM   C7S10151   6.982   2.416  16.447  0.1003  0.2818  0.1757
   7723SM   H7S10152   7.086   2.408  16.486  0.4993  3.3236 -0.0144
   7723SM   H7T10153   6.956   2.524  16.449  0.9917  0.4996  1.1052
   7723SM   C8S10154   6.982   2.368  16.297  0.7935  0.1534 -0.4425
   7723SM   H8S10155   6.880   2.333  16.271  0.2252  2.2352 -1.1589
   7723SM   H8T10156   7.048   2.279  16.282  0.2631 -0.2461 -0.4433
   7723SM   C9S10157   7.019   2.478  16.190 -0.5728 -0.2240  0.6885
   7723SM   H9S10158   7.127   2.501  16.205 -0.4951 -0.0346 -0.1214
   7723SM   H9T10159   6.961   2.572  16.202 -0.3314  0.0670 -0.3053
   7723SM  C10S10160   6.987   2.434  16.046 -0.3329  0.6834 -0.7285
   7723SM  H10S10161   7.038   2.498  15.970  0.2911 -0.7428 -1.5468
   7723SM  H10T10162   6.878   2.424  16.024 -0.1162 -1.0004 -1.1629
   7723SM  C11S10163   7.049   2.299  16.010 -0.6923  0.4831  0.5623
   7723SM  H11S10164   7.033   2.280  15.902  0.3797 -1.1004  0.6487
   7723SM  H11T10165   7.003   2.220  16.072 -0.4696  1.0648  1.4889
   7723SM  C12S10166   7.201   2.292  16.025  0.0048 -0.3240  0.0535
   7723SM  H12S10167   7.243   2.193  15.998  0.7205  0.1848 -0.7173
   7723SM  H12T10168   7.226   2.306  16.133 -0.7142  0.0778  0.1784
   7723SM  C13S10169   7.284   2.393  15.949  0.1073  0.3731  0.7879
   7723SM  H13S10170   7.387   2.353  15.967 -0.3170 -1.7998 -1.1194
   7723SM  H13T10171   7.267   2.493  15.994  1.1180  0.9707 -0.1050
   7723SM  C14S10172   7.259   2.401  15.798 -0.8926 -0.2285 -0.1651
   7723SM  H14S10173   7.148   2.400  15.793 -0.9987  2.5307  0.0785
   7723SM  H14T10174   7.301   2.310  15.750  1.5881 -0.5990  2.4236
   7723SM  C15S10175   7.291   2.533  15.739 -0.8610 -0.2983  0.2784
   7723SM  H15S10176   7.400   2.552  15.752 -0.6260  1.0506 -2.7547
   7723SM  H15T10177   7.223   2.605  15.788 -2.7455 -3.3151  2.4472
   7723SM  C16S10178   7.257   2.537  15.587  0.2413 -0.4328 -0.2339
   7723SM  H16S10179   7.275   2.639  15.549  0.8895 -0.1314  0.8320
   7723SM  H16T10180   7.157   2.497  15.561 -0.0939  0.4773 -0.3736
   7723SM  C17S10181   7.368   2.455  15.509  0.6241 -0.4727  0.0483
   7723SM  H17S10182   7.358   2.352  15.549  2.7201 -0.6577  0.2398
   7723SM  H17T10183   7.469   2.491  15.537  0.3099  1.1684 -0.7919
   7723SM  C18S10184   7.344   2.434  15.357  0.1892  0.2716 -0.9083
   7723SM  H18S10185   7.361   2.532  15.306 -2.5296  1.4897  0.3269
   7723SM  H18T10186   7.238   2.405  15.343 -0.3395  0.1743  2.5693
   7723SM  H18U10187   7.419   2.360  15.322  0.0938 -0.6958  0.8039
   7723SM   C1F10188   6.842   2.810  16.818  0.3082  0.3594 -0.0302
   7723SM    OF10189   6.954   2.848  16.857  0.1115  0.4299  0.4642
   7723SM   C2F10190   6.763   2.906  16.726 -0.6389  0.1539 -0.2231
   7723SM   H2F10191   6.721   2.984  16.794  4.0901  2.5518  0.3211
   7723SM   H2G10192   6.693   2.833  16.680 -0.3980 -0.0884 -0.2009
   7723SM   C3F10193   6.854   2.981  16.619 -0.5126  0.2743  0.6421
   7723SM   H3F10194   6.905   3.059  16.679  3.0684 -0.1782 -1.5251
   7723SM   H3G10195   6.797   3.041  16.544 -2.3558 -0.5576  1.3027
   7723SM   C4F10196   6.963   2.899  16.542 -0.3096 -0.0467 -0.4223
   7723SM   H4F10197   6.927   2.810  16.487 -0.4029 -1.3844  1.6853
   7723SM   H4G10198   7.025   2.852  16.621 -1.7248 -0.8821  0.2184
   7723SM   C5F10199   7.039   2.984  16.446 -0.0320  0.1465  0.2555
   7723SM   H5F10200   7.088   3.070  16.496  1.3449  0.0438 -0.8580
   7723SM   H5G10201   6.972   3.020  16.364  2.1804  2.0023 -0.8632
   7723SM   C6F10202   7.149   2.910  16.373  0.8829  0.3357  0.0760
   7723SM   H6F10203   7.111   2.810  16.343 -0.7168  0.5635  1.2446
   7723SM   H6G10204   7.232   2.890  16.445  0.6178 -1.2226 -0.0085
   7723SM   C7F10205   7.207   2.973  16.244  0.2778  0.3048  0.4260
   7723SM   H7F10206   7.281   3.054  16.262  1.3940 -0.1325 -1.7883
   7723SM   H7G10207   7.123   3.014  16.183  0.5788  1.7741  0.9627
   7723SM   C8F10208   7.270   2.867  16.147 -0.1102 -0.2043  0.1477
   7723SM   H8F10209   7.186   2.796  16.132  0.0482 -0.5623  0.9096
   7723SM   H8G10210   7.348   2.802  16.194 -0.0425 -1.6329 -1.7999
   7723SM   C9F10211   7.321   2.926  16.017 -0.0370 -0.1325 -0.5756
   7723SM   H9F10212   7.406   2.994  16.036  1.2848 -1.1418 -2.5109
   7723SM   H9G10213   7.240   2.988  15.973  0.3174  1.6881  1.1840
   7723SM  C10F10214   7.386   2.820  15.927 -0.0697  0.3224  0.7051
   7723SM  H10F10215   7.324   2.728  15.921  0.8273 -0.2650  0.3215
   7723SM  H10G10216   7.482   2.797  15.978 -0.3938 -0.0857  1.1447
   7723SM  C11F10217   7.402   2.890  15.788  0.1207  0.3901  0.6157
   7723SM  H11F10218   7.468   2.825  15.727 -0.4893 -1.6394  1.9953
   7723SM  H11G10219   7.443   2.993  15.794  0.5172  0.2591  0.1844
   7723SM  C12F10220   7.272   2.904  15.700 -0.1767  0.5787  0.3209
   7723SM  H12F10221   7.192   2.955  15.759 -0.8681  0.7812 -0.7518
   7723SM  H12G10222   7.229   2.804  15.678 -3.1255  2.2095 -2.1886
   7723SM  C13F10223   7.285   2.985  15.568 -0.1542 -0.0369  0.2255
   7723SM  H13F10224   7.338   2.916  15.499  0.0399  3.0461 -2.9681
   7723SM  H13G10225   7.357   3.069  15.564  0.9144 -0.9777 -2.1955
   7723SM  C14F10226   7.158   3.011  15.490  0.6157  0.5009  0.6911
   7723SM  H14F10227   7.119   3.104  15.536  0.0489  0.8590 -0.4589
   7723SM  H14G10228   7.089   2.926  15.513  1.2328 -0.2203 -0.0791
   7723SM  C15F10229   7.174   3.030  15.340  0.7896 -0.3765 -0.3633
   7723SM  H15F10230   7.075   3.042  15.292  0.0232 -0.3084  1.1967
   7723SM  H15G10231   7.232   2.949  15.290  1.0924  0.1556 -0.8855
   7723SM  C16F10232   7.238   3.160  15.294  0.1715 -0.4840 -0.3042
   7723SM  H16F10233   7.345   3.154  15.325 -0.1885 -1.5845  0.8044
   7723SM  H16G10234   7.191   3.251  15.336 -2.6197 -0.4885 -3.0793
   7723SM  C17F10235   7.251   3.169  15.142 -0.2719 -0.7979 -0.3083
   7723SM  H17F10236   7.151   3.183  15.097 -1.2728 -1.6521  1.5147
   7723SM  H17G10237   7.297   3.071  15.116  1.5531 -0.0524 -0.0359
   7723SM  C18F10238   7.345   3.282  15.089  0.2439 -0.1670  0.0631
   7723SM  H18F10239   7.442   3.257  15.137 -0.8906 -0.3181  2.4074
   7723SM  H18G10240   7.290   3.372  15.123  0.0589 -0.3094  0.1487
   7723SM  C19F10241   7.356   3.268  14.936 -0.1686 -0.3789  0.1334
   7723SM  H19F10242   7.294   3.348  14.891  0.1264 -1.2527 -1.9378
   7723SM  H19G10243   7.322   3.169  14.899 -0.4209 -0.3473  0.2846
   7723SM  C20F10244   7.504   3.290  14.895 -0.0502  0.2393  0.9293
   7723SM  H20F10245   7.565   3.215  14.951 -1.0859 -0.4722  1.1285
   7723SM  H20G10246   7.540   3.388  14.935  0.3555 -0.1943  1.6582
   7723SM  C21F10247   7.525   3.274  14.742 -1.3868  0.5520  0.1565
   7723SM  H21F10248   7.479   3.178  14.708  0.3539 -1.2020  2.3953
   7723SM  H21G10249   7.634   3.265  14.722 -1.1686 -0.9975  1.7693
   7723SM  C22F10250   7.494   3.408  14.671 -0.1685 -0.0313  0.0939
   7723SM  H22F10251   7.566   3.488  14.698 -1.1803  0.3190  1.9476
   7723SM  H22G10252   7.398   3.448  14.711 -1.0075  0.6806 -2.4534
   7723SM  C23F10253   7.493   3.392  14.515  0.5231  0.4120 -0.6630
   7723SM  H23F10254   7.424   3.309  14.486 -1.0037  1.2041  0.5156
   7723SM  H23G10255   7.594   3.380  14.471  1.3475 -0.7967  1.4455
   7723SM  H23H10256   7.456   3.492  14.481  3.3996  1.6693 -0.3511
   7823SM     N10257   1.589   0.663  17.664  0.1741 -0.7068  0.3334
   7823SM   C1510258   1.677   0.547  17.641  0.6892 -0.0325  0.1399
   7823SM  H15A10259   1.616   0.475  17.588 -0.7555  0.7127  0.7145
   7823SM  H15B10260   1.708   0.514  17.739  0.2150  0.0906  0.3378
   7823SM  H15C10261   1.772   0.562  17.592  0.5664 -2.1376 -0.8504
   7823SM   C1410262   1.488   0.617  17.764 -0.0868 -0.1076  0.2974
   7823SM  H14A10263   1.438   0.698  17.815  2.7027  1.1006  1.3184
   7823SM  H14B10264   1.530   0.564  17.848  1.4433  1.2445  0.4514
   7823SM  H14C10265   1.416   0.554  17.714 -0.5323 -0.1633  1.0040
   7823SM   C1310266   1.673   0.759  17.734  0.9663  0.1804 -0.3726
   7823SM  H13A10267   1.758   0.783  17.670  0.6952  0.7795 -0.5159
   7823SM  H13B10268   1.709   0.716  17.826 -0.9043 -1.1457 -0.1948
   7823SM  H13C10269   1.615   0.846  17.760  1.2657  0.3037 -0.1099
   7823SM   C1210270   1.529   0.719  17.540  0.3388 -0.2815 -0.0707
   7823SM  H12A10271   1.618   0.753  17.488  0.4465  2.1474  1.5403
   7823SM  H12B10272   1.480   0.814  17.554 -0.2716 -0.6055  0.0263
   7823SM   C1110273   1.437   0.625  17.453 -0.3858 -0.6624 -0.4049
   7823SM  H11A10274   1.355   0.603  17.524  1.0010  0.4227  1.6371
   7823SM  H11B10275   1.499   0.533  17.443 -0.4227 -1.0605  2.3668
   7823SM     P10276   1.275   0.790  17.344  0.0443 -0.2551 -0.0814
   7823SM   O1310277   1.152   0.729  17.398  0.1239  0.4272  0.2002
   7823SM   O1410278   1.321   0.905  17.421 -0.3776 -0.2182 -0.8602
   7823SM   O1110279   1.257   0.832  17.193  0.0577 -0.2607  0.1225
   7823SM   O1210280   1.393   0.686  17.333 -0.6537 -0.2305 -0.7805
   7823SM   C1S10281   1.213   0.741  17.092 -0.1457  1.0229 -0.0801
   7823SM   H1S10282   1.109   0.707  17.114  0.3663  0.5777  1.8517
   7823SM   H1T10283   1.286   0.657  17.085  0.1561  1.3614 -1.0741
   7823SM    NF10284   1.145   0.698  16.851 -0.1020 -0.1642 -0.3223
   7823SM   HNF10285   1.210   0.634  16.809  0.7082  1.2288 -1.3066
   7823SM   C2S10286   1.206   0.794  16.948 -1.0009 -0.9148 -0.0275
   7823SM   H2S10287   1.151   0.890  16.951 -1.5695 -1.1562 -1.8224
   7823SM   C3S10288   1.354   0.833  16.911  0.2955  0.3698 -0.4177
   7823SM   H3S10289   1.400   0.732  16.914  0.0382  0.0396 -3.7743
   7823SM    O310290   1.423   0.918  17.004  0.3669 -0.2141  0.3800
   7823SM   HO310291   1.368   0.897  17.080  1.1240  2.2781  1.7006
   7823SM   C4S10292   1.357   0.891  16.773  0.3227 -0.1478 -0.3373
   7823SM   H4S10293   1.322   0.996  16.774  2.0621  0.4648 -0.4074
   7823SM   C5S10294   1.402   0.825  16.659 -0.5449 -0.2327  0.2437
   7823SM   H5S10295   1.428   0.718  16.666  0.9525  0.0401 -0.6511
   7823SM   C6S10296   1.397   0.885  16.520 -0.2983  0.4880 -0.7403
   7823SM   H6S10297   1.496   0.866  16.472 -0.0668  2.7753 -1.2730
   7823SM   H6T10298   1.384   0.994  16.538  1.0278  0.3783  1.2335
   7823SM   C7S10299   1.276   0.836  16.446 -0.3446 -0.1235 -0.1547
   7823SM   H7S10300   1.188   0.854  16.512  0.6987 -1.4963  1.7175
   7823SM   H7T10301   1.308   0.730  16.441  1.8324  0.5237 -1.0609
   7823SM   C8S10302   1.250   0.911  16.313  0.2713  1.0192 -0.3086
   7823SM   H8S10303   1.275   1.018  16.322 -0.9485  1.5109 -2.1592
   7823SM   H8T10304   1.140   0.900  16.297  0.1959 -0.6589  0.9926
   7823SM   C9S10305   1.315   0.836  16.201  0.7052 -0.8862  0.3834
   7823SM   H9S10306   1.303   0.726  16.217 -0.4350 -0.6861  1.0059
   7823SM   H9T10307   1.422   0.865  16.208 -0.1034  2.2421  1.4886
   7823SM  C10S10308   1.255   0.892  16.070  0.5472  0.1678  0.3862
   7823SM  H10S10309   1.277   1.000  16.057 -0.2134  0.0549 -2.4063
   7823SM  H10T10310   1.144   0.889  16.069  0.5268 -0.4607 -2.1427
   7823SM  C11S10311   1.304   0.810  15.950  0.4213  0.0356 -0.6972
   7823SM  H11S10312   1.271   0.707  15.978  2.4453 -1.1203 -2.3217
   7823SM  H11T10313   1.414   0.794  15.951  0.1849 -1.8608 -1.1703
   7823SM  C12S10314   1.237   0.850  15.815 -0.7245 -1.0923 -0.7783
   7823SM  H12S10315   1.283   0.947  15.786 -0.6182 -1.0573 -0.4943
   7823SM  H12T10316   1.129   0.869  15.828 -0.3588  0.7312 -0.1501
   7823SM  C13S10317   1.260   0.741  15.711 -0.1757 -0.2394  0.3584
   7823SM  H13S10318   1.196   0.654  15.736  0.4246 -0.5376  0.8995
   7823SM  H13T10319   1.367   0.714  15.723 -0.7511 -1.7186  3.2700
   7823SM  C14S10320   1.228   0.787  15.569  0.2373  0.2196  0.8292
   7823SM  H14S10321   1.265   0.891  15.555  1.1683  0.1174  2.2718
   7823SM  H14T10322   1.117   0.780  15.564  0.1476  1.7814 -0.0380
   7823SM  C15S10323   1.295   0.704  15.459 -0.0194 -0.1843  0.4187
   7823SM  H15S10324   1.243   0.607  15.448  2.0185 -1.3105  0.2417
   7823SM  H15T10325   1.402   0.686  15.483 -0.0829 -0.5429  0.4281
   7823SM  C16S10326   1.282   0.778  15.321 -0.1946  0.7544  0.7910
   7823SM  H16S10327   1.342   0.872  15.319 -0.3123  0.8382 -1.2665
   7823SM  H16T10328   1.175   0.797  15.299 -0.0532 -1.0463 -1.9627
   7823SM  C17S10329   1.346   0.685  15.213 -0.9655 -0.4499  0.9729
   7823SM  H17S10330   1.289   0.592  15.198 -0.8117 -0.4404  0.2958
   7823SM  H17T10331   1.450   0.658  15.241 -1.1156 -1.9008  0.1980
   7823SM  C18S10332   1.371   0.761  15.072  0.1847  0.3454 -0.2718
   7823SM  H18S10333   1.270   0.775  15.027  0.0217 -0.5930 -0.2112
   7823SM  H18T10334   1.426   0.700  14.997  0.6243  0.0951  0.2550
   7823SM  H18U10335   1.435   0.850  15.092  0.7674 -0.2630  0.6226
   7823SM   C1F10336   1.013   0.677  16.855 -0.0164 -0.0141  0.2334
   7823SM    OF10337   0.937   0.754  16.907 -0.1514  0.0671  0.1808
   7823SM   C2F10338   0.961   0.548  16.798 -0.2985 -0.2559  0.3800
   7823SM   H2F10339   0.943   0.471  16.876  1.9838 -0.1363  1.1147
   7823SM   H2G10340   1.032   0.510  16.722  1.8922  1.3358  1.4957
   7823SM   C3F10341   0.832   0.584  16.714  0.1333  0.5978 -0.5778
   7823SM   H3F10342   0.767   0.634  16.789 -0.2815 -1.4098  0.4767
   7823SM   H3G10343   0.769   0.499  16.683  0.4571 -0.1454  0.7240
   7823SM   C4F10344   0.861   0.650  16.584  0.0302 -0.0942  0.3967
   7823SM   H4F10345   0.954   0.710  16.594  0.5443 -0.0732 -3.0567
   7823SM   H4G10346   0.781   0.721  16.557 -0.2186 -0.0051  1.3346
   7823SM   C5F10347   0.886   0.549  16.464  0.4208 -0.2693 -0.1621
   7823SM   H5F10348   0.788   0.500  16.444 -1.0467  2.1479  0.6677
   7823SM   H5G10349   0.953   0.470  16.505 -1.0927 -0.8657  1.2849
   7823SM   C6F10350   0.947   0.603  16.330  0.4650  0.9678 -0.6607
   7823SM   H6F10351   1.050   0.636  16.356  0.8476 -1.8606  1.9403
   7823SM   H6G10352   0.878   0.682  16.295 -0.6707  0.3156  0.0379
   7823SM   C7F10353   0.962   0.484  16.235 -0.3120 -0.4055  0.3916
   7823SM   H7F10354   0.860   0.453  16.205  0.0775 -2.2678  0.8682
   7823SM   H7G10355   1.015   0.413  16.301  1.0043  0.3675  0.2036
   7823SM   C8F10356   1.052   0.509  16.118 -0.2235  0.5129  0.3309
   7823SM   H8F10357   1.138   0.562  16.166  1.0772 -1.1159 -0.1155
   7823SM   H8G10358   0.998   0.573  16.045 -0.5636 -1.0996 -0.8871
   7823SM   C9F10359   1.102   0.385  16.043  0.2505 -0.1769 -0.5811
   7823SM   H9F10360   1.147   0.323  16.123 -0.1864 -0.0687 -0.2491
   7823SM   H9G10361   1.172   0.413  15.960  1.3711  0.1958  0.4650
   7823SM  C10F10362   0.992   0.304  15.974  0.1305  0.6244 -0.5823
   7823SM  H10F10363   0.960   0.346  15.876 -2.9736 -3.1255 -1.4189
   7823SM  H10G10364   0.900   0.286  16.033  0.8563 -1.9648 -0.1004
   7823SM  C11F10365   1.043   0.162  15.934  0.1299  0.0323 -0.8676
   7823SM  H11F10366   0.962   0.100  15.891  0.8230 -0.9687 -0.7782
   7823SM  H11G10367   1.074   0.104  16.025 -0.6860 -1.0416 -1.2469
   7823SM  C12F10368   1.165   0.170  15.847  0.3468  0.3441 -0.2630
   7823SM  H12F10369   1.255   0.187  15.910  0.2300  2.9903 -0.7151
   7823SM  H12G10370   1.163   0.254  15.774 -0.0243  0.7630  0.2221
   7823SM  C13F10371   1.185   0.044  15.762  0.8333  0.7552 -0.4539
   7823SM  H13F10372   1.182   0.077  15.656  1.0048 -0.6556 -0.9272
   7823SM  H13G10373   1.107  -0.032  15.785  0.7468  1.0175  0.1352
   7823SM  C14F10374   1.323  -0.025  15.780 -0.5125  0.3611  0.1329
   7823SM  H14F10375   1.310  -0.113  15.845 -2.5384 -1.3194 -2.3330
   7823SM  H14G10376   1.397   0.039  15.833 -1.6225  1.3520  0.5402
   7823SM  C15F10377   1.369  -0.071  15.644 -1.0015 -0.0309  0.0915
   7823SM  H15F10378   1.378   0.022  15.584  0.3881  1.0659  1.9048
   7823SM  H15G10379   1.295  -0.139  15.597  0.8934 -2.5458  0.5515
   7823SM  C16F10380   1.503  -0.140  15.662  0.1506 -0.0703  0.9031
   7823SM  H16F10381   1.498  -0.222  15.736 -0.7275 -0.2770  0.6254
   7823SM  H16G10382   1.577  -0.062  15.690  0.2509  0.5848 -1.0424
   7823SM  C17F10383   1.553  -0.188  15.523  0.0090 -0.6358  0.3798
   7823SM  H17F10384   1.576  -0.097  15.463 -1.2670 -0.3153  0.3474
   7823SM  H17G10385   1.479  -0.260  15.481  0.3248 -0.3339 -0.7362
   7823SM  C18F10386   1.690  -0.271  15.528 -0.0354  0.3742  1.1965
   7823SM  H18F10387   1.770  -0.215  15.581 -0.8582  2.6874  0.1287
   7823SM  H18G10388   1.725  -0.279  15.423 -0.6418  1.8614  0.8614
   7823SM  C19F10389   1.668  -0.405  15.592  0.4161 -0.4859 -0.0589
   7823SM  H19F10390   1.580  -0.444  15.536 -0.3946 -0.8675  1.4247
   7823SM  H19G10391   1.640  -0.385  15.698 -1.9998  1.1653 -0.9248
   7823SM  C20F10392   1.788  -0.498  15.582  0.0439  0.1159  0.0773
   7823SM  H20F10393   1.755  -0.588  15.638  0.0792 -0.1043 -0.2607
   7823SM  H20G10394   1.880  -0.460  15.630  0.2177  0.9783 -0.9127
   7823SM  C21F10395   1.815  -0.540  15.442 -0.4333 -0.2669 -0.3295
   7823SM  H21F10396   1.890  -0.475  15.391 -0.0493  0.1335  0.7312
   7823SM  H21G10397   1.722  -0.529  15.381  1.1300  1.1103 -2.6684
   7823SM  C22F10398   1.846  -0.687  15.422  0.6314 -0.0870 -0.0509
   7823SM  H22F10399   1.862  -0.705  15.313  0.0907 -0.2116 -0.1131
   7823SM  H22G10400   1.756  -0.743  15.455  1.1991 -2.2733 -1.9449
   7823SM  C23F10401   1.954  -0.738  15.515  0.0991  0.3747 -0.2787
   7823SM  H23F10402   2.003  -0.825  15.467  2.5753  0.7868  1.3173
   7823SM  H23G10403   1.918  -0.766  15.617 -0.9528  0.4552 -0.6130
   7823SM  H23H10404   2.028  -0.656  15.526 -0.9247  1.2877  0.0421
   7923SM     N10405   6.120   1.428  17.219  0.3793  0.4768  0.2702
   7923SM   C1510406   6.193   1.392  17.094 -0.3678 -0.5482 -0.0222
   7923SM  H15A10407   6.121   1.383  17.014 -0.3152 -1.0279 -0.0174
   7923SM  H15B10408   6.247   1.300  17.112  0.1677  0.1806  2.6081
   7923SM  H15C10409   6.261   1.472  17.069 -1.1220  0.5280  1.2673
   7923SM   C1410410   6.059   1.561  17.191 -0.3847 -0.0633 -0.3362
   7923SM  H14A10411   6.142   1.626  17.170  1.0892 -1.5184  0.6955
   7923SM  H14B10412   6.002   1.589  17.278  0.9942  4.1303 -0.5915
   7923SM  H14C10413   5.996   1.566  17.103  1.0784  1.4721 -1.3570
   7923SM   C1310414   5.992   1.330  17.231  0.5353  0.4385  0.5708
   7923SM  H13A10415   6.021   1.226  17.242  1.5336  0.5701 -0.5922
   7923SM  H13B10416   5.929   1.336  17.144 -0.4541 -2.2613  0.9915
   7923SM  H13C10417   5.936   1.367  17.315  0.2642  2.7964 -0.5743
   7923SM   C1210418   6.203   1.421  17.346  0.2341  0.2642 -0.3080
   7923SM  H12A10419   6.143   1.462  17.426 -0.4712  0.1159 -0.7546
   7923SM  H12B10420   6.288   1.486  17.333  1.0063 -0.5970  0.2768
   7923SM   C1110421   6.261   1.287  17.376 -0.0892  1.0479 -0.0052
   7923SM  H11A10422   6.325   1.290  17.466 -2.5295  0.9930  1.8269
   7923SM  H11B10423   6.325   1.260  17.289  0.3840 -1.1472  0.9511
   7923SM     P10424   6.220   1.034  17.403 -0.3458 -0.2785  0.1537
   7923SM   O1310425   6.338   1.022  17.495  0.1460 -0.2251  0.6155
   7923SM   O1410426   6.109   0.943  17.429  0.2395 -0.4957  0.0188
   7923SM   O1110427   6.269   0.992  17.264  0.2526 -0.2629  0.6140
   7923SM   O1210428   6.165   1.186  17.399 -0.1930  0.1127  0.1459
   7923SM   C1S10429   6.197   1.001  17.138  0.4935  0.1610  0.1936
   7923SM   H1S10430   6.130   1.090  17.140 -1.2014 -1.0612  0.2519
   7923SM   H1T10431   6.125   0.916  17.132 -1.6789  1.8786  0.5971
   7923SM    NF10432   6.193   0.983  16.886  0.2201 -0.4984 -0.2867
   7923SM   HNF10433   6.189   0.893  16.842 -0.1691 -0.8690  0.4878
   7923SM   C2S10434   6.281   1.000  17.002  1.0921  0.2298 -0.9389
   7923SM   H2S10435   6.336   1.096  17.007  0.1449  0.7227  0.5647
   7923SM   C3S10436   6.385   0.887  17.022 -0.2993 -0.4570  0.0308
   7923SM   H3S10437   6.349   0.795  17.073  0.6461 -1.0302 -0.3055
   7923SM    O310438   6.480   0.928  17.124  0.2316 -0.0115  0.0116
   7923SM   HO310439   6.419   0.961  17.191  1.2984  0.3975  0.8083
   7923SM   C4S10440   6.451   0.855  16.887 -0.2551 -0.4552 -0.6001
   7923SM   H4S10441   6.431   0.751  16.857 -2.8451  0.2826 -1.7380
   7923SM   C5S10442   6.519   0.935  16.800 -0.2425 -0.0075 -0.4362
   7923SM   H5S10443   6.519   1.044  16.818 -0.2881  0.0391 -0.7103
   7923SM   C6S10444   6.585   0.899  16.670 -0.3605  0.0637 -0.7187
   7923SM   H6S10445   6.626   0.796  16.674  1.1838  0.6796  0.0220
   7923SM   H6T10446   6.674   0.965  16.660  0.9737 -1.7615 -1.4805
   7923SM   C7S10447   6.492   0.913  16.553 -0.1785  0.1894  0.1988
   7923SM   H7S10448   6.460   1.018  16.535 -5.2526 -1.2598 -1.0597
   7923SM   H7T10449   6.398   0.864  16.587 -1.5206  0.8476 -2.3104
   7923SM   C8S10450   6.555   0.840  16.433 -0.3676 -0.4329  0.4480
   7923SM   H8S10451   6.517   0.735  16.439  1.7887 -1.1656  2.9919
   7923SM   H8T10452   6.666   0.839  16.435 -0.2829  2.0473 -0.4197
   7923SM   C9S10453   6.514   0.911  16.305 -0.3628 -0.1669  0.2212
   7923SM   H9S10454   6.546   1.017  16.310 -1.4769  0.1834  0.1580
   7923SM   H9T10455   6.405   0.914  16.287 -0.2479 -0.3157 -0.5138
   7923SM  C10S10456   6.597   0.848  16.193  0.7938 -0.3594 -0.5323
   7923SM  H10S10457   6.707   0.847  16.206  0.5564 -0.0439  2.1486
   7923SM  H10T10458   6.573   0.920  16.112 -0.1865  1.8169  1.5574
   7923SM  C11S10459   6.541   0.715  16.144 -0.2650 -0.2003 -0.2195
   7923SM  H11S10460   6.431   0.733  16.140 -0.0874  2.5319  2.7200
   7923SM  H11T10461   6.570   0.648  16.228 -0.8284  1.8238  1.7016
   7923SM  C12S10462   6.595   0.661  16.010 -0.2732  0.6604 -0.7193
   7923SM  H12S10463   6.568   0.730  15.927 -1.0583 -0.3517 -1.3147
   7923SM  H12T10464   6.536   0.569  15.991 -2.4935  1.8916 -0.1844
   7923SM  C13S10465   6.738   0.627  16.006 -1.1458  0.1557  0.5478
   7923SM  H13S10466   6.765   0.548  16.079 -1.4550  0.7639  1.3411
   7923SM  H13T10467   6.801   0.712  16.040  1.5790 -2.2385  1.9163
   7923SM  C14S10468   6.782   0.575  15.860  0.2955 -0.5611 -0.3486
   7923SM  H14S10469   6.789   0.668  15.799  1.7473 -0.6907 -0.4043
   7923SM  H14T10470   6.701   0.514  15.815 -1.4538 -0.1995  2.0944
   7923SM  C15S10471   6.928   0.508  15.864 -0.1249 -0.2159  0.4229
   7923SM  H15S10472   6.908   0.414  15.920  0.2060 -0.2916  0.4122
   7923SM  H15T10473   6.995   0.567  15.930  0.2638 -0.1436 -0.0339
   7923SM  C16S10474   7.011   0.488  15.734 -0.2128  0.1403 -0.9074
   7923SM  H16S10475   7.005   0.584  15.678 -3.9527  0.7013  0.1807
   7923SM  H16T10476   6.957   0.413  15.672 -0.3913 -0.7855  0.3369
   7923SM  C17S10477   7.142   0.429  15.768  0.0526  0.6231  0.0623
   7923SM  H17S10478   7.172   0.351  15.694 -1.0616 -1.3667  1.6020
   7923SM  H17T10479   7.141   0.374  15.864 -1.5830 -0.8862 -0.7540
   7923SM  C18S10480   7.256   0.526  15.786  0.6566 -0.1773  0.1318
   7923SM  H18S10481   7.276   0.588  15.696 -0.6485 -1.6219 -1.2124
   7923SM  H18T10482   7.350   0.470  15.805 -0.0729 -1.6157 -0.3355
   7923SM  H18U10483   7.238   0.593  15.872 -2.8148 -1.9118  0.9294
   7923SM   C1F10484   6.132   1.095  16.842 -0.2120  0.2346 -0.7360
   7923SM    OF10485   6.185   1.201  16.877 -0.6640 -0.0857 -0.0170
   7923SM   C2F10486   6.023   1.085  16.736  0.2926  0.0473 -0.3391
   7923SM   H2F10487   5.922   1.075  16.781  0.4956  1.1260  0.3731
   7923SM   H2G10488   6.050   0.995  16.677 -1.1091 -1.0721  0.6453
   7923SM   C3F10489   6.021   1.209  16.648 -0.6414 -0.0561  0.8018
   7923SM   H3F10490   6.022   1.303  16.708 -0.9317  0.6967 -0.3410
   7923SM   H3G10491   5.932   1.195  16.583  0.5152  0.1488 -0.8972
   7923SM   C4F10492   6.128   1.218  16.541 -0.9577 -0.2796 -0.4351
   7923SM   H4F10493   6.219   1.177  16.589 -1.0909 -1.1630 -0.9305
   7923SM   H4G10494   6.148   1.322  16.507 -2.5868 -0.1055 -0.9640
   7923SM   C5F10495   6.103   1.139  16.409  0.1054 -0.3077  0.5353
   7923SM   H5F10496   6.002   1.168  16.371 -0.1475 -1.0265  0.6497
   7923SM   H5G10497   6.098   1.031  16.436  0.4226 -0.6550 -0.7446
   7923SM   C6F10498   6.214   1.169  16.303  0.1833  0.0447 -0.1068
   7923SM   H6F10499   6.300   1.123  16.356  0.3920  1.1292  0.5264
   7923SM   H6G10500   6.233   1.276  16.280  1.9345  0.2744  2.1410
   7923SM   C7F10501   6.199   1.100  16.172  1.3137  0.0776 -0.1935
   7923SM   H7F10502   6.090   1.107  16.152  0.9928 -0.1684  1.3485
   7923SM   H7G10503   6.210   0.990  16.187  0.7633  0.1953  1.3056
   7923SM   C8F10504   6.302   1.142  16.064  0.1028 -0.3603 -0.1177
   7923SM   H8F10505   6.407   1.116  16.089 -0.0732 -0.4841  0.5219
   7923SM   H8G10506   6.304   1.252  16.054  2.4507 -0.3725 -0.3294
   7923SM   C9F10507   6.279   1.086  15.923  0.0072 -0.3723  0.5013
   7923SM   H9F10508   6.279   0.975  15.923 -1.3739 -0.3879  0.9795
   7923SM   H9G10509   6.362   1.114  15.855  1.4895  0.6743  2.6362
   7923SM  C10F10510   6.145   1.141  15.861 -0.6470 -0.4694 -0.3453
   7923SM  H10F10511   6.164   1.248  15.840 -1.5232 -0.2373  0.0110
   7923SM  H10G10512   6.062   1.129  15.935  0.4856  1.0198  1.2466
   7923SM  C11F10513   6.106   1.059  15.733 -0.0106  0.2597 -0.2757
   7923SM  H11F10514   6.011   1.106  15.699 -0.2116 -0.4876 -0.7851
   7923SM  H11G10515   6.084   0.955  15.766 -1.1787  0.9765  1.3218
   7923SM  C12F10516   6.203   1.060  15.616  0.7720 -0.6051  0.1342
   7923SM  H12F10517   6.271   0.974  15.633  2.2874  0.4982 -0.0998
   7923SM  H12G10518   6.268   1.151  15.616  1.4435 -1.0303 -2.2552
   7923SM  C13F10519   6.132   1.058  15.491  0.3695 -0.1787 -0.5093
   7923SM  H13F10520   6.065   1.147  15.492 -0.2999 -0.6597  1.2630
   7923SM  H13G10521   6.061   0.973  15.487 -1.0448  0.8583  1.1641
   7923SM  C14F10522   6.223   1.077  15.368 -0.1771 -0.5964  0.1517
   7923SM  H14F10523   6.315   1.015  15.380  0.4639  0.2974 -0.0957
   7923SM  H14G10524   6.263   1.179  15.386  0.6447 -1.0961  1.2687
   7923SM  C15F10525   6.148   1.048  15.239 -0.1173  0.4601 -0.1994
   7923SM  H15F10526   6.052   1.094  15.205  0.4562 -1.0222 -4.3709
   7923SM  H15G10527   6.114   0.942  15.244 -0.5430  0.5722 -0.6032
   7923SM  C16F10528   6.242   1.053  15.114 -0.1551  0.4226 -0.2487
   7923SM  H16F10529   6.318   0.975  15.133 -0.7526 -0.9850 -3.1275
   7923SM  H16G10530   6.294   1.150  15.103 -0.3141  0.5179 -0.1607
   7923SM  C17F10531   6.177   1.022  14.977  0.6986  0.1282 -0.3565
   7923SM  H17F10532   6.112   1.105  14.945  0.3386 -0.0054  0.0161
   7923SM  H17G10533   6.114   0.930  14.977  2.0598 -0.8511  0.6705
   7923SM  C18F10534   6.272   1.021  14.865 -0.6133  0.2586  0.1490
   7923SM  H18F10535   6.360   0.958  14.890 -1.0049  0.5308  2.3986
   7923SM  H18G10536   6.316   1.121  14.843  0.7569 -1.1233 -4.5187
   7923SM  C19F10537   6.219   0.974  14.738 -0.2557 -0.2689  0.1606
   7923SM  H19F10538   6.142   1.034  14.685  0.9319  0.4844 -0.7766
   7923SM  H19G10539   6.168   0.876  14.751 -0.7708 -0.1168 -0.5961
   7923SM  C20F10540   6.336   0.961  14.639  0.5444  0.4394 -0.6374
   7923SM  H20F10541   6.389   0.865  14.658  0.3239  0.5917  0.8193
   7923SM  H20G10542   6.407   1.046  14.650  0.9887 -0.0269  0.2133
   7923SM  C21F10543   6.290   0.962  14.496 -0.1699  0.1525  0.4009
   7923SM  H21F10544   6.381   0.947  14.433  0.4995 -1.6686  1.7141
   7923SM  H21G10545   6.256   1.067  14.481 -0.2362 -0.1189 -1.7460
   7923SM  C22F10546   6.176   0.870  14.460 -0.3661  0.1016 -0.4038
   7923SM  H22F10547   6.094   0.894  14.532 -0.5392  0.8262 -0.8293
   7923SM  H22G10548   6.207   0.765  14.477  1.0547  0.4093 -0.9359
   7923SM  C23F10549   6.130   0.888  14.314  0.8542  0.4135  0.1997
   7923SM  H23F10550   6.206   0.844  14.246  0.7369 -0.4119  0.5861
   7923SM  H23G10551   6.116   0.993  14.280  1.4816  1.1846  2.2321
   7923SM  H23H10552   6.031   0.839  14.301  0.4954  1.3442 -0.8039
   8023SM     N10553   0.904   1.007  17.332  0.4853  0.0262  0.5713
   8023SM   C1510554   0.872   0.947  17.197  0.1645 -0.0055  0.1187
   8023SM  H15A10555   0.863   1.026  17.124  0.8510 -0.6959 -0.7437
   8023SM  H15B10556   0.778   0.894  17.195 -1.2822  2.3728 -1.6682
   8023SM  H15C10557   0.946   0.877  17.161 -1.8838 -2.3370  0.1972
   8023SM   C1410558   1.048   1.059  17.331  0.0413 -0.4685 -0.5880
   8023SM  H14A10559   1.125   0.983  17.339 -1.4095 -1.8149  1.5580
   8023SM  H14B10560   1.055   1.121  17.419  2.0444 -0.6004 -0.6100
   8023SM  H14C10561   1.065   1.111  17.238  1.4245  0.5263  0.1893
   8023SM   C1310562   0.820   1.132  17.350 -0.5525  0.3336  0.6012
   8023SM  H13A10563   0.859   1.190  17.433  0.0942  0.0534  0.4996
   8023SM  H13B10564   0.718   1.101  17.362 -0.9284  1.2342 -0.1328
   8023SM  H13C10565   0.816   1.194  17.262 -0.5731 -0.2072  0.2212
   8023SM   C1210566   0.890   0.909  17.445  0.0278 -0.8147 -0.5053
   8023SM  H12A10567   0.921   0.960  17.534 -1.1890  0.1690 -0.6083
   8023SM  H12B10568   0.968   0.837  17.426 -0.1741 -1.1295 -0.1608
   8023SM   C1110569   0.754   0.843  17.459 -0.1469 -0.8481  0.5057
   8023SM  H11A10570   0.762   0.784  17.553  0.5443  1.0607  1.7116
   8023SM  H11B10571   0.739   0.774  17.373  0.0736  1.9086 -1.9035
   8023SM     P10572   0.502   0.886  17.426 -0.3383  0.4296  0.3864
   8023SM   O1310573   0.476   0.751  17.481  0.1039  0.3680 -0.2864
   8023SM   O1410574   0.413   0.994  17.464  0.2825  0.0972 -0.4175
   8023SM   O1110575   0.507   0.886  17.273  0.5734 -0.3515  0.3931
   8023SM   O1210576   0.646   0.934  17.473  0.1028  0.3791 -0.9093
   8023SM   C1S10577   0.489   1.002  17.201  0.8363 -0.3301  0.8207
   8023SM   H1S10578   0.550   1.090  17.233 -0.4878  2.3238 -3.1916
   8023SM   H1T10579   0.385   1.040  17.210  1.0812  0.0677  2.3215
   8023SM    NF10580   0.484   1.106  16.973  0.3458 -0.2255  0.2234
   8023SM   HNF10581   0.398   1.127  16.927  0.2194  0.0736  0.5944
   8023SM   C2S10582   0.507   0.979  17.044 -0.1906  0.0535 -0.1234
   8023SM   H2S10583   0.611   0.947  17.022 -0.3968 -0.6700 -0.0798
   8023SM   C3S10584   0.409   0.859  17.005 -0.1798 -0.2987 -0.1344
   8023SM   H3S10585   0.306   0.884  17.038  0.5129  1.3105  0.9256
   8023SM    O310586   0.441   0.738  17.072  0.6269 -0.2371 -0.9382
   8023SM   HO310587   0.508   0.766  17.134  1.2660 -0.8179 -1.3524
   8023SM   C4S10588   0.414   0.831  16.851 -0.3464 -0.3381  0.3995
   8023SM   H4S10589   0.498   0.770  16.815 -0.4923  0.8840 -2.2094
   8023SM   C5S10590   0.320   0.862  16.766 -0.0038 -0.4169  0.2966
   8023SM   H5S10591   0.223   0.894  16.804 -0.7481  0.5257 -2.2008
   8023SM   C6S10592   0.331   0.830  16.614 -0.6446 -0.4091 -0.0784
   8023SM   H6S10593   0.375   0.918  16.563  0.1333 -0.3613  0.6523
   8023SM   H6T10594   0.230   0.813  16.570 -1.0296  0.0984  0.5951
   8023SM   C7S10595   0.417   0.708  16.576  0.2936 -0.4119  0.7400
   8023SM   H7S10596   0.377   0.616  16.623 -0.0297 -0.1590  0.9692
   8023SM   H7T10597   0.522   0.719  16.609  1.2268 -0.6249 -1.9114
   8023SM   C8S10598   0.418   0.689  16.430  0.2495 -0.4207  0.0162
   8023SM   H8S10599   0.314   0.702  16.393  0.0340 -1.2974  0.2951
   8023SM   H8T10600   0.433   0.580  16.413 -0.1316 -0.5995  0.7726
   8023SM   C9S10601   0.519   0.773  16.357  0.1980 -0.1212 -0.0539
   8023SM   H9S10602   0.615   0.777  16.413 -0.4387 -1.1004  1.1590
   8023SM   H9T10603   0.488   0.879  16.349  0.0414 -0.1047  0.6690
   8023SM  C10S10604   0.548   0.720  16.221 -0.0283 -0.6572  0.4608
   8023SM  H10S10605   0.457   0.729  16.158  1.2470  3.1443 -1.1109
   8023SM  H10T10606   0.598   0.621  16.219  0.4680 -0.4153  0.6649
   8023SM  C11S10607   0.653   0.804  16.147 -0.2190  0.0149  0.0974
   8023SM  H11S10608   0.743   0.825  16.207  0.3931  0.0538 -0.8167
   8023SM  H11T10609   0.610   0.903  16.118  0.0296 -0.2485 -1.2470
   8023SM  C12S10610   0.700   0.744  16.017 -0.2662  0.4680 -0.2223
   8023SM  H12S10611   0.608   0.705  15.968  0.4590 -0.2958 -0.9939
   8023SM  H12T10612   0.768   0.660  16.039 -2.1483 -0.8080  1.0666
   8023SM  C13S10613   0.781   0.820  15.913 -0.1076 -0.1815 -0.4947
   8023SM  H13S10614   0.875   0.852  15.963 -0.3785 -0.4733  0.2209
   8023SM  H13T10615   0.729   0.916  15.898  1.5104  0.8304  0.0546
   8023SM  C14S10616   0.783   0.754  15.773 -0.0207 -0.3534 -0.1192
   8023SM  H14S10617   0.846   0.808  15.699  0.5894  0.0521  0.6858
   8023SM  H14T10618   0.677   0.744  15.742 -0.3164 -0.4014  0.8972
   8023SM  C15S10619   0.842   0.611  15.767 -0.1655  0.1219 -1.3019
   8023SM  H15S10620   0.801   0.544  15.845  3.0253  0.0013  0.4278
   8023SM  H15T10621   0.950   0.624  15.788 -0.3689  0.3401 -0.3338
   8023SM  C16S10622   0.807   0.547  15.625  0.0073  0.0881 -1.0567
   8023SM  H16S10623   0.814   0.627  15.548 -1.3899 -0.3647 -1.6928
   8023SM  H16T10624   0.700   0.516  15.633  0.0904  0.2719  3.3016
   8023SM  C17S10625   0.915   0.438  15.592 -0.0216 -0.0883  0.0052
   8023SM  H17S10626   0.962   0.397  15.683  0.7583 -1.0302 -0.8015
   8023SM  H17T10627   0.999   0.481  15.535 -0.4387  0.6229 -0.0886
   8023SM  C18S10628   0.848   0.323  15.516  0.1623 -0.6157 -0.4654
   8023SM  H18S10629   0.917   0.236  15.521  0.8837 -0.1972 -2.2230
   8023SM  H18T10630   0.839   0.364  15.413 -3.7193  1.1906  0.4048
   8023SM  H18U10631   0.747   0.293  15.548 -0.0132 -0.2470 -0.6626
   8023SM   C1F10632   0.573   1.209  16.986 -0.0596  0.0444 -0.2733
   8023SM    OF10633   0.687   1.182  17.028 -0.5988 -0.3264  0.5355
   8023SM   C2F10634   0.532   1.346  16.945  0.4415 -0.1552  0.0235
   8023SM   H2F10635   0.502   1.408  17.033  0.0327  0.4429 -0.5269
   8023SM   H2G10636   0.439   1.354  16.885  1.1797  2.7166 -0.8917
   8023SM   C3F10637   0.626   1.416  16.843 -0.1476  0.9851  0.5816
   8023SM   H3F10638   0.623   1.376  16.740  0.2989  1.6167  0.3228
   8023SM   H3G10639   0.729   1.397  16.881 -0.9521  0.7741  2.8413
   8023SM   C4F10640   0.606   1.567  16.830 -0.4352 -0.2213 -0.0912
   8023SM   H4F10641   0.706   1.616  16.821  0.6798 -1.9949  1.7010
   8023SM   H4G10642   0.554   1.604  16.920 -1.5674 -0.1144 -0.7693
   8023SM   C5F10643   0.532   1.603  16.701 -0.4911  0.0639  0.9123
   8023SM   H5F10644   0.588   1.566  16.612 -1.0144 -2.8308  1.6685
   8023SM   H5G10645   0.518   1.712  16.689  0.0705  0.0520  0.0874
   8023SM   C6F10646   0.392   1.547  16.697  0.0693 -0.0682 -0.5398
   8023SM   H6F10647   0.337   1.587  16.785 -2.5466 -1.7536 -1.2798
   8023SM   H6G10648   0.390   1.436  16.702  1.4342 -0.1056 -0.5827
   8023SM   C7F10649   0.323   1.592  16.566 -0.2885  0.3367  0.1374
   8023SM   H7F10650   0.386   1.548  16.486  2.7474  2.9006  0.9215
   8023SM   H7G10651   0.320   1.702  16.550  2.3756  0.0767 -3.7551
   8023SM   C8F10652   0.189   1.521  16.535  0.2767  0.3552  0.0506
   8023SM   H8F10653   0.142   1.563  16.443  0.3635 -0.0110 -0.1654
   8023SM   H8G10654   0.128   1.540  16.625 -2.7220  3.2699 -2.3265
   8023SM   C9F10655   0.208   1.369  16.514  0.7678  0.3845 -0.2179
   8023SM   H9F10656   0.237   1.318  16.607 -0.6460  1.4885  0.8823
   8023SM   H9G10657   0.287   1.348  16.439  0.0614  2.4143 -1.6238
   8023SM  C10F10658   0.081   1.306  16.463  0.2970  0.6397  0.1996
   8023SM  H10F10659   0.055   1.368  16.374  1.7278  0.8807 -0.0869
   8023SM  H10G10660   0.001   1.331  16.535  2.1284  2.8824  1.5977
   8023SM  C11F10661   0.095   1.156  16.432  0.3749 -0.4226 -0.7907
   8023SM  H11F10662   0.000   1.111  16.469  0.4600  2.0505  3.1326
   8023SM  H11G10663   0.174   1.111  16.496  1.3439 -1.2948 -2.5573
   8023SM  C12F10664   0.112   1.125  16.282 -0.2800  0.0122  0.1021
   8023SM  H12F10665   0.188   1.199  16.249 -2.0924  0.9419 -2.2919
   8023SM  H12G10666   0.023   1.159  16.226  1.2608  0.8185 -2.0195
   8023SM  C13F10667   0.151   0.984  16.263 -0.1559 -0.0903  0.2190
   8023SM  H13F10668   0.057   0.935  16.230 -0.5464  0.1732  0.9030
   8023SM  H13G10669   0.179   0.924  16.352 -0.5190 -2.3824 -1.1387
   8023SM  C14F10670   0.268   0.963  16.161 -0.6225  0.7623 -0.2118
   8023SM  H14F10671   0.284   0.853  16.149  1.1954  0.6214  2.5141
   8023SM  H14G10672   0.361   1.002  16.207 -1.5919  1.9997  0.7871
   8023SM  C15F10673   0.244   1.036  16.025  0.1019  0.5396 -0.2044
   8023SM  H15F10674   0.259   1.146  16.024 -1.3272  0.7696  0.9954
   8023SM  H15G10675   0.143   1.015  15.983  0.7762  1.0704 -2.2454
   8023SM  C16F10676   0.348   0.980  15.921  0.4530 -0.5639  0.2031
   8023SM  H16F10677   0.312   0.876  15.904 -1.9612 -0.2776  2.7944
   8023SM  H16G10678   0.453   0.984  15.958  0.2744 -0.6675  0.7267
   8023SM  C17F10679   0.345   1.048  15.782  0.6275 -1.0682  0.6601
   8023SM  H17F10680   0.395   1.145  15.801 -1.0829 -0.0294  0.0285
   8023SM  H17G10681   0.238   1.060  15.755  1.4226  2.1005 -1.6959
   8023SM  C18F10682   0.413   0.950  15.675 -0.6862  0.0926 -0.0979
   8023SM  H18F10683   0.353   0.857  15.674  0.9990 -1.0874  1.1647
   8023SM  H18G10684   0.518   0.926  15.705 -0.8766 -0.1664  0.3723
   8023SM  C19F10685   0.410   1.002  15.529  0.2203 -0.3023  0.4503
   8023SM  H19F10686   0.479   1.088  15.519 -0.6374  0.4072  0.4847
   8023SM  H19G10687   0.308   1.040  15.504  0.1149 -0.1294  1.1317
   8023SM  C20F10688   0.455   0.890  15.430  0.2608 -0.3703  0.1480
   8023SM  H20F10689   0.391   0.803  15.456 -0.8124  0.2768 -0.2583
   8023SM  H20G10690   0.564   0.871  15.424  0.2821 -0.5307  0.9117
   8023SM  C21F10691   0.407   0.919  15.284  0.4934  0.1612  0.0632
   8023SM  H21F10692   0.474   0.987  15.227 -0.8559 -0.2628 -2.1358
   8023SM  H21G10693   0.306   0.964  15.292  0.7792  1.2278 -1.6608
   8023SM  C22F10694   0.396   0.791  15.197  0.3794 -0.3216  0.4408
   8023SM  H22F10695   0.346   0.829  15.105 -0.7241 -0.3209  1.0310
   8023SM  H22G10696   0.320   0.721  15.237  0.0054  1.3328  2.8746
   8023SM  C23F10697   0.522   0.717  15.170 -0.0265  0.1093  0.3206
   8023SM  H23F10698   0.507   0.623  15.112  1.5509  0.7499 -1.2173
   8023SM  H23G10699   0.582   0.697  15.261 -0.7441 -0.0689  0.7603
   8023SM  H23H10700   0.589   0.779  15.107  0.2189  0.0840  0.5538
   8123SM     N10701   1.942   3.537  12.404 -0.3800  0.0372  0.0350
   8123SM   C1510702   1.936   3.420  12.307 -0.5162  0.3153  0.2727
   8123SM  H15A10703   2.033   3.377  12.289  0.1258  2.1296 -0.9347
   8123SM  H15B10704   1.894   3.451  12.213 -3.5318  0.2540  1.4904
   8123SM  H15C10705   1.876   3.343  12.353  1.1405 -1.7127 -0.8173
   8123SM   C1410706   1.801   3.575  12.433  0.0716  0.0855 -0.3637
   8123SM  H14A10707   1.752   3.615  12.345  0.8737  0.8145 -0.4870
   8123SM  H14B10708   1.800   3.650  12.511  0.7200 -0.3630  0.0843
   8123SM  H14C10709   1.746   3.494  12.479  0.4961  0.8527  1.6024
   8123SM   C1310710   2.006   3.484  12.529 -0.2732  0.0212  0.3238
   8123SM  H13A10711   1.947   3.409  12.581  1.9019 -2.9005 -1.1120
   8123SM  H13B10712   2.034   3.572  12.584 -0.4484  2.4690 -3.1795
   8123SM  H13C10713   2.099   3.435  12.504  0.5342  0.7998  1.6480
   8123SM   C1210714   2.010   3.659  12.342  0.4390 -0.5298 -0.4776
   8123SM  H12A10715   1.979   3.689  12.243  0.1674 -1.3464 -0.6488
   8123SM  H12B10716   2.112   3.634  12.314  1.2755  2.1058 -0.0699
   8123SM   C1110717   2.026   3.789  12.431 -0.4910 -1.1394  0.5602
   8123SM  H11A10718   1.925   3.835  12.419 -1.0031 -2.5988 -1.2383
   8123SM  H11B10719   2.091   3.861  12.377 -0.4974 -0.8893  0.8873
   8123SM     P10720   2.192   3.842  12.615  0.2110 -0.5620 -0.0752
   8123SM   O1310721   2.236   3.795  12.752 -0.1108 -0.1458 -0.2539
   8123SM   O1410722   2.302   3.829  12.508 -0.3868 -0.4662 -0.4298
   8123SM   O1110723   2.152   3.998  12.618  0.0926 -0.6757 -0.2857
   8123SM   O1210724   2.055   3.767  12.574 -0.0481  0.2212 -0.6928
   8123SM   C1S10725   2.034   4.023  12.695  0.5574 -0.4070 -0.0505
   8123SM   H1S10726   1.951   3.951  12.679 -0.6578  0.6574  1.2093
   8123SM   H1T10727   1.989   4.113  12.648 -1.3745 -0.3032  1.8287
   8123SM    NF10728   1.935   4.113  12.895  0.0275  0.2685  0.2770
   8123SM   HNF10729   1.915   4.211  12.892  1.1480  0.5934  1.8242
   8123SM   C2S10730   2.056   4.065  12.844 -0.6012 -0.2636  0.0574
   8123SM   H2S10731   2.091   3.973  12.896  0.8309  1.1376  1.6863
   8123SM   C3S10732   2.169   4.169  12.849 -0.0794 -0.0766  0.3246
   8123SM   H3S10733   2.141   4.251  12.780 -1.0420 -0.9674 -0.3759
   8123SM    O310734   2.300   4.129  12.811 -0.2415  0.1486  0.0451
   8123SM   HO310735   2.295   4.037  12.784  1.3184  0.3930 -1.2843
   8123SM   C4S10736   2.180   4.208  12.992  0.0431 -0.4140  0.6165
   8123SM   H4S10737   2.196   4.126  13.062 -1.7270  0.4302  2.0864
   8123SM   C5S10738   2.173   4.337  13.036 -0.0000 -0.5095  0.2233
   8123SM   H5S10739   2.170   4.416  12.959  2.4870  0.8874  1.4198
   8123SM   C6S10740   2.182   4.382  13.179  0.4767 -0.5405  0.7958
   8123SM   H6S10741   2.082   4.406  13.221 -0.1667 -0.2762 -0.8386
   8123SM   H6T10742   2.246   4.473  13.184  0.0386 -0.2287  0.8767
   8123SM   C7S10743   2.237   4.287  13.285 -0.8398 -0.0202 -0.6085
   8123SM   H7S10744   2.342   4.258  13.266 -1.2319 -2.6365  0.7422
   8123SM   H7T10745   2.184   4.190  13.276  0.7580 -0.8306 -1.6079
   8123SM   C8S10746   2.242   4.350  13.416  0.7208 -0.2924 -0.3105
   8123SM   H8S10747   2.140   4.377  13.452  0.3680  0.8940 -2.0312
   8123SM   H8T10748   2.310   4.436  13.398 -1.9140  2.1249  0.4848
   8123SM   C9S10749   2.300   4.255  13.529  0.1407 -0.5437 -0.4405
   8123SM   H9S10750   2.402   4.230  13.493 -0.4250 -0.5498 -2.1567
   8123SM   H9T10751   2.244   4.159  13.539  1.3429 -1.3754 -1.3762
   8123SM  C10S10752   2.285   4.326  13.661  0.2166  0.0146 -0.6657
   8123SM  H10S10753   2.202   4.399  13.666  0.2876  0.0762 -0.3393
   8123SM  H10T10754   2.381   4.378  13.675  0.6250 -0.6352 -1.0056
   8123SM  C11S10755   2.273   4.224  13.772  0.3885 -0.4280 -0.2983
   8123SM  H11S10756   2.357   4.155  13.750  0.8494  0.8122 -2.9260
   8123SM  H11T10757   2.180   4.166  13.757  0.5198 -0.8931  0.6229
   8123SM  C12S10758   2.294   4.274  13.913 -0.3477 -0.4779 -0.8201
   8123SM  H12S10759   2.356   4.366  13.915  1.6746 -1.7630 -1.5522
   8123SM  H12T10760   2.342   4.197  13.976  1.7071  0.4766 -1.1454
   8123SM  C13S10761   2.161   4.329  13.973  0.5238  0.1967  0.7227
   8123SM  H13S10762   2.076   4.256  13.974  0.0191  0.7719  0.2960
   8123SM  H13T10763   2.132   4.415  13.910 -1.0037 -0.7734  0.0240
   8123SM  C14S10764   2.177   4.376  14.117 -0.7102 -0.0159  0.6669
   8123SM  H14S10765   2.082   4.432  14.123 -0.9708  0.3487 -3.6583
   8123SM  H14T10766   2.262   4.447  14.127 -0.5048 -0.3004  0.9723
   8123SM  C15S10767   2.173   4.275  14.229  0.8015  0.3104 -0.1743
   8123SM  H15S10768   2.269   4.222  14.248  0.5970  0.0566  0.1543
   8123SM  H15T10769   2.099   4.195  14.207 -0.8835  1.5274  0.8523
   8123SM  C16S10770   2.133   4.348  14.355 -0.0149 -0.3724 -0.3378
   8123SM  H16S10771   2.039   4.407  14.347 -0.0025 -0.0979  1.2915
   8123SM  H16T10772   2.206   4.431  14.371  0.0004 -0.2811 -0.8552
   8123SM  C17S10773   2.126   4.269  14.489  0.2328 -0.1839  0.2479
   8123SM  H17S10774   2.026   4.220  14.492  0.1715 -0.1674 -0.9806
   8123SM  H17T10775   2.127   4.333  14.579 -1.6413 -0.3411  0.4301
   8123SM  C18S10776   2.218   4.150  14.506 -0.8678  0.3863 -0.1119
   8123SM  H18S10777   2.208   4.081  14.420  2.3547  1.3605 -1.4470
   8123SM  H18T10778   2.181   4.097  14.596 -1.0762  1.1530  0.2637
   8123SM  H18U10779   2.324   4.184  14.516 -0.2249 -0.6883 -2.5460
   8123SM   C1F10780   1.825   4.038  12.918 -0.4917 -0.0275 -0.4579
   8123SM    OF10781   1.831   3.915  12.933 -0.1532 -0.4334  0.4606
   8123SM   C2F10782   1.693   4.107  12.936  0.3306 -0.5316 -0.3509
   8123SM   H2F10783   1.606   4.044  12.907 -2.1046  1.3122  2.3958
   8123SM   H2G10784   1.684   4.194  12.868  0.0935 -1.5706 -1.7158
   8123SM   C3F10785   1.668   4.143  13.088  0.0725 -0.0006  0.5423
   8123SM   H3F10786   1.644   4.047  13.138  1.6297 -1.3912 -1.2246
   8123SM   H3G10787   1.578   4.208  13.091  0.4579  0.5275  0.6586
   8123SM   C4F10788   1.789   4.210  13.160  0.6008 -0.6765  0.1147
   8123SM   H4F10789   1.802   4.313  13.121  2.2222 -0.1578  1.9041
   8123SM   H4G10790   1.882   4.150  13.147  0.0424 -1.9525  1.6302
   8123SM   C5F10791   1.750   4.223  13.315 -0.1843  1.1635  1.5607
   8123SM   H5F10792   1.754   4.122  13.361 -1.6385  1.1305  1.6531
   8123SM   H5G10793   1.646   4.258  13.334 -0.7106  0.9411 -0.5629
   8123SM   C6F10794   1.844   4.317  13.391  0.0113  0.6965 -0.0282
   8123SM   H6F10795   1.817   4.420  13.361 -0.8412  0.0093 -1.7573
   8123SM   H6G10796   1.948   4.295  13.361 -1.2998 -0.9770 -3.9144
   8123SM   C7F10797   1.817   4.310  13.540  0.0325 -0.1539  0.0800
   8123SM   H7F10798   1.857   4.214  13.581  0.4585  0.0280  0.0885
   8123SM   H7G10799   1.707   4.312  13.560 -0.3074  1.4349 -1.7042
   8123SM   C8F10800   1.877   4.427  13.607 -0.8452 -0.6537 -0.3503
   8123SM   H8F10801   1.844   4.519  13.554 -0.2480  0.7779  1.6358
   8123SM   H8G10802   1.988   4.425  13.614 -0.5771 -0.9096 -3.4827
   8123SM   C9F10803   1.825   4.442  13.751  0.6529  0.0020 -0.6148
   8123SM   H9F10804   1.851   4.354  13.813  0.3024  1.0889  1.1667
   8123SM   H9G10805   1.714   4.445  13.753  0.6495  2.3081  1.2507
   8123SM  C10F10806   1.873   4.569  13.819  0.0054 -0.0117  0.4608
   8123SM  H10F10807   1.851   4.656  13.753 -1.5758 -0.7304  0.0099
   8123SM  H10G10808   1.984   4.572  13.830  0.2951 -1.1348 -1.5682
   8123SM  C11F10809   1.811   4.597  13.954  0.3796 -0.2375  0.2728
   8123SM  H11F10810   1.806   4.506  14.017 -4.1528 -1.3201 -1.2913
   8123SM  H11G10811   1.707   4.633  13.939  1.0973  1.6660 -0.5594
   8123SM  C12F10812   1.899   4.694  14.033  0.6744  0.6267  0.2221
   8123SM  H12F10813   1.918   4.777  13.962  0.7868  0.9645  0.6418
   8123SM  H12G10814   1.990   4.636  14.059 -0.3612 -0.0743  2.6429
   8123SM  C13F10815   1.834   4.762  14.150 -0.4053 -0.0034  0.5195
   8123SM  H13F10816   1.732   4.802  14.132  0.3476  2.0321  0.4745
   8123SM  H13G10817   1.894   4.854  14.166 -2.6033  1.5169  0.4765
   8123SM  C14F10818   1.823   4.671  14.281  0.6298  0.0587  1.1735
   8123SM  H14F10819   1.910   4.603  14.290  0.7530  0.0582  0.0929
   8123SM  H14G10820   1.729   4.615  14.265  0.6686  0.7539 -2.2637
   8123SM  C15F10821   1.811   4.750  14.410 -0.3788  0.2935 -0.3571
   8123SM  H15F10822   1.721   4.813  14.394 -0.3154  0.5827  0.4066
   8123SM  H15G10823   1.890   4.824  14.434  1.1396  0.0702 -3.9582
   8123SM  C16F10824   1.787   4.651  14.523  0.1842 -0.1217  0.6873
   8123SM  H16F10825   1.880   4.605  14.564  1.3191  0.5188 -1.0227
   8123SM  H16G10826   1.724   4.569  14.483 -2.7605  2.2028  0.2629
   8123SM  C17F10827   1.719   4.721  14.641  0.1908 -0.8106 -0.1354
   8123SM  H17F10828   1.699   4.654  14.727 -2.9783  0.6450  0.3883
   8123SM  H17G10829   1.618   4.751  14.604  0.4615  0.5199  0.1525
   8123SM  C18F10830   1.807   4.846  14.695  0.7062  1.1277  0.4671
   8123SM  H18F10831   1.753   4.905  14.771  0.5145 -0.4505  1.6159
   8123SM  H18G10832   1.823   4.912  14.608  1.5427  0.3276 -0.0104
   8123SM  C19F10833   1.941   4.803  14.759 -0.3615  0.4512  0.3460
   8123SM  H19F10834   2.025   4.870  14.731  0.6394 -1.4331 -1.4178
   8123SM  H19G10835   1.970   4.706  14.712  2.7564 -1.1999  4.9320
   8123SM  C20F10836   1.937   4.793  14.908 -0.6405  0.1908 -0.1894
   8123SM  H20F10837   1.859   4.720  14.939  0.6396 -1.4714 -0.6929
   8123SM  H20G10838   1.888   4.884  14.947 -1.8975 -0.5896  0.1356
   8123SM  C21F10839   2.069   4.762  14.981 -0.5657 -0.5240 -0.4655
   8123SM  H21F10840   2.132   4.853  14.980 -0.9525 -0.1841  1.8238
   8123SM  H21G10841   2.119   4.675  14.932 -1.4134 -0.6611 -1.1298
   8123SM  C22F10842   2.041   4.721  15.130  0.4169 -0.0131  0.2040
   8123SM  H22F10843   2.007   4.616  15.119 -1.8984  0.4542  2.1712
   8123SM  H22G10844   1.965   4.782  15.183 -0.0202 -1.1910  0.9635
   8123SM  C23F10845   2.176   4.715  15.205 -0.0088 -0.4297  0.2181
   8123SM  H23F10846   2.251   4.642  15.169  1.8477  0.9636  1.0750
   8123SM  H23G10847   2.154   4.687  15.310 -2.4810  1.2461  0.2427
   8123SM  H23H10848   2.218   4.817  15.209 -0.0439 -0.4454  2.0067
   8223SM     N10849   2.042   5.051  12.182  0.0900 -0.2971 -0.6089
   8223SM   C1510850   1.956   5.174  12.219  0.6686  0.4848  0.0837
   8223SM  H15A10851   1.916   5.159  12.318 -0.2585  1.2996 -0.1623
   8223SM  H15B10852   1.872   5.179  12.151  1.0859  2.3186 -0.3480
   8223SM  H15C10853   2.008   5.269  12.218  1.1430  0.2330 -0.9909
   8223SM   C1410854   1.945   4.938  12.164  0.3046 -0.1371 -0.8318
   8223SM  H14A10855   1.985   4.844  12.130  0.8200 -0.6981  1.1736
   8223SM  H14B10856   1.859   4.963  12.103 -1.0126 -1.1913  0.5254
   8223SM  H14C10857   1.898   4.919  12.259 -0.9007 -0.8523 -1.5524
   8223SM   C1310858   2.123   5.070  12.060 -0.5417 -0.5291 -0.8571
   8223SM  H13A10859   2.195   5.149  12.075 -0.2440 -0.7971 -0.8692
   8223SM  H13B10860   2.056   5.086  11.976  0.1557 -0.2354 -1.3613
   8223SM  H13C10861   2.175   4.980  12.031 -1.6400 -0.8865 -1.8022
   8223SM   C1210862   2.144   5.018  12.294  0.1121  0.6460  0.6359
   8223SM  H12A10863   2.226   5.088  12.293  2.2984 -1.7876 -0.9879
   8223SM  H12B10864   2.194   4.925  12.272  0.3277  0.3876  2.0753
   8223SM   C1110865   2.088   5.003  12.439  0.4076  0.0889  0.0921
   8223SM  H11A10866   2.032   5.094  12.469  0.5886  0.0949  0.4130
   8223SM  H11B10867   2.173   4.993  12.510 -0.2266 -3.2922  0.5450
   8223SM     P10868   2.035   4.745  12.465  0.3349  0.1694 -0.1567
   8223SM   O1310869   1.922   4.667  12.521 -0.0375 -0.4904  0.5763
   8223SM   O1410870   2.088   4.704  12.338 -0.1886 -0.3724  0.8806
   8223SM   O1110871   2.151   4.759  12.572  0.5519 -0.1149  0.2295
   8223SM   O1210872   1.998   4.900  12.441 -0.3649 -0.0580  0.2388
   8223SM   C1S10873   2.124   4.799  12.709 -0.2774 -1.2468 -1.3384
   8223SM   H1S10874   2.018   4.783  12.739 -0.0775 -0.8530 -0.3544
   8223SM   H1T10875   2.146   4.907  12.726  0.1941 -1.7996  2.4867
   8223SM    NF10876   2.161   4.761  12.954  1.1298  0.0295 -0.2081
   8223SM   HNF10877   2.210   4.827  13.011  1.8122  0.7423 -1.5916
   8223SM   C2S10878   2.217   4.725  12.819  0.4951 -0.2988  0.8083
   8223SM   H2S10879   2.208   4.614  12.818 -1.4243 -0.2256  2.8114
   8223SM   C3S10880   2.364   4.759  12.788 -0.6355  0.2640  1.2147
   8223SM   H3S10881   2.386   4.864  12.820 -0.3593  1.0272 -1.2738
   8223SM    O310882   2.417   4.754  12.655  0.0027 -0.5184  0.6614
   8223SM   HO310883   2.344   4.730  12.598  0.5385 -0.0694 -0.2259
   8223SM   C4S10884   2.451   4.681  12.886  0.4344 -0.3703  0.0788
   8223SM   H4S10885   2.477   4.733  12.979 -1.1434 -1.3180  1.1065
   8223SM   C5S10886   2.505   4.557  12.869 -0.7485  0.3087 -1.0124
   8223SM   H5S10887   2.484   4.500  12.778  1.0040 -1.7361 -0.2197
   8223SM   C6S10888   2.596   4.482  12.969  0.3011 -0.8792  0.0130
   8223SM   H6S10889   2.687   4.445  12.917 -0.7828 -1.4468 -1.5426
   8223SM   H6T10890   2.542   4.388  12.995 -1.1875 -0.1553 -0.3366
   8223SM   C7S10891   2.631   4.544  13.105 -0.4802 -0.4578 -0.0848
   8223SM   H7S10892   2.561   4.623  13.139 -0.4196 -0.7028  0.6438
   8223SM   H7T10893   2.729   4.597  13.096 -1.1386  1.0772  1.2144
   8223SM   C8S10894   2.635   4.445  13.224  0.4949  0.0751 -0.3700
   8223SM   H8S10895   2.727   4.383  13.215  1.0765  0.9190 -0.4121
   8223SM   H8T10896   2.551   4.373  13.214  3.1505 -3.2742 -0.6025
   8223SM   C9S10897   2.636   4.516  13.356 -0.8270 -0.0090 -0.1000
   8223SM   H9S10898   2.555   4.592  13.366  0.9801  1.8072  1.9525
   8223SM   H9T10899   2.727   4.580  13.364 -0.8885  0.5124 -2.6771
   8223SM  C10S10900   2.628   4.432  13.487 -0.0845 -0.0857  0.0164
   8223SM  H10S10901   2.544   4.361  13.468 -0.3113  0.0450  0.5318
   8223SM  H10T10902   2.598   4.491  13.576 -0.4335  2.2999 -1.5855
   8223SM  C11S10903   2.763   4.370  13.521 -0.3807 -0.3686  0.1228
   8223SM  H11S10904   2.852   4.436  13.513 -0.6500 -0.2283 -3.3002
   8223SM  H11T10905   2.788   4.288  13.450  0.7264 -0.3607  0.4927
   8223SM  C12S10906   2.763   4.310  13.668 -0.5214 -0.0155 -0.1057
   8223SM  H12S10907   2.854   4.246  13.672 -1.1303 -0.8487  1.4926
   8223SM  H12T10908   2.675   4.243  13.681 -1.8627  1.8615  0.8803
   8223SM  C13S10909   2.767   4.415  13.784 -0.0638  0.0305 -0.4134
   8223SM  H13S10910   2.680   4.482  13.766 -0.3150  1.0348  3.5195
   8223SM  H13T10911   2.858   4.478  13.778  0.5906 -0.7686  0.5721
   8223SM  C14S10912   2.771   4.362  13.936 -0.2319  0.1677  0.2975
   8223SM  H14S10913   2.792   4.444  14.008 -0.3496 -0.3704  0.9440
   8223SM  H14T10914   2.860   4.296  13.935 -0.4832 -0.2107 -1.6614
   8223SM  C15S10915   2.634   4.295  13.966 -0.0916  0.1216 -0.3678
   8223SM  H15S10916   2.646   4.197  13.915 -1.0124  0.0690 -0.4841
   8223SM  H15T10917   2.550   4.353  13.924 -0.4378  0.1456  0.3434
   8223SM  C16S10918   2.604   4.256  14.113 -0.3392 -0.0035  0.1664
   8223SM  H16S10919   2.697   4.208  14.153 -0.3302  1.6024  2.2419
   8223SM  H16T10920   2.516   4.189  14.123 -1.7518  1.6165 -0.9492
   8223SM  C17S10921   2.576   4.375  14.201  0.0694  0.0253 -0.1921
   8223SM  H17S10922   2.485   4.423  14.160  0.4555 -0.4751 -1.6852
   8223SM  H17T10923   2.658   4.450  14.200  0.0984  0.0012  0.2327
   8223SM  C18S10924   2.556   4.339  14.349 -0.9986  0.1633 -0.0663
   8223SM  H18S10925   2.493   4.248  14.352 -2.0100  0.8652  1.5658
   8223SM  H18T10926   2.509   4.426  14.401 -1.5616  0.4044 -0.9499
   8223SM  H18U10927   2.654   4.326  14.400 -1.1743 -2.2065 -0.2327
   8223SM   C1F10928   2.042   4.725  12.997  0.1476  0.1510  0.0091
   8223SM    OF10929   1.968   4.648  12.932 -0.4627 -0.8066  0.3267
   8223SM   C2F10930   1.999   4.787  13.124  0.4978 -0.0499 -0.9229
   8223SM   H2F10931   1.892   4.817  13.122  0.7112  0.8679  0.3647
   8223SM   H2G10932   2.052   4.885  13.132 -0.9587  0.6502  1.0096
   8223SM   C3F10933   2.031   4.696  13.243 -0.2234  0.5813 -0.8746
   8223SM   H3F10934   2.138   4.666  13.244  0.0554  1.5388  0.6351
   8223SM   H3G10935   1.964   4.608  13.242  0.2685  0.1609  0.6189
   8223SM   C4F10936   2.016   4.781  13.375  0.1560  0.3087 -0.0628
   8223SM   H4F10937   1.909   4.813  13.375  0.0970  0.5862 -3.9379
   8223SM   H4G10938   2.065   4.880  13.370  0.7778 -0.0307 -0.7655
   8223SM   C5F10939   2.054   4.715  13.503 -0.5992  0.1040  0.5000
   8223SM   H5F10940   2.066   4.604  13.504  0.5153  0.2117  0.2370
   8223SM   H5G10941   1.968   4.725  13.573  0.7930 -0.5174  2.3642
   8223SM   C6F10942   2.168   4.781  13.573 -0.0079 -0.4695 -0.1463
   8223SM   H6F10943   2.139   4.878  13.619  0.6630  0.1808 -1.0838
   8223SM   H6G10944   2.250   4.808  13.504 -1.6914  1.7975 -1.3855
   8223SM   C7F10945   2.222   4.699  13.692 -0.1961 -0.3824  0.5838
   8223SM   H7F10946   2.219   4.590  13.674  3.3175 -1.0064  2.7468
   8223SM   H7G10947   2.150   4.719  13.774  1.2918  2.2959  1.3728
   8223SM   C8F10948   2.367   4.723  13.725 -0.3650  0.0124  0.2665
   8223SM   H8F10949   2.392   4.831  13.725  2.3628 -0.4153 -3.4902
   8223SM   H8G10950   2.425   4.690  13.636  0.0578  2.5008 -0.4347
   8223SM   C9F10951   2.417   4.653  13.849  0.5326  0.6592  0.1364
   8223SM   H9F10952   2.461   4.555  13.819  0.4476  0.9449 -0.9667
   8223SM   H9G10953   2.329   4.619  13.908 -0.2530  1.7486 -0.3984
   8223SM  C10F10954   2.507   4.732  13.947  0.4208 -0.2589  0.2923
   8223SM  H10F10955   2.573   4.801  13.888 -1.4224  0.2353 -1.3023
   8223SM  H10G10956   2.577   4.664  14.001  2.1616  1.4470  0.3266
   8223SM  C11F10957   2.433   4.813  14.049 -0.3006 -0.1854  0.6032
   8223SM  H11F10958   2.353   4.868  13.995  0.0882 -0.9404 -0.7855
   8223SM  H11G10959   2.509   4.882  14.092  1.3559 -0.4262 -1.7178
   8223SM  C12F10960   2.373   4.737  14.160 -0.5759  0.0826  0.1372
   8223SM  H12F10961   2.452   4.679  14.213  1.5806  2.4295 -0.3303
   8223SM  H12G10962   2.305   4.659  14.120 -0.9383  1.0508 -1.2078
   8223SM  C13F10963   2.298   4.828  14.262 -0.0186  0.6972  0.1017
   8223SM  H13F10964   2.200   4.863  14.223 -1.4182  0.2025  2.8719
   8223SM  H13G10965   2.369   4.911  14.281 -0.0672  0.6678  0.4231
   8223SM  C14F10966   2.272   4.766  14.399  0.7909  0.5549 -0.1477
   8223SM  H14F10967   2.197   4.686  14.388  1.2399 -0.1148  1.4199
   8223SM  H14G10968   2.225   4.846  14.461  1.3992  0.2376  0.7513
   8223SM  C15F10969   2.397   4.724  14.478 -0.1912 -0.2323  0.8443
   8223SM  H15F10970   2.461   4.811  14.508  0.2490 -0.6175  1.0325
   8223SM  H15G10971   2.459   4.656  14.417 -0.1500 -0.2773  0.9348
   8223SM  C16F10972   2.345   4.657  14.601 -0.5319 -0.4639 -0.0617
   8223SM  H16F10973   2.293   4.563  14.572  1.1065 -1.0906 -1.1501
   8223SM  H16G10974   2.288   4.726  14.667  1.8762  4.4250 -2.5216
   8223SM  C17F10975   2.459   4.602  14.691 -0.3981 -0.0506 -0.4695
   8223SM  H17F10976   2.539   4.676  14.709  0.1358 -0.8626  0.5915
   8223SM  H17G10977   2.508   4.521  14.632 -1.7150 -0.8362 -0.5451
   8223SM  C18F10978   2.408   4.552  14.830 -0.0869  0.6166  0.2108
   8223SM  H18F10979   2.313   4.496  14.822  0.3587 -0.5031  2.0390
   8223SM  H18G10980   2.384   4.642  14.891 -2.3075 -0.8053  1.5721
   8223SM  C19F10981   2.514   4.472  14.897 -0.1186  0.6428 -0.3940
   8223SM  H19F10982   2.597   4.543  14.917 -1.5070  2.5877 -1.3074
   8223SM  H19G10983   2.557   4.392  14.833 -0.4159  0.5825 -0.5207
   8223SM  C20F10984   2.474   4.407  15.032 -0.1329  0.0981  0.2233
   8223SM  H20F10985   2.445   4.485  15.105  0.7026  0.9574 -0.3461
   8223SM  H20G10986   2.562   4.346  15.061 -0.8894 -0.8487  0.6155
   8223SM  C21F10987   2.359   4.299  15.026  0.1713 -0.3902  0.1479
   8223SM  H21F10988   2.272   4.344  14.973  0.2414 -1.2728 -0.7385
   8223SM  H21G10989   2.325   4.267  15.126  0.0194  0.9238  0.5355
   8223SM  C22F10990   2.406   4.176  14.948  0.4908 -1.1622 -0.3582
   8223SM  H22F10991   2.504   4.139  14.984 -0.1388 -2.5202  0.0069
   8223SM  H22G10992   2.419   4.202  14.841 -0.0836 -0.2484 -0.2206
   8223SM  C23F10993   2.304   4.065  14.956  0.2258  0.0268 -0.5204
   8223SM  H23F10994   2.360   3.969  14.949  1.5234  0.7599 -0.4337
   8223SM  H23G10995   2.222   4.078  14.882 -1.6232  2.2162  1.6967
   8223SM  H23H10996   2.247   4.074  15.051 -0.4917 -0.0388 -0.9331
   8323SM     N10997   3.643   4.279  12.733  0.5167 -0.0766 -0.4690
   8323SM   C1510998   3.634   4.426  12.774 -1.0318  0.4434 -0.1666
   8323SM  H15A10999   3.649   4.442  12.880 -0.7180 -1.0682  0.0427
   8323SM  H15B11000   3.540   4.470  12.743 -0.4603  1.8560  0.0142
   8323SM  H15C11001   3.716   4.482  12.732 -0.9239  0.8604  0.5832
   8323SM   C1411002   3.642   4.294  12.582  0.2382 -0.1922 -0.0936
   8323SM  H14A11003   3.651   4.193  12.545 -1.7089 -0.5963  0.4111
   8323SM  H14B11004   3.728   4.356  12.560  0.3098 -0.4864 -0.6456
   8323SM  H14C11005   3.547   4.335  12.550 -0.7819 -1.7681  0.7729
   8323SM   C1311006   3.770   4.211  12.782  0.1585  0.1293 -0.4931
   8323SM  H13A11007   3.775   4.198  12.889  0.4863  0.0477 -0.5149
   8323SM  H13B11008   3.856   4.272  12.756 -1.7610  2.6870 -1.2044
   8323SM  H13C11009   3.777   4.117  12.730  0.0014 -0.2482  0.1563
   8323SM   C1211010   3.526   4.198  12.783  0.7692  0.1068 -0.9050
   8323SM  H12A11011   3.551   4.158  12.880  1.8456 -0.1918 -1.2940
   8323SM  H12B11012   3.515   4.107  12.725 -1.8078  0.4135 -1.0139
   8323SM   C1111013   3.378   4.265  12.779 -0.3319  0.4416 -0.2473
   8323SM  H11A11014   3.376   4.372  12.810  1.8422  0.2693  0.6879
   8323SM  H11B11015   3.311   4.200  12.838 -0.6902  1.5015  0.5330
   8323SM     P11016   3.250   4.159  12.571 -0.2065 -0.3225  0.0541
   8323SM   O1311017   3.205   4.212  12.442  0.3332 -0.1772 -0.0102
   8323SM   O1411018   3.328   4.030  12.565  0.3067 -0.0654  0.3687
   8323SM   O1111019   3.129   4.138  12.668 -0.5136 -0.9538 -0.1390
   8323SM   O1211020   3.341   4.273  12.642 -0.2961  0.2597 -0.0179
   8323SM   C1S11021   3.035   4.246  12.673 -0.0205 -0.5686  0.1396
   8323SM   H1S11022   2.987   4.261  12.574  1.0545 -1.5933 -0.5633
   8323SM   H1T11023   3.079   4.345  12.697  0.2419 -0.7125  0.2669
   8323SM    NF11024   2.997   4.258  12.920 -0.0276  0.4425 -0.1983
   8323SM   HNF11025   3.044   4.182  12.964 -1.5631  0.5455  1.7613
   8323SM   C2S11026   2.936   4.225  12.791 -0.0282 -0.2156 -0.7572
   8323SM   H2S11027   2.843   4.285  12.779 -1.3263 -2.4925 -3.0415
   8323SM   C3S11028   2.882   4.076  12.787 -0.1022  0.6107  0.2772
   8323SM   H3S11029   2.970   4.010  12.801  1.3300  2.5428  0.8483
   8323SM    O311030   2.812   4.050  12.665 -0.1693  0.1601 -0.5334
   8323SM   HO311031   2.819   4.132  12.615  0.0831  1.4349  1.4842
   8323SM   C4S11032   2.790   4.050  12.902 -1.1258  0.6179  0.0493
   8323SM   H4S11033   2.839   3.998  12.986 -0.3251  1.0993 -0.1054
   8323SM   C5S11034   2.656   4.071  12.903 -0.4132 -0.1171  0.6056
   8323SM   H5S11035   2.606   4.110  12.813 -0.9003 -1.2857  0.3498
   8323SM   C6S11036   2.561   4.048  13.021 -0.0024  0.1059  0.6163
   8323SM   H6S11037   2.480   3.977  12.993  0.5011 -0.4615  0.5750
   8323SM   H6T11038   2.506   4.141  13.044  0.0654  1.0234 -2.4122
   8323SM   C7S11039   2.616   3.995  13.157  0.8875 -0.5042  0.2368
   8323SM   H7S11040   2.693   4.065  13.196 -2.2918  2.5739  1.5031
   8323SM   H7T11041   2.671   3.900  13.147  0.5343 -0.7118  0.2673
   8323SM   C8S11042   2.503   3.983  13.257  0.1891 -0.0578 -0.2346
   8323SM   H8S11043   2.434   3.904  13.219  1.4894 -0.4892 -1.7878
   8323SM   H8T11044   2.455   4.083  13.268  2.7908  1.2055  0.4182
   8323SM   C9S11045   2.559   3.951  13.395 -0.3296 -0.9518  0.6255
   8323SM   H9S11046   2.631   4.027  13.432 -0.7581 -0.9932  1.5679
   8323SM   H9T11047   2.606   3.851  13.386 -0.5960 -0.9709 -0.8803
   8323SM  C10S11048   2.444   3.922  13.493  0.0187 -0.3898  0.5424
   8323SM  H10S11049   2.397   3.829  13.455  1.1208 -0.3963 -0.8772
   8323SM  H10T11050   2.368   4.004  13.492 -1.1051 -1.3821 -1.6922
   8323SM  C11S11051   2.485   3.907  13.639 -0.3558 -0.1451 -0.0720
   8323SM  H11S11052   2.503   4.004  13.689  1.0837 -0.9969  1.1529
   8323SM  H11T11053   2.584   3.856  13.645  0.8434  1.9097 -1.3237
   8323SM  C12S11054   2.394   3.816  13.721 -0.2973 -0.4780 -0.5566
   8323SM  H12S11055   2.397   3.710  13.689  2.2122 -1.2765  1.9100
   8323SM  H12T11056   2.292   3.861  13.716 -0.1647 -0.0013  0.6614
   8323SM  C13S11057   2.452   3.815  13.870 -0.4731 -0.3032 -0.0767
   8323SM  H13S11058   2.483   3.921  13.883  1.1007 -0.5608 -1.2943
   8323SM  H13T11059   2.535   3.740  13.869 -0.2251 -0.0935  1.9221
   8323SM  C14S11060   2.349   3.786  13.975 -0.1478  0.4309 -0.5192
   8323SM  H14S11061   2.306   3.684  13.968 -0.7863  0.5325  1.3992
   8323SM  H14T11062   2.267   3.860  13.965  0.3683  1.4766  2.2706
   8323SM  C15S11063   2.412   3.811  14.116 -0.7103  0.1681 -0.8261
   8323SM  H15S11064   2.458   3.912  14.113  2.0841 -0.9985 -0.0610
   8323SM  H15T11065   2.490   3.733  14.127 -0.0263  0.5898 -2.4623
   8323SM  C16S11066   2.307   3.794  14.228 -0.1618  0.4362 -0.6188
   8323SM  H16S11067   2.267   3.691  14.234  1.3972 -0.1822 -0.3249
   8323SM  H16T11068   2.230   3.871  14.209 -2.0452 -1.5076 -1.2686
   8323SM  C17S11069   2.369   3.834  14.367  0.3359  0.3149  0.6557
   8323SM  H17S11070   2.278   3.846  14.430 -0.1609 -4.0593  1.1025
   8323SM  H17T11071   2.413   3.934  14.351 -0.7211  0.9375  1.5251
   8323SM  C18S11072   2.456   3.713  14.425  0.2279 -0.0253 -0.1840
   8323SM  H18S11073   2.478   3.726  14.533  0.0606 -1.1876  0.0017
   8323SM  H18T11074   2.547   3.697  14.364  0.5906  1.8180 -0.1955
   8323SM  H18U11075   2.405   3.617  14.405  1.3855 -0.7304  0.1836
   8323SM   C1F11076   3.023   4.384  12.953  0.4687  0.3138 -0.4002
   8323SM    OF11077   2.981   4.477  12.892  0.2450 -0.2584  0.6448
   8323SM   C2F11078   3.116   4.407  13.067 -0.4424  0.2009 -0.8276
   8323SM   H2F11079   3.177   4.499  13.051 -2.8712  1.6894 -2.2566
   8323SM   H2G11080   3.195   4.329  13.074  0.4177  1.2298  2.2468
   8323SM   C3F11081   3.041   4.421  13.205  0.6201 -0.3696 -0.0263
   8323SM   H3F11082   3.000   4.323  13.238 -3.8497  0.8059 -1.2788
   8323SM   H3G11083   2.945   4.474  13.182  2.1412  2.6611  0.1057
   8323SM   C4F11084   3.111   4.500  13.312 -1.1483 -0.2081  0.2886
   8323SM   H4F11085   3.061   4.486  13.410 -0.1831  2.0388  1.1654
   8323SM   H4G11086   3.096   4.607  13.284 -1.4815 -0.3721 -0.1797
   8323SM   C5F11087   3.265   4.470  13.323  0.4942  0.4393 -0.1391
   8323SM   H5F11088   3.319   4.484  13.227 -0.8271 -1.0854 -1.1419
   8323SM   H5G11089   3.289   4.362  13.332  1.2923  0.2675 -3.3257
   8323SM   C6F11090   3.335   4.551  13.433  0.8951 -0.0628 -0.4593
   8323SM   H6F11091   3.311   4.658  13.419  1.2875  0.2650  1.2005
   8323SM   H6G11092   3.444   4.530  13.423  0.5646 -1.2054 -2.1503
   8323SM   C7F11093   3.291   4.503  13.579  0.1347 -1.1967 -0.4001
   8323SM   H7F11094   3.326   4.398  13.587 -1.4867 -2.0599 -3.1841
   8323SM   H7G11095   3.182   4.510  13.599  0.2146  3.6690 -0.5237
   8323SM   C8F11096   3.354   4.595  13.686 -0.1492  0.3310  0.1222
   8323SM   H8F11097   3.327   4.700  13.662 -0.1008  0.4479  0.5765
   8323SM   H8G11098   3.465   4.588  13.688 -0.1913 -0.8870  2.4794
   8323SM   C9F11099   3.305   4.556  13.830  0.1490  0.5390 -0.0121
   8323SM   H9F11100   3.349   4.460  13.865  1.1725  0.3472 -1.7122
   8323SM   H9G11101   3.194   4.547  13.830 -0.0106  1.0869 -3.5418
   8323SM  C10F11102   3.361   4.652  13.941 -0.5660 -0.1049 -0.2228
   8323SM  H10F11103   3.350   4.752  13.893 -3.1851 -0.4966 -0.6075
   8323SM  H10G11104   3.470   4.638  13.958 -1.0069 -2.0348  1.3990
   8323SM  C11F11105   3.284   4.647  14.073  0.2257 -1.0541 -0.5609
   8323SM  H11F11106   3.179   4.680  14.062  0.7583  1.6432  1.3570
   8323SM  H11G11107   3.323   4.708  14.158  1.0451  1.4819 -2.6188
   8323SM  C12F11108   3.267   4.503  14.113 -0.2828  0.1935  0.3628
   8323SM  H12F11109   3.351   4.440  14.077  0.6097  1.2310  0.5688
   8323SM  H12G11110   3.180   4.451  14.069  1.1918 -2.0447 -0.0777
   8323SM  C13F11111   3.275   4.475  14.267 -0.0727  0.0985  0.8739
   8323SM  H13F11112   3.187   4.531  14.305 -1.7537 -1.4371 -0.6290
   8323SM  H13G11113   3.372   4.514  14.306 -0.1873 -0.6177  1.9283
   8323SM  C14F11114   3.266   4.330  14.299 -0.1728 -0.5135  0.4731
   8323SM  H14F11115   3.347   4.280  14.242  1.3206  0.5644  1.5781
   8323SM  H14G11116   3.178   4.292  14.242  0.9509  0.2639 -1.9547
   8323SM  C15F11117   3.286   4.301  14.439  0.3500 -0.6930 -0.0083
   8323SM  H15F11118   3.194   4.348  14.479  1.2243  1.9906 -0.9092
   8323SM  H15G11119   3.368   4.356  14.492 -0.5308  0.4788  0.1782
   8323SM  C16F11120   3.280   4.156  14.475 -0.7669  0.5184  0.3907
   8323SM  H16F11121   3.355   4.108  14.409 -1.1756  0.6472 -0.1805
   8323SM  H16G11122   3.180   4.115  14.446 -0.9059  2.1998 -1.7209
   8323SM  C17F11123   3.303   4.129  14.628 -0.0410  0.2434  0.2295
   8323SM  H17F11124   3.226   4.194  14.675 -0.5704 -0.9001  1.0038
   8323SM  H17G11125   3.400   4.170  14.663  1.1703 -1.0394 -1.4207
   8323SM  C18F11126   3.268   3.986  14.664 -0.1281  0.6606  0.3412
   8323SM  H18F11127   3.339   3.908  14.628 -1.2702 -0.3707  0.2176
   8323SM  H18G11128   3.170   3.954  14.623 -0.3979 -0.3471  1.6925
   8323SM  C19F11129   3.266   3.978  14.823  0.4816  0.4141  0.4310
   8323SM  H19F11130   3.178   4.033  14.862  1.0520 -0.3730  3.0263
   8323SM  H19G11131   3.353   4.032  14.866  1.8002 -1.6373  0.4720
   8323SM  C20F11132   3.261   3.840  14.893 -0.3376  0.1176  0.0569
   8323SM  H20F11133   3.349   3.781  14.858 -1.5129 -1.3158 -0.5485
   8323SM  H20G11134   3.168   3.791  14.859 -0.8919  1.7960 -0.9786
   8323SM  C21F11135   3.249   3.837  15.043  0.0020 -0.3779 -0.3036
   8323SM  H21F11136   3.340   3.884  15.087 -0.9160  0.3525  0.8806
   8323SM  H21G11137   3.231   3.730  15.069 -1.9759 -0.1632 -0.6619
   8323SM  C22F11138   3.127   3.916  15.100 -0.0198  0.1609  0.0080
   8323SM  H22F11139   3.036   3.881  15.046  0.0799  1.2129 -0.8724
   8323SM  H22G11140   3.137   4.024  15.076 -0.5938  0.0241 -0.8817
   8323SM  C23F11141   3.112   3.885  15.250  0.4944  0.1357  0.3682
   8323SM  H23F11142   3.201   3.924  15.304 -0.8495 -0.3215  3.0852
   8323SM  H23G11143   3.111   3.774  15.257 -1.9467 -0.0118 -1.2755
   8323SM  H23H11144   3.020   3.931  15.291 -0.4822 -1.0292 -0.4658
   8423SM     N11145   3.919   2.664  12.365 -0.5698 -0.2985  0.5117
   8423SM   C1511146   3.989   2.543  12.306  0.4440  0.3922 -0.0405
   8423SM  H15A11147   4.095   2.543  12.327  0.1141  0.9796  1.8020
   8423SM  H15B11148   3.970   2.533  12.200 -0.0615  0.2417  0.0624
   8423SM  H15C11149   3.946   2.457  12.354 -2.2688  2.2332  1.0828
   8423SM   C1411150   3.782   2.662  12.318 -0.0450 -0.1108  0.3875
   8423SM  H14A11151   3.781   2.683  12.212 -2.5005  0.4216  0.4638
   8423SM  H14B11152   3.721   2.743  12.357  0.6111  0.3752  0.4319
   8423SM  H14C11153   3.731   2.575  12.355 -3.4226  1.4324 -0.2189
   8423SM   C1311154   3.922   2.652  12.516 -0.4315  0.0265 -0.3057
   8423SM  H13A11155   3.869   2.732  12.567  1.2628  0.4847  0.8106
   8423SM  H13B11156   4.021   2.645  12.558 -0.6801 -0.2735  0.2393
   8423SM  H13C11157   3.869   2.561  12.537 -0.3611  0.1597  0.4705
   8423SM   C1211158   3.989   2.795  12.320 -0.2422  0.1717  0.8077
   8423SM  H12A11159   3.926   2.881  12.339 -3.3923 -0.9184 -3.3099
   8423SM  H12B11160   3.977   2.793  12.213 -1.7879  0.1877  0.9503
   8423SM   C1111161   4.134   2.817  12.351 -0.3987  0.1368 -1.1845
   8423SM  H11A11162   4.151   2.915  12.300  0.1658  0.5367 -0.2646
   8423SM  H11B11163   4.189   2.729  12.313 -1.7380 -1.2787  0.0052
   8423SM     P11164   4.294   2.808  12.556 -0.0353  0.3835 -0.2441
   8423SM   O1311165   4.364   2.692  12.504 -0.5791  0.2758  0.2910
   8423SM   O1411166   4.360   2.937  12.562 -0.2722 -0.8033 -0.6898
   8423SM   O1111167   4.248   2.766  12.698 -0.0831  0.2151 -0.1111
   8423SM   O1211168   4.150   2.833  12.492 -0.0660  0.0289  0.2585
   8423SM   C1S11169   4.159   2.842  12.783  0.0858 -0.3841  0.4765
   8423SM   H1S11170   4.060   2.829  12.736  0.2784 -2.3367  0.5168
   8423SM   H1T11171   4.184   2.950  12.785  0.0426 -0.2850 -1.8242
   8423SM    NF11172   4.039   2.876  12.997 -0.2019 -0.3408 -0.9808
   8423SM   HNF11173   4.073   2.957  13.044  0.4440 -1.0777 -0.1432
   8423SM   C2S11174   4.140   2.791  12.929  0.9790  0.0798 -0.1341
   8423SM   H2S11175   4.110   2.684  12.924  1.2848  0.0405 -1.8790
   8423SM   C3S11176   4.276   2.787  13.012  0.0230 -0.2901  0.4273
   8423SM   H3S11177   4.314   2.891  13.028 -1.8115 -0.0204  3.9802
   8423SM    O311178   4.389   2.729  12.942  0.0046  0.8550  0.1193
   8423SM   HO311179   4.352   2.700  12.859  1.3575 -0.3812 -0.0923
   8423SM   C4S11180   4.258   2.720  13.146  0.4523  0.1937  0.7848
   8423SM   H4S11181   4.274   2.612  13.136  3.2390  0.6471 -0.5331
   8423SM   C5S11182   4.223   2.794  13.253  0.2588 -0.1379  0.3157
   8423SM   H5S11183   4.211   2.902  13.238  1.4726 -0.2914 -2.3286
   8423SM   C6S11184   4.191   2.727  13.380 -0.2291  0.1528 -0.5223
   8423SM   H6S11185   4.263   2.764  13.456 -0.8463  1.0572 -0.3654
   8423SM   H6T11186   4.217   2.620  13.379  4.2414  1.0530 -0.1978
   8423SM   C7S11187   4.051   2.761  13.426 -0.6904 -0.0961 -0.3584
   8423SM   H7S11188   3.979   2.713  13.356 -2.0747 -0.3006  1.1526
   8423SM   H7T11189   4.041   2.871  13.429 -0.9906 -0.1055 -0.8609
   8423SM   C8S11190   4.029   2.699  13.564 -0.1184 -0.2978 -0.0334
   8423SM   H8S11191   4.104   2.739  13.636  0.3622  1.1384 -1.2923
   8423SM   H8T11192   4.051   2.590  13.564 -0.2551 -0.3291 -0.7033
   8423SM   C9S11193   3.893   2.725  13.621  0.0427 -0.6141 -0.1106
   8423SM   H9S11194   3.818   2.697  13.544 -1.0354  0.5792  0.4707
   8423SM   H9T11195   3.891   2.833  13.645 -0.1984 -1.1699  2.6626
   8423SM  C10S11196   3.876   2.659  13.758 -0.2580  1.0962 -0.4098
   8423SM  H10S11197   3.955   2.677  13.834  0.1102 -1.1911 -0.1815
   8423SM  H10T11198   3.877   2.549  13.742 -3.2907  0.8308  0.6049
   8423SM  C11S11199   3.742   2.702  13.824 -0.4040 -0.2674 -0.3483
   8423SM  H11S11200   3.655   2.689  13.756  0.7303 -0.2080 -1.8485
   8423SM  H11T11201   3.760   2.808  13.852 -1.5879  0.4247 -2.0713
   8423SM  C12S11202   3.706   2.609  13.940  0.1525 -0.2698  0.7385
   8423SM  H12S11203   3.735   2.504  13.917  1.5818  0.3398 -0.4265
   8423SM  H12T11204   3.596   2.614  13.951  0.2760  1.8327  1.5611
   8423SM  C13S11205   3.762   2.649  14.080 -0.1242  0.1313  0.0869
   8423SM  H13S11206   3.709   2.738  14.120 -2.0889 -0.3259 -1.3649
   8423SM  H13T11207   3.866   2.685  14.062 -1.6158  3.6467 -2.7781
   8423SM  C14S11208   3.751   2.537  14.182  0.2628  0.2989  0.0175
   8423SM  H14S11209   3.792   2.443  14.140 -1.6002 -0.3527 -0.4592
   8423SM  H14T11210   3.643   2.513  14.171  0.1560  1.3020 -1.3210
   8423SM  C15S11211   3.806   2.561  14.322  0.4338  0.4564 -0.1583
   8423SM  H15S11212   3.909   2.599  14.305  0.4580  0.7179  0.5133
   8423SM  H15T11213   3.812   2.463  14.374  0.6194 -0.8768 -2.5667
   8423SM  C16S11214   3.725   2.658  14.416 -0.2158  0.5698  0.8240
   8423SM  H16S11215   3.703   2.752  14.361  1.2438  0.8978  0.7588
   8423SM  H16T11216   3.785   2.706  14.497  1.1983  0.2351  0.0109
   8423SM  C17S11217   3.597   2.599  14.480  0.4803 -0.3022 -0.0063
   8423SM  H17S11218   3.607   2.509  14.543  1.4141  1.6159  2.7589
   8423SM  H17T11219   3.530   2.576  14.394  0.7887  2.0538 -0.9472
   8423SM  C18S11220   3.519   2.707  14.561 -0.4552 -0.2277  0.3811
   8423SM  H18S11221   3.431   2.659  14.610 -0.8898 -0.9878 -1.0755
   8423SM  H18T11222   3.482   2.787  14.494  0.4320 -1.0787 -1.1914
   8423SM  H18U11223   3.573   2.762  14.640 -1.5354  1.4851 -0.0070
   8423SM   C1F11224   3.908   2.860  12.970 -0.2980 -0.0115  0.0033
   8423SM    OF11225   3.876   2.769  12.901 -0.5694  0.2319  0.5541
   8423SM   C2F11226   3.809   2.948  13.039  0.8417  0.1421 -0.0475
   8423SM   H2F11227   3.708   2.913  13.009  1.0105 -0.6126  0.2328
   8423SM   H2G11228   3.827   3.048  12.995  1.5326 -0.2349 -0.6403
   8423SM   C3F11229   3.827   2.957  13.187 -0.4121  0.1988 -0.3618
   8423SM   H3F11230   3.920   3.015  13.207 -0.7621 -0.0904  2.4418
   8423SM   H3G11231   3.823   2.861  13.241  0.3991 -0.4319 -1.3884
   8423SM   C4F11232   3.724   3.058  13.249  0.3398 -0.0482 -0.2192
   8423SM   H4F11233   3.722   3.153  13.192 -1.4034  1.3614  1.9955
   8423SM   H4G11234   3.762   3.081  13.351  2.3983  1.4175 -1.2393
   8423SM   C5F11235   3.583   2.994  13.260  0.7043 -0.4593 -0.1325
   8423SM   H5F11236   3.597   2.886  13.279 -2.5663 -1.4352 -2.3829
   8423SM   H5G11237   3.536   2.981  13.160  0.0922  0.2941  0.0410
   8423SM   C6F11238   3.485   3.059  13.363 -0.0540 -0.7927 -0.5263
   8423SM   H6F11239   3.412   3.135  13.328  0.0218 -0.3481  0.2541
   8423SM   H6G11240   3.553   3.122  13.424 -1.4703 -1.3050  1.6490
   8423SM   C7F11241   3.435   2.955  13.462 -0.4146 -0.0676 -0.2193
   8423SM   H7F11242   3.516   2.882  13.482  1.1688  1.6248 -0.1659
   8423SM   H7G11243   3.339   2.903  13.438  0.5497 -1.7959 -0.4956
   8423SM   C8F11244   3.414   3.021  13.604 -0.3054  0.0909 -0.5253
   8423SM   H8F11245   3.340   3.104  13.596  0.4844  0.9639  0.7696
   8423SM   H8G11246   3.514   3.061  13.633 -0.5540  0.5727 -0.3287
   8423SM   C9F11247   3.365   2.922  13.709 -0.3065 -0.1943 -0.3450
   8423SM   H9F11248   3.425   2.828  13.710 -1.2312 -0.8241 -1.6376
   8423SM   H9G11249   3.264   2.878  13.691 -1.0533  1.4507 -0.3001
   8423SM  C10F11250   3.352   2.984  13.848 -0.5289  0.4000 -1.0755
   8423SM  H10F11251   3.322   2.903  13.918  0.3770  0.2809 -0.8107
   8423SM  H10G11252   3.273   3.061  13.853 -0.2697  0.6316  2.6860
   8423SM  C11F11253   3.486   3.026  13.904  0.3598 -0.2194 -1.2314
   8423SM  H11F11254   3.513   3.126  13.865 -0.7035 -0.9701 -4.1440
   8423SM  H11G11255   3.551   2.945  13.865  0.4993  0.5376 -2.6249
   8423SM  C12F11256   3.505   3.024  14.065  0.3037 -0.5646  0.4245
   8423SM  H12F11257   3.490   2.919  14.100 -0.7954  0.0013  1.7793
   8423SM  H12G11258   3.423   3.081  14.114  0.6655 -1.4316  2.1123
   8423SM  C13F11259   3.651   3.061  14.119 -0.0123  0.3009  0.6130
   8423SM  H13F11260   3.670   3.166  14.089 -0.6720  0.3942  0.4996
   8423SM  H13G11261   3.723   3.000  14.060  0.7661  1.7529  0.0182
   8423SM  C14F11262   3.674   3.039  14.270 -0.3868  0.0123  0.5111
   8423SM  H14F11263   3.769   3.093  14.289 -1.3833  1.4005  1.7572
   8423SM  H14G11264   3.698   2.932  14.290  1.2861 -0.0301 -1.4081
   8423SM  C15F11265   3.559   3.088  14.360 -0.3433  0.1841 -0.0948
   8423SM  H15F11266   3.469   3.031  14.325 -1.6050  2.0344 -0.0016
   8423SM  H15G11267   3.549   3.197  14.340 -0.5196 -0.1258 -1.8952
   8423SM  C16F11268   3.583   3.067  14.513 -0.3762  0.0069  0.5492
   8423SM  H16F11269   3.665   3.139  14.532 -0.1550  0.1871 -0.9454
   8423SM  H16G11270   3.607   2.960  14.526  0.7149  0.3540  1.6590
   8423SM  C17F11271   3.461   3.093  14.596  0.1739 -0.4382  0.6345
   8423SM  H17F11272   3.376   3.057  14.535 -0.3863 -0.2830  1.3162
   8423SM  H17G11273   3.442   3.202  14.611 -0.3731  0.1965 -3.4471
   8423SM  C18F11274   3.463   3.018  14.729 -0.2152  0.1616  0.1920
   8423SM  H18F11275   3.560   3.001  14.780  0.0493 -3.3909 -1.2156
   8423SM  H18G11276   3.419   2.917  14.720 -0.5015  0.2040  1.0380
   8423SM  C19F11277   3.367   3.080  14.846 -0.3130 -0.2226  0.3178
   8423SM  H19F11278   3.263   3.089  14.808 -0.4750 -1.9667  0.2773
   8423SM  H19G11279   3.400   3.182  14.876  0.1090 -0.0343 -0.7444
   8423SM  C20F11280   3.359   2.996  14.974  0.4747  0.1982  0.2693
   8423SM  H20F11281   3.456   3.001  15.026  0.0114 -0.0536  1.1792
   8423SM  H20G11282   3.325   2.891  14.959 -0.3432  0.3324  1.0784
   8423SM  C21F11283   3.269   3.068  15.074  0.5067  0.6459 -0.0585
   8423SM  H21F11284   3.164   3.055  15.039  0.1535 -0.5067  1.3466
   8423SM  H21G11285   3.286   3.178  15.079 -0.3572  0.8374 -1.0244
   8423SM  C22F11286   3.262   3.005  15.215  0.4285  0.1788 -0.6315
   8423SM  H22F11287   3.353   3.016  15.278  0.8269  0.8267 -1.3005
   8423SM  H22G11288   3.247   2.895  15.208  0.0730  0.1092  0.9010
   8423SM  C23F11289   3.136   3.058  15.293 -0.4556 -0.4424  0.3683
   8423SM  H23F11290   3.157   3.165  15.314 -1.0631  0.0489 -1.3701
   8423SM  H23G11291   3.113   3.002  15.386 -0.8652  0.4903  0.8312
   8423SM  H23H11292   3.047   3.037  15.230 -0.6814 -0.1865  0.6035
   8523SM     N11293   4.656   3.913  12.142 -1.0221 -0.3628  0.3022
   8523SM   C1511294   4.802   3.899  12.184 -0.6100  0.1978 -0.2265
   8523SM  H15A11295   4.829   3.795  12.183 -2.2151 -0.2549  1.0052
   8523SM  H15B11296   4.827   3.944  12.279  1.0793  1.4775 -1.1994
   8523SM  H15C11297   4.864   3.962  12.120 -2.2981  2.4084  0.1826
   8523SM   C1411298   4.618   4.055  12.097 -0.6499  0.3145  0.4660
   8523SM  H14A11299   4.616   4.127  12.177  2.5834  0.5330  0.4736
   8523SM  H14B11300   4.518   4.059  12.055 -0.7927 -2.8003  0.2481
   8523SM  H14C11301   4.689   4.088  12.023 -0.7917  1.0836  0.6616
   8523SM   C1311302   4.628   3.815  12.030 -0.2268 -0.3277  0.0357
   8523SM  H13A11303   4.662   3.849  11.934 -3.2778  0.6387 -0.8245
   8523SM  H13B11304   4.522   3.800  12.016 -0.0620 -0.6572 -0.8874
   8523SM  H13C11305   4.666   3.716  12.053 -0.4793 -0.2479  0.8192
   8523SM   C1211306   4.565   3.872  12.258  0.4698 -0.3127 -0.0566
   8523SM  H12A11307   4.610   3.789  12.311 -1.7222  0.0381  2.5515
   8523SM  H12B11308   4.470   3.846  12.214 -0.6376 -0.5944  2.3634
   8523SM   C1111309   4.535   3.977  12.371 -0.2468  0.4835 -0.4431
   8523SM  H11A11310   4.475   3.943  12.458 -0.6936  2.6535  0.1429
   8523SM  H11B11311   4.476   4.057  12.323  0.5690  1.1690 -0.3297
   8523SM     P11312   4.667   4.196  12.428  0.0986  0.0230 -0.0831
   8523SM   O1311313   4.807   4.233  12.466 -0.2510 -0.3944  0.8697
   8523SM   O1411314   4.619   4.254  12.302  0.6042 -0.3898  0.0165
   8523SM   O1111315   4.580   4.227  12.545 -0.4116 -0.4163 -0.5354
   8523SM   O1211316   4.651   4.038  12.423 -0.0762  0.5503  0.4593
   8523SM   C1S11317   4.584   4.142  12.659 -1.0422 -0.7670 -0.0642
   8523SM   H1S11318   4.680   4.091  12.680 -0.3257 -0.1530 -1.7111
   8523SM   H1T11319   4.508   4.064  12.636  2.3828 -4.0192 -1.3772
   8523SM    NF11320   4.574   4.145  12.911 -0.1200 -0.3933  0.0517
   8523SM   HNF11321   4.497   4.128  12.971 -0.0864  0.2394  0.2861
   8523SM   C2S11322   4.547   4.229  12.792 -0.1922  0.3322  0.4587
   8523SM   H2S11323   4.618   4.315  12.790  0.0493  0.1425 -1.8003
   8523SM   C3S11324   4.398   4.270  12.768  0.0719  0.0295  0.7899
   8523SM   H3S11325   4.338   4.176  12.760  0.0369  0.1452 -0.3840
   8523SM    O311326   4.375   4.357  12.654  0.3808 -0.2386  0.0161
   8523SM   HO311327   4.451   4.329  12.602  1.4889  0.0189  1.4430
   8523SM   C4S11328   4.356   4.333  12.895 -0.5777  0.4560 -0.5719
   8523SM   H4S11329   4.306   4.265  12.965 -1.8014  2.3600  0.4868
   8523SM   C5S11330   4.365   4.458  12.947 -0.2477 -0.7379  0.5810
   8523SM   H5S11331   4.425   4.534  12.895  0.6107 -0.8125  1.4146
   8523SM   C6S11332   4.324   4.512  13.080  0.7137 -0.2668 -0.4365
   8523SM   H6S11333   4.237   4.580  13.063  1.0541  0.5001  0.7954
   8523SM   H6T11334   4.406   4.579  13.113  2.1537 -2.0526 -0.2458
   8523SM   C7S11335   4.288   4.409  13.184 -0.1390  0.8459  0.0776
   8523SM   H7S11336   4.226   4.324  13.148  2.8595 -0.9082 -1.2672
   8523SM   H7T11337   4.244   4.451  13.277 -1.4147  0.2138 -0.2192
   8523SM   C8S11338   4.415   4.349  13.237  0.0510 -0.2159 -0.2280
   8523SM   H8S11339   4.485   4.420  13.287 -2.4475  1.3584  1.2171
   8523SM   H8T11340   4.477   4.293  13.163 -0.1788 -0.5423 -0.1750
   8523SM   C9S11341   4.382   4.238  13.341  0.5397  0.5018  0.4309
   8523SM   H9S11342   4.470   4.169  13.344 -0.6781 -1.1001  1.3168
   8523SM   H9T11343   4.293   4.181  13.306  1.7392  0.2829 -2.5809
   8523SM  C10S11344   4.366   4.280  13.481 -0.4157  0.1266  0.1373
   8523SM  H10S11345   4.285   4.355  13.484  0.6541  1.4159 -1.4064
   8523SM  H10T11346   4.462   4.318  13.523 -0.6462  0.4767  0.3534
   8523SM  C11S11347   4.324   4.160  13.577 -0.1171  0.1155 -0.2648
   8523SM  H11S11348   4.388   4.073  13.551 -1.1142 -0.8429  0.3486
   8523SM  H11T11349   4.222   4.126  13.548 -0.6837  3.1984 -2.3322
   8523SM  C12S11350   4.317   4.191  13.733  0.2217 -0.4819  0.3353
   8523SM  H12S11351   4.249   4.123  13.788 -1.1005  0.4916 -0.0612
   8523SM  H12T11352   4.272   4.292  13.733  1.9344  0.4053  3.4146
   8523SM  C13S11353   4.454   4.174  13.795 -0.6208  0.1898  0.3954
   8523SM  H13S11354   4.530   4.244  13.755  1.4056 -0.1890  3.2444
   8523SM  H13T11355   4.497   4.075  13.768  1.4387  0.7160  1.5094
   8523SM  C14S11356   4.440   4.184  13.947  0.0582 -0.3229  0.2808
   8523SM  H14S11357   4.385   4.102  13.998  1.8762 -1.3557  0.6628
   8523SM  H14T11358   4.390   4.279  13.973  0.2682  0.5600 -2.2471
   8523SM  C15S11359   4.574   4.199  14.014 -0.2214  0.1545  0.5043
   8523SM  H15S11360   4.625   4.293  13.985  1.7170 -0.1421  2.6423
   8523SM  H15T11361   4.620   4.102  13.988 -1.6054  0.2240 -2.5727
   8523SM  C16S11362   4.550   4.195  14.169 -0.6480 -0.1355 -0.6418
   8523SM  H16S11363   4.489   4.106  14.198  0.1953 -0.5517 -0.1182
   8523SM  H16T11364   4.496   4.287  14.201 -0.2124  0.3110 -1.1878
   8523SM  C17S11365   4.679   4.181  14.254  0.0219  0.0687  0.4812
   8523SM  H17S11366   4.750   4.264  14.233  2.7678 -2.0317  0.8640
   8523SM  H17T11367   4.737   4.094  14.217 -0.9753 -0.8583  1.0586
   8523SM  C18S11368   4.648   4.166  14.402 -0.1085 -0.0877 -0.2187
   8523SM  H18S11369   4.600   4.262  14.433 -0.9559 -0.5424 -0.0667
   8523SM  H18T11370   4.745   4.154  14.454 -0.2947  1.0434  0.4196
   8523SM  H18U11371   4.569   4.088  14.409 -1.7480  1.4662 -0.6711
   8523SM   C1F11372   4.692   4.109  12.952 -0.2969  0.1034  0.6646
   8523SM    OF11373   4.791   4.149  12.896  0.3268 -0.6626 -0.5163
   8523SM   C2F11374   4.703   4.004  13.062  1.1628  0.9185 -0.9259
   8523SM   H2F11375   4.780   3.924  13.058  3.5049  2.8348  1.6741
   8523SM   H2G11376   4.600   3.967  13.082  1.7187  0.0808  0.6013
   8523SM   C3F11377   4.744   4.086  13.189 -0.0915 -0.3819  0.0692
   8523SM   H3F11378   4.682   4.174  13.216 -1.3070 -1.0819 -0.3530
   8523SM   H3G11379   4.846   4.121  13.165 -0.4154 -0.3818 -1.3895
   8523SM   C4F11380   4.749   3.997  13.312  0.1956  0.3909  1.0274
   8523SM   H4F11381   4.833   3.924  13.310 -0.1336 -0.0074 -1.7604
   8523SM   H4G11382   4.648   3.954  13.327  0.0716  0.8393  1.5340
   8523SM   C5F11383   4.764   4.085  13.437 -0.5615 -0.7297 -0.2532
   8523SM   H5F11384   4.681   4.151  13.471  0.0251  0.1024 -0.3936
   8523SM   H5G11385   4.845   4.159  13.417  2.4501 -3.8872 -0.6439
   8523SM   C6F11386   4.802   3.995  13.565  0.1332 -0.5231 -0.8569
   8523SM   H6F11387   4.882   3.933  13.521  1.1242 -0.1977  0.4342
   8523SM   H6G11388   4.724   3.923  13.599 -0.1277 -0.0146 -0.3538
   8523SM   C7F11389   4.851   4.085  13.683  0.2290  0.4339 -0.3445
   8523SM   H7F11390   4.773   4.125  13.752  1.2446 -0.0656  1.1451
   8523SM   H7G11391   4.916   4.167  13.645  2.4704 -1.2526 -0.3879
   8523SM   C8F11392   4.937   3.999  13.780 -0.0480 -0.1965  0.7563
   8523SM   H8F11393   5.036   3.975  13.735  0.9097  1.6660  1.7302
   8523SM   H8G11394   4.890   3.899  13.787  0.1986 -0.4079 -0.3581
   8523SM   C9F11395   4.959   4.064  13.919  0.2776  0.3291 -0.1024
   8523SM   H9F11396   4.865   4.063  13.978  1.1031 -2.0859  1.3177
   8523SM   H9G11397   4.994   4.169  13.908 -0.2965  0.6796  1.2810
   8523SM  C10F11398   5.060   3.997  14.012  0.0215  0.0046 -0.4513
   8523SM  H10F11399   5.160   4.011  13.967 -0.6338  1.2714 -1.5704
   8523SM  H10G11400   5.038   3.888  14.023 -1.5377  0.2317 -0.9910
   8523SM  C11F11401   5.071   4.068  14.142 -0.5000 -0.5928  0.4564
   8523SM  H11F11402   4.969   4.079  14.186 -0.8358 -0.7039 -0.2828
   8523SM  H11G11403   5.106   4.170  14.115  1.1256 -1.8196 -2.5672
   8523SM  C12F11404   5.156   4.000  14.256 -0.4629 -0.6494 -0.1461
   8523SM  H12F11405   5.265   3.993  14.234  1.0516 -0.6969  5.7582
   8523SM  H12G11406   5.127   3.894  14.263 -0.2157 -0.6069  2.1142
   8523SM  C13F11407   5.127   4.067  14.396 -0.2043  0.7387  0.1333
   8523SM  H13F11408   5.024   4.031  14.421 -0.3030  0.2183 -0.9700
   8523SM  H13G11409   5.138   4.177  14.384  1.7683  0.4515 -1.0189
   8523SM  C14F11410   5.235   4.020  14.499  0.1374  0.2000  0.1838
   8523SM  H14F11411   5.292   4.114  14.518 -0.3339  1.2568 -3.0917
   8523SM  H14G11412   5.293   3.942  14.445 -0.0626  1.9706 -2.7776
   8523SM  C15F11413   5.165   3.964  14.624  0.0995  0.5150 -0.2018
   8523SM  H15F11414   5.103   3.877  14.594 -0.4691  0.5713  0.7757
   8523SM  H15G11415   5.094   4.040  14.664  0.2466  0.3651  0.3554
   8523SM  C16F11416   5.266   3.926  14.732 -0.3150 -0.7140  0.2803
   8523SM  H16F11417   5.310   4.022  14.768 -1.2611 -0.3163  0.4013
   8523SM  H16G11418   5.351   3.864  14.695  1.0295 -0.5228  2.8418
   8523SM  C17F11419   5.196   3.854  14.853  0.5312  0.3765 -0.3561
   8523SM  H17F11420   5.151   3.761  14.813  1.5662  0.1660 -1.0452
   8523SM  H17G11421   5.128   3.937  14.885  2.3220  2.0299 -0.6331
   8523SM  C18F11422   5.301   3.812  14.960 -0.0488  0.4539 -0.2218
   8523SM  H18F11423   5.354   3.900  15.003 -0.6643  0.3075  0.8799
   8523SM  H18G11424   5.365   3.732  14.917  0.0685  0.5095 -0.1516
   8523SM  C19F11425   5.232   3.750  15.085 -0.5905  0.8117  0.9564
   8523SM  H19F11426   5.159   3.678  15.040  2.0434 -0.7521 -1.0783
   8523SM  H19G11427   5.198   3.829  15.155  2.7577  1.5007  1.9839
   8523SM  C20F11428   5.330   3.661  15.163 -0.2874  0.0483  0.6069
   8523SM  H20F11429   5.380   3.594  15.090 -1.3966  1.0423 -1.1205
   8523SM  H20G11430   5.262   3.598  15.224 -1.2976  0.8228  0.3062
   8523SM  C21F11431   5.434   3.725  15.250  0.3781 -0.0706 -0.4469
   8523SM  H21F11432   5.392   3.785  15.334  1.5787  0.5842 -0.2954
   8523SM  H21G11433   5.481   3.801  15.185 -0.0772  0.5459 -0.0703
   8523SM  C22F11434   5.538   3.620  15.310 -0.2806 -0.3699  0.8485
   8523SM  H22F11435   5.632   3.675  15.329 -0.5945  0.2727  0.5560
   8523SM  H22G11436   5.563   3.548  15.229 -2.1285  1.2958 -1.3313
   8523SM  C23F11437   5.496   3.546  15.435 -0.5147 -0.0995  0.2087
   8523SM  H23F11438   5.403   3.498  15.397 -0.7870  0.3871  0.2509
   8523SM  H23G11439   5.470   3.613  15.520 -2.6091  0.7838 -1.0352
   8523SM  H23H11440   5.569   3.469  15.467 -0.1520  0.0512 -0.2500
   8623SM     N11441   3.392   1.540  12.567 -0.5673 -0.3183  0.0681
   8623SM   C1511442   3.430   1.410  12.510 -0.4720 -0.2417  0.0208
   8623SM  H15A11443   3.491   1.419  12.421 -1.5476  0.1638 -0.6981
   8623SM  H15B11444   3.343   1.351  12.483 -1.8930  1.4477  0.7273
   8623SM  H15C11445   3.477   1.351  12.587 -2.0049 -1.5384  0.0208
   8623SM   C1411446   3.351   1.636  12.465 -0.1509  0.2345 -0.5012
   8623SM  H14A11447   3.426   1.650  12.388 -1.2983 -0.1685 -1.7134
   8623SM  H14B11448   3.329   1.727  12.519 -0.8368 -0.6337  0.7479
   8623SM  H14C11449   3.266   1.605  12.407 -2.1907  0.4861  2.1569
   8623SM   C1311450   3.279   1.517  12.662 -0.4317 -0.1190 -0.0854
   8623SM  H13A11451   3.316   1.458  12.745  0.7946 -0.1557 -0.6253
   8623SM  H13B11452   3.197   1.465  12.616  0.6025 -1.8969 -0.0088
   8623SM  H13C11453   3.245   1.610  12.706  0.2115 -0.6640  1.6611
   8623SM   C1211454   3.518   1.598  12.639  0.2860  0.4516  0.0874
   8623SM  H12A11455   3.591   1.615  12.561 -1.6440  0.5617 -1.7834
   8623SM  H12B11456   3.562   1.520  12.700  0.6651  1.7509  1.5391
   8623SM   C1111457   3.490   1.721  12.731 -0.5206  0.5716  0.4766
   8623SM  H11A11458   3.581   1.734  12.794  0.3911  1.3502 -0.9578
   8623SM  H11B11459   3.409   1.692  12.802  0.0367  1.0382  1.3231
   8623SM     P11460   3.569   1.926  12.600 -0.1180  0.0361  0.4223
   8623SM   O1311461   3.683   1.843  12.583 -0.0063  0.1188  0.3130
   8623SM   O1411462   3.514   1.988  12.483  0.4287 -0.1804  0.8537
   8623SM   O1111463   3.598   2.031  12.709  0.6107 -0.3853  0.5831
   8623SM   O1211464   3.454   1.838  12.661  0.1985  0.1252  0.1152
   8623SM   C1S11465   3.584   2.003  12.849 -0.2187  0.5973 -0.4901
   8623SM   H1S11466   3.640   1.910  12.874  0.1941  0.8118 -0.6155
   8623SM   H1T11467   3.480   1.970  12.871  0.2058 -1.3824 -1.1880
   8623SM    NF11468   3.609   2.093  13.079 -0.0323 -0.5951 -0.0449
   8623SM   HNF11469   3.531   2.141  13.118 -1.0327 -2.0452 -0.1853
   8623SM   C2S11470   3.634   2.120  12.934  0.3560 -0.5490 -0.3090
   8623SM   H2S11471   3.745   2.130  12.934  0.3635  0.8096  2.9295
   8623SM   C3S11472   3.576   2.264  12.898 -0.1199  0.1994  0.1407
   8623SM   H3S11473   3.466   2.265  12.914  0.2231 -0.5152  3.1820
   8623SM    O311474   3.600   2.298  12.762 -0.2825  0.1877 -0.1579
   8623SM   HO311475   3.640   2.218  12.727  0.9308  0.3068  0.9001
   8623SM   C4S11476   3.639   2.373  12.977 -0.2810  0.4635 -0.2956
   8623SM   H4S11477   3.748   2.363  12.972 -0.3166 -0.0233 -0.1400
   8623SM   C5S11478   3.589   2.469  13.058 -0.4382  0.1568  0.0191
   8623SM   H5S11479   3.479   2.472  13.067 -0.6105 -1.3146 -1.1474
   8623SM   C6S11480   3.669   2.570  13.137 -0.4990  0.3750  0.1994
   8623SM   H6S11481   3.652   2.675  13.105  0.0992  0.0340 -1.3427
   8623SM   H6T11482   3.773   2.563  13.097 -0.7230 -0.4829 -0.2525
   8623SM   C7S11483   3.651   2.565  13.293  0.1899  0.3715  0.0976
   8623SM   H7S11484   3.713   2.643  13.343 -0.5122  1.0682 -0.0826
   8623SM   H7T11485   3.693   2.467  13.323 -0.8019  0.8406  3.3687
   8623SM   C8S11486   3.510   2.597  13.334  0.3115  0.0350 -0.4315
   8623SM   H8S11487   3.445   2.539  13.265 -0.3648 -1.3390  1.2831
   8623SM   H8T11488   3.478   2.702  13.318  0.7100  0.2906  0.3925
   8623SM   C9S11489   3.457   2.556  13.475 -0.2170 -0.3510  0.0712
   8623SM   H9S11490   3.498   2.624  13.552 -1.3953  2.4610 -1.6377
   8623SM   H9T11491   3.488   2.453  13.502 -1.5276 -0.1717  2.5572
   8623SM  C10S11492   3.309   2.572  13.494  0.1408 -0.2826 -0.7905
   8623SM  H10S11493   3.266   2.536  13.398  2.0668 -2.6604 -0.8539
   8623SM  H10T11494   3.286   2.680  13.508 -0.0779 -0.2344 -1.4768
   8623SM  C11S11495   3.251   2.492  13.614 -0.7095 -0.7795  0.3700
   8623SM  H11S11496   3.264   2.382  13.611 -0.8419 -0.7738 -1.9026
   8623SM  H11T11497   3.143   2.511  13.599 -0.5237 -1.0522 -1.5793
   8623SM  C12S11498   3.309   2.528  13.752 -0.0689  0.0381 -0.0401
   8623SM  H12S11499   3.292   2.635  13.778 -1.5779  0.1801 -1.4231
   8623SM  H12T11500   3.414   2.502  13.774  0.2127  2.3780  1.7497
   8623SM  C13S11501   3.228   2.448  13.868 -0.0859  0.3477  0.2606
   8623SM  H13S11502   3.243   2.339  13.858  0.3289  0.1462  2.5447
   8623SM  H13T11503   3.120   2.467  13.854  0.0860  1.1152 -0.1077
   8623SM  C14S11504   3.295   2.479  14.001 -0.5527  0.0427 -1.2367
   8623SM  H14S11505   3.316   2.585  14.027 -1.5659 -0.0681  0.1663
   8623SM  H14T11506   3.391   2.425  14.012 -0.2904  0.4156 -1.6673
   8623SM  C15S11507   3.195   2.443  14.116 -0.1530 -0.6853 -0.2963
   8623SM  H15S11508   3.171   2.336  14.096  2.2129 -1.3299  0.0234
   8623SM  H15T11509   3.101   2.500  14.102  0.5790  1.1091  1.5977
   8623SM  C16S11510   3.255   2.457  14.257  0.2272 -0.3981 -0.1488
   8623SM  H16S11511   3.247   2.566  14.274  3.9211 -0.1204  0.7449
   8623SM  H16T11512   3.363   2.431  14.256  0.0372 -1.2489 -2.0237
   8623SM  C17S11513   3.171   2.390  14.362 -0.0247  0.3724 -0.0851
   8623SM  H17S11514   3.153   2.284  14.334 -2.2776  0.5890  0.3373
   8623SM  H17T11515   3.066   2.428  14.358  0.4024  1.5613 -0.4481
   8623SM  C18S11516   3.222   2.410  14.506  0.4442 -0.1800  0.0743
   8623SM  H18S11517   3.209   2.514  14.541  0.4666 -1.1450  3.2545
   8623SM  H18T11518   3.321   2.365  14.527 -0.7644 -2.7147  0.8733
   8623SM  H18U11519   3.155   2.348  14.570 -2.8404  1.4847 -1.4929
   8623SM   C1F11520   3.656   1.984  13.149  0.4607  0.5619 -0.5061
   8623SM    OF11521   3.756   1.925  13.113  0.3502  0.4508  0.0484
   8623SM   C2F11522   3.590   1.943  13.276 -0.2030  0.1812 -0.4248
   8623SM   H2F11523   3.482   1.934  13.255 -0.1851 -1.2326 -0.0102
   8623SM   H2G11524   3.593   2.032  13.343  3.1349  0.3607 -0.6409
   8623SM   C3F11525   3.640   1.817  13.346  0.2015 -0.2685  0.2951
   8623SM   H3F11526   3.750   1.826  13.363  0.6064 -1.4169 -1.4183
   8623SM   H3G11527   3.642   1.726  13.282  1.7663 -1.1295  1.5011
   8623SM   C4F11528   3.570   1.780  13.474  0.9381 -0.1460  0.4579
   8623SM   H4F11529   3.573   1.863  13.548 -4.1360  0.5531  0.2319
   8623SM   H4G11530   3.622   1.693  13.519  2.1185  0.6469  0.6669
   8623SM   C5F11531   3.427   1.730  13.442  0.5326 -0.7568  0.5763
   8623SM   H5F11532   3.443   1.643  13.375  2.2771  0.4436 -0.6308
   8623SM   H5G11533   3.367   1.807  13.390 -0.2867 -2.2275 -0.7409
   8623SM   C6F11534   3.351   1.689  13.573  0.0040 -1.0344  0.3381
   8623SM   H6F11535   3.245   1.680  13.542 -0.3764  1.1216  0.8342
   8623SM   H6G11536   3.357   1.776  13.643  0.9203 -0.4413 -0.4469
   8623SM   C7F11537   3.394   1.564  13.648 -0.2019  0.5586  0.1089
   8623SM   H7F11538   3.503   1.554  13.631  0.0333 -2.2669  2.5586
   8623SM   H7G11539   3.357   1.473  13.596  0.4385  0.4058 -0.0929
   8623SM   C8F11540   3.351   1.535  13.793  0.0378 -0.1647  0.2273
   8623SM   H8F11541   3.421   1.566  13.874  0.9545 -1.9720  0.1833
   8623SM   H8G11542   3.341   1.427  13.817 -1.1315 -0.6663 -2.2420
   8623SM   C9F11543   3.217   1.598  13.830  0.1025 -0.2032  0.0358
   8623SM   H9F11544   3.150   1.577  13.745  0.9404 -1.1149 -0.4297
   8623SM   H9G11545   3.222   1.708  13.840 -0.7604 -0.2098  0.6943
   8623SM  C10F11546   3.167   1.557  13.969 -0.2826 -0.0492 -0.5684
   8623SM  H10F11547   3.148   1.448  13.962 -0.4069 -0.0973  0.4565
   8623SM  H10G11548   3.071   1.610  13.982  0.0984  0.4200  0.4149
   8623SM  C11F11549   3.264   1.573  14.086 -0.1423 -0.6052  0.0469
   8623SM  H11F11550   3.290   1.681  14.090  2.1480 -1.1073  0.2670
   8623SM  H11G11551   3.364   1.526  14.077 -0.3052 -1.0940  0.6834
   8623SM  C12F11552   3.204   1.538  14.228 -0.1089  0.9568  1.4386
   8623SM  H12F11553   3.155   1.438  14.225 -0.4765  1.1515 -0.4307
   8623SM  H12G11554   3.118   1.608  14.237 -0.1949  1.2993 -1.2193
   8623SM  C13F11555   3.297   1.541  14.348  0.0845 -0.4508 -0.2608
   8623SM  H13F11556   3.341   1.643  14.353  0.0225 -0.4674  1.8378
   8623SM  H13G11557   3.387   1.476  14.343  0.2173 -0.2285 -0.8403
   8623SM  C14F11558   3.226   1.507  14.482 -0.1638  0.3658  0.4836
   8623SM  H14F11559   3.306   1.495  14.558 -0.4131 -0.9156  0.5629
   8623SM  H14G11560   3.159   1.418  14.482 -0.8596  0.8786  0.1703
   8623SM  C15F11561   3.134   1.627  14.529 -0.1439 -0.3232 -0.2275
   8623SM  H15F11562   3.032   1.611  14.489 -0.8127  0.7780  0.9681
   8623SM  H15G11563   3.183   1.716  14.483 -0.3309  0.3318  0.7917
   8623SM  C16F11564   3.130   1.640  14.678 -0.1707  0.1459 -0.2905
   8623SM  H16F11565   3.099   1.742  14.709 -0.4057  0.2189 -0.7526
   8623SM  H16G11566   3.221   1.616  14.735 -1.7196  0.3314  2.4435
   8623SM  C17F11567   3.021   1.553  14.740  0.9212 -0.3074 -0.2729
   8623SM  H17F11568   3.047   1.446  14.734  1.0126 -0.3285  0.4395
   8623SM  H17G11569   2.931   1.565  14.675 -0.4615 -0.3939  1.5428
   8623SM  C18F11570   2.963   1.599  14.878  0.3556 -0.0577  0.5383
   8623SM  H18F11571   2.887   1.679  14.866  1.3348  0.7601 -0.3707
   8623SM  H18G11572   3.033   1.636  14.956 -1.3262  0.8243  1.7162
   8623SM  C19F11573   2.878   1.491  14.950  0.0892 -0.2203 -0.2458
   8623SM  H19F11574   2.943   1.406  14.983  0.8548 -0.0066 -1.1515
   8623SM  H19G11575   2.796   1.460  14.883 -0.6138  0.3923  0.3162
   8623SM  C20F11576   2.796   1.542  15.064  0.2797  0.4198 -1.0645
   8623SM  H20F11577   2.726   1.625  15.041 -1.1992 -0.5825 -0.4075
   8623SM  H20G11578   2.861   1.583  15.144 -0.5463 -0.4123  0.0763
   8623SM  C21F11579   2.716   1.431  15.133 -0.2745 -0.3687 -0.1812
   8623SM  H21F11580   2.777   1.341  15.156  0.2453 -0.1856 -0.8135
   8623SM  H21G11581   2.641   1.401  15.056  0.6221  1.3421 -1.7913
   8623SM  C22F11582   2.653   1.475  15.270  0.0919  0.3732  0.2443
   8623SM  H22F11583   2.569   1.406  15.290  0.6319 -0.1304  0.7905
   8623SM  H22G11584   2.622   1.581  15.253 -0.9659 -0.0927 -0.9522
   8623SM  C23F11585   2.745   1.466  15.390 -0.1050 -0.0358 -0.3608
   8623SM  H23F11586   2.783   1.362  15.401 -0.7550 -0.3256 -0.7457
   8623SM  H23G11587   2.692   1.505  15.480 -0.5611 -2.0757  0.2970
   8623SM  H23H11588   2.836   1.527  15.373 -0.8598  1.2347 -0.0010
   8723SM     N11589   4.695   2.357  12.475  0.7010  0.0666 -0.4607
   8723SM   C1511590   4.795   2.431  12.389 -0.0484 -0.3506  0.1540
   8723SM  H15A11591   4.871   2.475  12.453 -0.5203  1.3445 -0.3866
   8723SM  H15B11592   4.749   2.513  12.338 -1.8309 -1.2772  0.2200
   8723SM  H15C11593   4.846   2.360  12.326 -1.2042 -0.0590 -1.1426
   8723SM   C1411594   4.623   2.460  12.546 -0.4953 -0.1083 -0.1625
   8723SM  H14A11595   4.572   2.529  12.481 -1.2099 -2.5658 -2.4108
   8723SM  H14B11596   4.692   2.515  12.608 -0.7883  1.2801 -1.0352
   8723SM  H14C11597   4.549   2.416  12.612 -0.2718 -0.4546 -0.1425
   8723SM   C1311598   4.600   2.279  12.389 -0.1303  0.3041 -0.3107
   8723SM  H13A11599   4.527   2.239  12.457  1.4930 -1.3261  0.5663
   8723SM  H13B11600   4.655   2.201  12.338  1.5760  0.1902  1.5957
   8723SM  H13C11601   4.558   2.339  12.310  0.1600  0.3954 -0.3972
   8723SM   C1211602   4.760   2.262  12.569  0.3041  0.7261 -0.1249
   8723SM  H12A11603   4.696   2.235  12.651  2.9398 -2.2580  1.1715
   8723SM  H12B11604   4.848   2.308  12.612  2.3785 -0.6589 -2.6363
   8723SM   C1111605   4.813   2.126  12.508  0.4822  0.1817 -0.2373
   8723SM  H11A11606   4.865   2.069  12.588 -0.9262 -0.6478  0.1146
   8723SM  H11B11607   4.888   2.161  12.433  0.6079  1.4767  0.4657
   8723SM     P11608   4.618   1.957  12.548 -0.1056  0.1033  0.1650
   8723SM   O1311609   4.479   1.950  12.494  0.1429  0.1724 -0.6233
   8723SM   O1411610   4.687   1.828  12.576 -0.1067  0.4638 -0.0293
   8723SM   O1111611   4.622   2.043  12.679 -0.5967 -0.4915 -0.0811
   8723SM   O1211612   4.710   2.038  12.451  0.0974  0.1647 -0.1381
   8723SM   C1S11613   4.495   2.091  12.734 -0.1304  0.1851  0.1790
   8723SM   H1S11614   4.410   2.025  12.709  0.3618 -0.2629 -0.3480
   8723SM   H1T11615   4.462   2.184  12.681  0.1103  0.6025  0.7487
   8723SM    NF11616   4.352   2.152  12.931 -0.3714  0.8833  1.1324
   8723SM   HNF11617   4.332   2.250  12.931  2.0364  1.6288 -2.9373
   8723SM   C2S11618   4.490   2.118  12.888  0.0664 -0.2748 -0.1640
   8723SM   H2S11619   4.522   2.026  12.942  1.2572 -0.1089 -0.5716
   8723SM   C3S11620   4.587   2.227  12.931 -0.2358 -0.1019 -0.1177
   8723SM   H3S11621   4.549   2.322  12.887  0.4326 -0.6729 -2.0336
   8723SM    O311622   4.714   2.214  12.874 -0.7247  0.0178  0.5214
   8723SM   HO311623   4.714   2.128  12.831  1.8308  0.3545 -0.3227
   8723SM   C4S11624   4.600   2.233  13.081 -0.6927  0.0780  0.8481
   8723SM   H4S11625   4.670   2.153  13.111  0.9171  1.4687  0.9331
   8723SM   C5S11626   4.558   2.326  13.171  0.5203 -0.8729 -0.2017
   8723SM   H5S11627   4.512   2.419  13.134  2.1937  1.0717  2.2693
   8723SM   C6S11628   4.565   2.327  13.322 -0.7472 -0.4735 -0.3656
   8723SM   H6S11629   4.627   2.406  13.367 -0.6138 -0.7283 -0.1029
   8723SM   H6T11630   4.613   2.231  13.350  0.7536  0.2962 -0.2140
   8723SM   C7S11631   4.427   2.339  13.382 -0.0186  0.6079  0.4197
   8723SM   H7S11632   4.364   2.254  13.348  0.8390 -0.3011  1.0730
   8723SM   H7T11633   4.383   2.435  13.346  0.9536  0.4724 -1.2353
   8723SM   C8S11634   4.450   2.325  13.531  0.4689  0.5042 -0.5468
   8723SM   H8S11635   4.526   2.389  13.581  0.4030  0.4657 -0.3976
   8723SM   H8T11636   4.480   2.222  13.561  0.1704  0.7415  0.6113
   8723SM   C9S11637   4.312   2.354  13.597  0.3772 -0.1928  1.0145
   8723SM   H9S11638   4.237   2.282  13.559  0.1394  0.4786  0.1937
   8723SM   H9T11639   4.283   2.452  13.553  1.6765  0.6611  1.9540
   8723SM  C10S11640   4.329   2.354  13.751 -0.8405  0.1866 -0.2238
   8723SM  H10S11641   4.413   2.419  13.784  0.5412 -2.0957  1.0169
   8723SM  H10T11642   4.352   2.249  13.782 -2.1440 -0.4260 -1.2060
   8723SM  C11S11643   4.196   2.393  13.820 -0.2162 -0.3170 -0.8898
   8723SM  H11S11644   4.131   2.313  13.778  0.1310  0.0207 -2.1064
   8723SM  H11T11645   4.163   2.493  13.785  1.4764  0.6922  0.3169
   8723SM  C12S11646   4.205   2.391  13.977  0.2973 -0.0350  0.7890
   8723SM  H12S11647   4.233   2.287  14.003  0.0031 -0.5470 -0.8641
   8723SM  H12T11648   4.101   2.395  14.013  0.3138  1.8276  0.7325
   8723SM  C13S11649   4.286   2.508  14.030  0.1377 -0.7064 -0.6354
   8723SM  H13S11650   4.228   2.600  14.007 -0.5171 -0.7261  0.8150
   8723SM  H13T11651   4.383   2.509  13.975  0.3716  1.9365 -0.3142
   8723SM  C14S11652   4.319   2.512  14.176  0.7003 -0.2290 -0.2190
   8723SM  H14S11653   4.398   2.585  14.207 -1.1193  2.5359 -1.6718
   8723SM  H14T11654   4.351   2.409  14.201 -0.6829 -0.8181 -0.8375
   8723SM  C15S11655   4.203   2.543  14.272  0.0900 -0.1644  0.1521
   8723SM  H15S11656   4.112   2.482  14.252 -1.5040  2.3554 -0.6921
   8723SM  H15T11657   4.169   2.648  14.276  2.6799  0.7187  1.3370
   8723SM  C16S11658   4.250   2.508  14.415  0.1127 -0.3875  0.9171
   8723SM  H16S11659   4.315   2.586  14.460 -1.6496  0.9378  1.2489
   8723SM  H16T11660   4.301   2.409  14.409  0.3232 -0.2369 -0.0477
   8723SM  C17S11661   4.132   2.497  14.508  0.9663  0.0884 -0.9049
   8723SM  H17S11662   4.061   2.433  14.452  0.6371  1.1721 -1.7858
   8723SM  H17T11663   4.091   2.600  14.516 -0.0108 -0.4037  0.9382
   8723SM  C18S11664   4.166   2.460  14.648  0.3041  0.1379 -0.2736
   8723SM  H18S11665   4.216   2.361  14.652  1.4536  0.7339  1.8653
   8723SM  H18T11666   4.072   2.452  14.706 -0.3106 -2.1958 -1.4579
   8723SM  H18U11667   4.232   2.541  14.687  2.8281 -1.8362 -0.2038
   8723SM   C1F11668   4.258   2.066  12.944 -0.3080  1.1760 -0.2182
   8723SM    OF11669   4.273   1.950  12.910  0.2990 -0.0701 -0.4194
   8723SM   C2F11670   4.139   2.113  13.005  0.3979  0.6604  0.0632
   8723SM   H2F11671   4.056   2.040  13.014 -0.5029  1.6717  0.2297
   8723SM   H2G11672   4.097   2.190  12.936 -0.1189 -0.2054 -0.6114
   8723SM   C3F11673   4.166   2.192  13.130  0.3307  0.6085 -0.0356
   8723SM   H3F11674   4.239   2.275  13.121  0.9916 -0.0736 -1.2152
   8723SM   H3G11675   4.208   2.124  13.208 -0.7715 -0.3001 -0.2078
   8723SM   C4F11676   4.031   2.243  13.187 -0.0827  0.1366 -0.1262
   8723SM   H4F11677   3.957   2.161  13.178 -0.3320  0.4477 -1.0036
   8723SM   H4G11678   3.997   2.322  13.118 -3.1932 -1.2514 -0.3173
   8723SM   C5F11679   4.029   2.298  13.328  0.7667 -0.4154 -0.0614
   8723SM   H5F11680   4.060   2.404  13.327  0.4702 -0.3177  0.6203
   8723SM   H5G11681   4.103   2.240  13.389  0.6226 -0.7602 -0.2097
   8723SM   C6F11682   3.890   2.277  13.383  0.4455  0.5032 -0.2023
   8723SM   H6F11683   3.881   2.169  13.407 -1.3617  0.1627 -2.0915
   8723SM   H6G11684   3.808   2.300  13.311 -0.6539 -1.6976  0.2494
   8723SM   C7F11685   3.868   2.366  13.504 -0.3758  0.0550 -0.6568
   8723SM   H7F11686   3.884   2.467  13.460  0.0048  0.2058 -0.1762
   8723SM   H7G11687   3.949   2.341  13.576 -1.7594 -1.3218  0.4638
   8723SM   C8F11688   3.735   2.330  13.570 -0.0664 -0.1151  0.6312
   8723SM   H8F11689   3.653   2.330  13.495 -1.3893 -2.9004  1.9433
   8723SM   H8G11690   3.708   2.408  13.645 -1.3067 -0.8536  0.9809
   8723SM   C9F11691   3.736   2.205  13.657 -0.4225 -0.4422  0.1311
   8723SM   H9F11692   3.828   2.202  13.719  0.6481  0.9228 -1.3321
   8723SM   H9G11693   3.760   2.126  13.583 -3.1512  1.3466 -2.9157
   8723SM  C10F11694   3.601   2.183  13.729 -0.4054  0.3808  0.2539
   8723SM  H10F11695   3.520   2.153  13.659  1.8748 -2.1854 -1.5359
   8723SM  H10G11696   3.564   2.277  13.774 -0.4678  0.5616 -0.1688
   8723SM  C11F11697   3.612   2.076  13.839 -0.4213  0.4627  0.5476
   8723SM  H11F11698   3.698   2.105  13.904  1.1800  0.7023 -1.5716
   8723SM  H11G11699   3.629   1.979  13.788  1.2755  1.6373 -1.2823
   8723SM  C12F11700   3.475   2.060  13.917 -0.9885  0.1111  0.1399
   8723SM  H12F11701   3.437   1.957  13.932  0.9995 -0.5573  0.9486
   8723SM  H12G11702   3.398   2.104  13.850 -0.7677  1.2517  0.6124
   8723SM  C13F11703   3.476   2.148  14.047 -0.2296 -0.2179 -0.4124
   8723SM  H13F11704   3.380   2.203  14.039 -0.1878 -0.1132 -0.2047
   8723SM  H13G11705   3.562   2.218  14.055  1.3709 -2.0856 -0.5533
   8723SM  C14F11706   3.486   2.056  14.173 -0.1806 -0.7338  0.0291
   8723SM  H14F11707   3.595   2.041  14.188 -0.4710 -1.7648  1.3547
   8723SM  H14G11708   3.437   1.962  14.140  1.8220 -2.2806  1.2263
   8723SM  C15F11709   3.425   2.109  14.299  0.3627 -0.8844  0.3036
   8723SM  H15F11710   3.321   2.142  14.276  0.9355  1.5657  0.9202
   8723SM  H15G11711   3.473   2.206  14.325 -1.0486  0.0927 -0.5603
   8723SM  C16F11712   3.418   2.010  14.413  0.0793  0.0124 -0.4594
   8723SM  H16F11713   3.519   1.964  14.422  0.5809  0.9693 -0.9712
   8723SM  H16G11714   3.344   1.933  14.384  0.6694 -0.7219 -0.0579
   8723SM  C17F11715   3.357   2.073  14.532 -0.5965  0.6068 -0.8476
   8723SM  H17F11716   3.252   2.105  14.515 -2.3655 -2.9931  1.7345
   8723SM  H17G11717   3.422   2.156  14.565  0.8472 -0.8288  0.1136
   8723SM  C18F11718   3.359   1.967  14.650 -0.7272 -0.4858 -0.4062
   8723SM  H18F11719   3.465   1.965  14.684 -0.6538  2.1515 -0.2361
   8723SM  H18G11720   3.335   1.862  14.623 -0.8167 -1.0208  1.6057
   8723SM  C19F11721   3.263   2.015  14.763 -0.6709  0.3425 -0.2764
   8723SM  H19F11722   3.163   2.044  14.725 -0.8678  1.3063  0.9306
   8723SM  H19G11723   3.302   2.109  14.807 -1.9155  0.5015  0.5442
   8723SM  C20F11724   3.256   1.925  14.892  0.1859  0.5138 -0.0471
   8723SM  H20F11725   3.360   1.902  14.922 -0.2266 -1.1494  0.1818
   8723SM  H20G11726   3.210   1.826  14.868  0.9398  0.3401 -0.8096
   8723SM  C21F11727   3.187   1.996  15.003  0.2621 -0.1535  0.3379
   8723SM  H21F11728   3.076   1.995  15.008  0.2135  2.6448  1.2506
   8723SM  H21G11729   3.212   2.104  14.999  1.5504 -0.4700 -1.5722
   8723SM  C22F11730   3.241   1.945  15.144 -0.2427 -0.3079  0.1064
   8723SM  H22F11731   3.349   1.970  15.149 -0.0581 -0.5419 -1.9268
   8723SM  H22G11732   3.229   1.835  15.155 -0.4382 -0.0608  3.0925
   8723SM  C23F11733   3.161   1.996  15.265 -0.4720  0.1562 -1.3174
   8723SM  H23F11734   3.187   1.940  15.358  1.1975  0.4845 -1.5613
   8723SM  H23G11735   3.056   1.964  15.244 -0.8243  0.2088  0.2329
   8723SM  H23H11736   3.158   2.107  15.269  1.3274  0.2232 -1.0551
   8823SM     N11737   0.782   2.350  12.703  0.0312  0.1369 -0.0662
   8823SM   C1511738   0.799   2.435  12.576  0.0356  0.0928 -0.2139
   8823SM  H15A11739   0.744   2.383  12.499  0.6786 -0.9809  0.0311
   8823SM  H15B11740   0.898   2.460  12.542 -1.4091  1.2186 -4.0668
   8823SM  H15C11741   0.735   2.521  12.586 -1.4553 -1.0398  0.4025
   8823SM   C1411742   0.831   2.430  12.822 -0.3581 -0.7881 -0.2109
   8823SM  H14A11743   0.934   2.459  12.807 -0.7070 -0.4614 -2.3613
   8823SM  H14B11744   0.830   2.380  12.917  0.2266  0.6657  0.5910
   8823SM  H14C11745   0.776   2.522  12.834  0.0325 -0.4546 -0.8835
   8823SM   C1311746   0.632   2.328  12.717  0.5310 -0.2029  0.2779
   8823SM  H13A11747   0.575   2.419  12.704  0.6585 -0.4330 -2.4680
   8823SM  H13B11748   0.609   2.288  12.815  4.8381 -0.7092  1.2777
   8823SM  H13C11749   0.602   2.260  12.639 -2.6912  0.1221  1.0800
   8823SM   C1211750   0.861   2.222  12.697  0.1177  0.4178 -0.0938
   8823SM  H12A11751   0.823   2.151  12.770  0.0132 -0.9261 -1.4108
   8823SM  H12B11752   0.964   2.238  12.727  0.5421  0.2791 -1.4376
   8823SM   C1111753   0.879   2.139  12.569 -0.0879 -0.5208  0.0963
   8823SM  H11A11754   0.938   2.045  12.582  0.0172 -0.4904 -0.1421
   8823SM  H11B11755   0.946   2.199  12.503  3.5187 -3.7422  0.4549
   8823SM     P11756   0.668   1.988  12.549 -0.1921 -0.4492 -0.5944
   8823SM   O1311757   0.533   2.013  12.501 -0.1289  0.2710  1.3021
   8823SM   O1411758   0.734   1.865  12.507  0.1303 -0.7181  0.4135
   8823SM   O1111759   0.659   1.994  12.712 -0.5189 -0.1894  0.2011
   8823SM   O1211760   0.750   2.118  12.507  0.1877 -0.2148 -0.4336
   8823SM   C1S11761   0.667   1.873  12.792  0.0693 -0.7774 -0.0320
   8823SM   H1S11762   0.764   1.822  12.774 -1.3741 -3.7541  0.0226
   8823SM   H1T11763   0.574   1.816  12.771 -0.3481 -0.9649  2.0580
   8823SM    NF11764   0.673   1.760  13.007  0.3588  0.1980 -0.1909
   8823SM   HNF11765   0.596   1.703  13.034  0.9203  0.4802  2.2820
   8823SM   C2S11766   0.660   1.891  12.949  0.3270  0.3149  0.4736
   8823SM   H2S11767   0.733   1.964  12.990 -0.6439  2.1038 -0.8359
   8823SM   C3S11768   0.527   1.957  12.975  0.1296  0.2785  0.3131
   8823SM   H3S11769   0.448   1.905  12.917  0.0255  0.4447  0.3065
   8823SM    O311770   0.527   2.092  12.933 -0.6318 -0.1949 -0.1743
   8823SM   HO311771   0.584   2.092  12.856  0.6689  0.7487  0.7544
   8823SM   C4S11772   0.489   1.969  13.116  0.0950 -0.2263 -0.5575
   8823SM   H4S11773   0.550   2.035  13.181 -3.2293  0.3351  2.2973
   8823SM   C5S11774   0.402   1.892  13.179  0.9931  0.4143 -0.6259
   8823SM   H5S11775   0.360   1.811  13.117  1.4320  1.5029 -2.3895
   8823SM   C6S11776   0.357   1.896  13.323 -0.0822  0.0502  0.3216
   8823SM   H6S11777   0.343   1.793  13.360 -1.9804  0.7392  1.6581
   8823SM   H6T11778   0.251   1.924  13.340 -0.4828 -0.6803 -0.8510
   8823SM   C7S11779   0.440   1.975  13.432 -0.1256 -0.1482  0.0574
   8823SM   H7S11780   0.399   2.077  13.420 -0.4077 -0.2253  0.3441
   8823SM   H7T11781   0.550   1.983  13.420 -0.2306 -0.1560 -1.0700
   8823SM   C8S11782   0.408   1.921  13.574  0.4377 -0.1802  0.1252
   8823SM   H8S11783   0.477   1.959  13.653  2.4387 -2.5485 -0.3673
   8823SM   H8T11784   0.428   1.812  13.561 -0.2279 -0.2251 -0.5959
   8823SM   C9S11785   0.268   1.935  13.627  0.1141  0.0348  0.2706
   8823SM   H9S11786   0.201   1.854  13.591  1.6612 -0.9405 -0.5537
   8823SM   H9T11787   0.217   2.023  13.580  0.5847  0.2850  0.2222
   8823SM  C10S11788   0.258   1.954  13.778  0.0397  0.2946 -0.1767
   8823SM  H10S11789   0.296   2.056  13.797 -0.7057  0.2239  2.0412
   8823SM  H10T11790   0.325   1.882  13.830  2.0727  1.4857 -1.0298
   8823SM  C11S11791   0.115   1.941  13.834 -0.0467 -0.1247  0.5975
   8823SM  H11S11792   0.097   1.832  13.823  1.1257 -0.2668 -0.1700
   8823SM  H11T11793   0.048   2.001  13.770  0.7054  0.9808  0.8140
   8823SM  C12S11794   0.111   1.990  13.982  0.2108 -0.4919  0.1924
   8823SM  H12S11795   0.083   2.097  13.973 -0.9836 -0.7542  0.7196
   8823SM  H12T11796   0.214   1.986  14.024  0.7819  1.6583 -0.8379
   8823SM  C13S11797   0.014   1.920  14.072 -0.2679 -0.0807 -0.4502
   8823SM  H13S11798   0.043   1.816  14.096 -0.4375  0.0618  0.3965
   8823SM  H13T11799  -0.077   1.925  14.009 -1.2752 -0.6098  0.9290
   8823SM  C14S11800  -0.011   1.991  14.207  0.0964  0.0274 -1.0561
   8823SM  H14S11801  -0.041   2.095  14.182  0.9609  0.4524 -0.3691
   8823SM  H14T11802   0.078   1.983  14.273  0.5318  1.9030 -1.3627
   8823SM  C15S11803  -0.140   1.937  14.278  0.2005  0.2682  0.4650
   8823SM  H15S11804  -0.112   1.832  14.302  2.3681  0.1857 -1.9761
   8823SM  H15T11805  -0.222   1.931  14.204  1.6827  0.8137 -1.2941
   8823SM  C16S11806  -0.186   2.007  14.397  1.1235  0.0478  0.8395
   8823SM  H16S11807  -0.196   2.115  14.372 -0.3561 -0.3555 -0.4968
   8823SM  H16T11808  -0.113   1.998  14.481  1.5698  0.4786  0.5034
   8823SM  C17S11809  -0.313   1.955  14.450  0.4826  0.1379 -0.0452
   8823SM  H17S11810  -0.294   1.847  14.470 -0.3324 -0.5424 -2.5555
   8823SM  H17T11811  -0.382   1.964  14.363  0.5807 -2.1165 -0.4171
   8823SM  C18S11812  -0.373   2.024  14.576  0.1174 -0.1150 -0.1210
   8823SM  H18S11813  -0.327   2.125  14.580  1.9673 -0.9185 -0.4042
   8823SM  H18T11814  -0.349   1.973  14.671 -0.5044 -3.6984 -1.6977
   8823SM  H18U11815  -0.484   2.025  14.564  0.2753 -0.7028 -2.0556
   8823SM   C1F11816   0.787   1.686  13.006 -0.1264  1.0906 -0.0474
   8823SM    OF11817   0.895   1.738  12.983 -0.1664 -0.1123  0.0800
   8823SM   C2F11818   0.770   1.539  13.034 -0.0646  0.0815  0.3351
   8823SM   H2F11819   0.769   1.476  12.943  2.8154  0.1499  0.1671
   8823SM   H2G11820   0.670   1.524  13.079 -0.9223 -0.5681 -1.6580
   8823SM   C3F11821   0.876   1.480  13.126  0.2940  0.1792  0.8046
   8823SM   H3F11822   0.978   1.491  13.082 -0.6973  2.9528 -1.0343
   8823SM   H3G11823   0.858   1.372  13.145 -0.0775 -0.3788 -2.1730
   8823SM   C4F11824   0.893   1.538  13.275  0.4340  0.4707  0.4700
   8823SM   H4F11825   0.911   1.647  13.262 -0.4382  0.3830 -2.1627
   8823SM   H4G11826   0.974   1.491  13.334 -0.6501 -0.7640  1.0202
   8823SM   C5F11827   0.768   1.520  13.369  0.2848  0.8262 -0.3839
   8823SM   H5F11828   0.769   1.410  13.385  0.2939  0.9479  0.5051
   8823SM   H5G11829   0.674   1.544  13.315  0.3042 -0.5573 -1.0724
   8823SM   C6F11830   0.770   1.614  13.490 -0.1512  0.0728 -0.0392
   8823SM   H6F11831   0.785   1.717  13.452 -0.5061 -0.0355 -0.4772
   8823SM   H6G11832   0.860   1.585  13.549 -0.2514 -0.3582 -0.0993
   8823SM   C7F11833   0.655   1.588  13.583  0.0677  0.6871  0.3877
   8823SM   H7F11834   0.648   1.481  13.613  1.4297  0.0115 -1.4816
   8823SM   H7G11835   0.559   1.598  13.527  0.2176 -2.3152 -0.5936
   8823SM   C8F11836   0.656   1.667  13.707  0.0781 -0.6684  0.2811
   8823SM   H8F11837   0.662   1.772  13.672  0.4082 -0.6731  0.3167
   8823SM   H8G11838   0.755   1.659  13.758  1.2117 -0.0905 -1.6969
   8823SM   C9F11839   0.544   1.638  13.807  0.5073  1.0372  0.0641
   8823SM   H9F11840   0.552   1.531  13.834 -0.3093  0.4576 -1.8371
   8823SM   H9G11841   0.448   1.644  13.752  1.1955 -1.6256 -1.5780
   8823SM  C10F11842   0.549   1.731  13.932 -0.5122 -0.0351  0.4842
   8823SM  H10F11843   0.530   1.833  13.891  0.6708 -0.6215 -1.6945
   8823SM  H10G11844   0.652   1.741  13.970 -0.6545  0.9314  0.6480
   8823SM  C11F11845   0.443   1.708  14.041  0.3740  0.3426  0.5778
   8823SM  H11F11846   0.469   1.612  14.090 -1.5785 -0.9941 -0.8543
   8823SM  H11G11847   0.338   1.700  14.006  0.2005 -2.6851  1.5194
   8823SM  C12F11848   0.444   1.816  14.154 -0.6018  0.6022 -0.5212
   8823SM  H12F11849   0.408   1.917  14.128  0.6434  1.8329  2.1279
   8823SM  H12G11850   0.553   1.812  14.174 -0.2874 -0.5137 -2.1900
   8823SM  C13F11851   0.368   1.779  14.279 -0.1847  0.4796  0.9384
   8823SM  H13F11852   0.377   1.670  14.299 -3.2430 -0.5947 -2.3965
   8823SM  H13G11853   0.259   1.775  14.259 -0.1917 -0.5679  1.1089
   8823SM  C14F11854   0.402   1.880  14.389  0.5570 -0.1002 -0.4236
   8823SM  H14F11855   0.393   1.982  14.347 -0.5046  0.0005  0.0148
   8823SM  H14G11856   0.507   1.863  14.420  0.8494  2.1158 -0.0955
   8823SM  C15F11857   0.298   1.872  14.500  0.2850 -0.1233 -0.0454
   8823SM  H15F11858   0.289   1.770  14.542  1.3208 -0.1152  0.2289
   8823SM  H15G11859   0.196   1.882  14.456  1.5345  4.0080 -2.5321
   8823SM  C16F11860   0.301   1.976  14.614  0.2525  0.0730  0.6101
   8823SM  H16F11861   0.345   2.073  14.582  1.1291 -0.6077 -0.2745
   8823SM  H16G11862   0.379   1.935  14.682  0.1611  0.5360  1.0057
   8823SM  C17F11863   0.172   1.991  14.698 -0.1164  0.0581  0.1425
   8823SM  H17F11864   0.132   1.890  14.721 -1.1858  0.5212  0.4141
   8823SM  H17G11865   0.099   2.050  14.638  0.4342  0.3010 -0.2996
   8823SM  C18F11866   0.191   2.067  14.835  0.0573 -1.0766  0.9169
   8823SM  H18F11867   0.259   2.153  14.815 -0.3965 -1.2046 -1.3497
   8823SM  H18G11868   0.249   1.999  14.901  0.8824  0.9504  2.4009
   8823SM  C19F11869   0.060   2.116  14.905 -0.1174 -0.8488 -0.0720
   8823SM  H19F11870   0.072   2.138  15.014  2.2141  3.2840 -0.9544
   8823SM  H19G11871  -0.018   2.038  14.891 -0.1211 -0.6388 -1.2971
   8823SM  C20F11872   0.012   2.254  14.849  0.0886 -0.2351  0.2160
   8823SM  H20F11873   0.001   2.239  14.739  1.2256  0.5210 -0.0083
   8823SM  H20G11874   0.094   2.327  14.864 -2.3662  2.8376 -0.2357
   8823SM  C21F11875  -0.111   2.300  14.928 -0.8396  0.1336 -0.0510
   8823SM  H21F11876  -0.130   2.403  14.889 -1.1559 -0.1864 -0.7597
   8823SM  H21G11877  -0.084   2.296  15.035 -0.6253 -2.2516 -0.1488
   8823SM  C22F11878  -0.242   2.223  14.896 -0.8458  0.3720 -0.3758
   8823SM  H22F11879  -0.237   2.132  14.960  0.6930 -0.9956 -2.2961
   8823SM  H22G11880  -0.246   2.203  14.786  0.6406  0.0685 -0.3959
   8823SM  C23F11881  -0.367   2.291  14.933 -0.0448 -0.4384 -0.3136
   8823SM  H23F11882  -0.451   2.264  14.865 -0.0310  2.3966 -1.6255
   8823SM  H23G11883  -0.363   2.402  14.922  0.0176 -0.3723  0.3493
   8823SM  H23H11884  -0.393   2.268  15.038  0.6163 -2.7746 -0.6055
   8923SM     N11885   5.333   3.033  12.187 -0.0872  0.1168 -0.5353
   8923SM   C1511886   5.356   2.966  12.061 -0.3431  0.0489 -0.2039
   8923SM  H15A11887   5.305   3.017  11.982 -0.9313 -1.8626 -1.1199
   8923SM  H15B11888   5.332   2.860  12.066  0.5475 -0.1388  0.5362
   8923SM  H15C11889   5.461   2.973  12.034 -1.1018  1.7769 -3.0876
   8923SM   C1411890   5.394   3.171  12.184 -0.1055  0.2819  0.6853
   8923SM  H14A11891   5.494   3.170  12.142 -0.1299  0.4273  0.6232
   8923SM  H14B11892   5.396   3.222  12.279 -0.0644  2.5452 -0.4564
   8923SM  H14C11893   5.347   3.237  12.112 -0.7843 -0.4495  0.4417
   8923SM   C1311894   5.187   3.051  12.217  0.1658  0.1970  0.0589
   8923SM  H13A11895   5.161   3.109  12.304 -0.7387 -1.8536  1.2272
   8923SM  H13B11896   5.140   2.958  12.244 -2.7543  1.9904  1.6456
   8923SM  H13C11897   5.140   3.092  12.128  0.0261  0.0953  0.0850
   8923SM   C1211898   5.404   2.959  12.300  0.4685 -0.2265 -0.4509
   8923SM  H12A11899   5.507   2.958  12.268  0.3357 -3.2348 -1.0172
   8923SM  H12B11900   5.370   2.857  12.291 -2.7801  0.9027 -2.7928
   8923SM   C1111901   5.383   3.004  12.447 -0.5523  0.1790  0.2173
   8923SM  H11A11902   5.424   3.108  12.444  3.5216 -1.2628 -1.3408
   8923SM  H11B11903   5.449   2.945  12.513  1.6396  1.9461 -0.2660
   8923SM     P11904   5.172   2.860  12.508  0.7351 -0.0970 -0.5022
   8923SM   O1311905   5.036   2.882  12.452 -0.3930 -0.2554 -0.6876
   8923SM   O1411906   5.257   2.749  12.454  0.2386 -0.0515  0.0276
   8923SM   O1111907   5.156   2.844  12.668  0.4785 -0.2207  0.5475
   8923SM   O1211908   5.246   2.995  12.497  0.2916 -0.5780 -0.5294
   8923SM   C1S11909   5.170   2.712  12.721  0.1573  0.0987 -0.7894
   8923SM   H1S11910   5.273   2.670  12.719 -0.5718 -2.7806  4.4165
   8923SM   H1T11911   5.105   2.639  12.668  0.4179 -0.4823 -0.3238
   8923SM    NF11912   5.165   2.581  12.939 -0.2421  0.0248 -1.2317
   8923SM   HNF11913   5.094   2.512  12.927 -0.4410  0.0999 -0.5220
   8923SM   C2S11914   5.126   2.709  12.876 -0.3922 -0.5604  0.6953
   8923SM   H2S11915   5.169   2.794  12.932 -1.2171  0.1909  0.2188
   8923SM   C3S11916   4.966   2.737  12.875  0.2591  0.0448  0.2445
   8923SM   H3S11917   4.919   2.652  12.820  0.2243 -0.3966  0.9397
   8923SM    O311918   4.933   2.850  12.791  0.4796 -0.6809  0.1878
   8923SM   HO311919   5.021   2.878  12.764  0.7633 -2.1169 -0.4348
   8923SM   C4S11920   4.901   2.757  13.015 -0.7977 -0.6376 -0.3690
   8923SM   H4S11921   4.969   2.794  13.094 -0.6032 -2.3122  0.2993
   8923SM   C5S11922   4.781   2.719  13.066  0.3107 -0.2614 -0.7894
   8923SM   H5S11923   4.710   2.686  12.989  0.5484  0.5373 -1.3520
   8923SM   C6S11924   4.738   2.747  13.208  0.4826  0.0082  0.0672
   8923SM   H6S11925   4.639   2.702  13.229  1.4475 -1.3963  1.8751
   8923SM   H6T11926   4.723   2.855  13.230  0.7168  0.0243  0.1534
   8923SM   C7S11927   4.831   2.672  13.304  0.0703 -0.0629 -0.0042
   8923SM   H7S11928   4.940   2.688  13.291  0.2386 -1.8962 -1.3133
   8923SM   H7T11929   4.821   2.565  13.277  0.3995 -0.1961  0.3887
   8923SM   C8S11930   4.798   2.710  13.451 -0.2395  0.4306  0.2281
   8923SM   H8S11931   4.834   2.813  13.473 -0.5706  0.7141 -0.5283
   8923SM   H8T11932   4.862   2.640  13.509  0.3006  0.6315 -0.1210
   8923SM   C9S11933   4.642   2.712  13.478  0.1276  0.2035 -0.3226
   8923SM   H9S11934   4.596   2.635  13.413 -2.4600 -0.3939  2.0419
   8923SM   H9T11935   4.592   2.805  13.443 -3.3523 -1.3827  0.0513
   8923SM  C10S11936   4.619   2.681  13.625  0.3152  0.4731  0.7674
   8923SM  H10S11937   4.668   2.582  13.642  1.3512  1.0802  1.3843
   8923SM  H10T11938   4.510   2.668  13.642  0.3915 -2.5861 -0.3104
   8923SM  C11S11939   4.673   2.784  13.714  0.0164 -0.4243  0.1254
   8923SM  H11S11940   4.627   2.883  13.696  0.0969 -0.5637 -0.8984
   8923SM  H11T11941   4.784   2.794  13.708  0.0922 -1.5323 -0.6405
   8923SM  C12S11942   4.633   2.745  13.866  0.0809  0.7091  0.0045
   8923SM  H12S11943   4.679   2.647  13.892  1.5679  1.3112 -0.3024
   8923SM  H12T11944   4.522   2.739  13.873  0.2320 -2.6332  1.5596
   8923SM  C13S11945   4.674   2.834  13.976  0.3085  0.4021 -0.1460
   8923SM  H13S11946   4.641   2.936  13.947 -2.6003 -0.4997 -0.3195
   8923SM  H13T11947   4.782   2.831  14.001  0.5221  1.2966 -0.9222
   8923SM  C14S11948   4.597   2.796  14.108 -0.0690 -0.1426 -0.9044
   8923SM  H14S11949   4.607   2.687  14.125 -2.8183 -0.0592  2.2487
   8923SM  H14T11950   4.492   2.828  14.095 -0.5496 -1.1302  0.3986
   8923SM  C15S11951   4.654   2.852  14.237  0.6658  0.0149  0.0328
   8923SM  H15S11952   4.660   2.962  14.235 -3.2764  0.3324 -0.8518
   8923SM  H15T11953   4.752   2.803  14.257  0.1990 -0.6457  0.7791
   8923SM  C16S11954   4.567   2.818  14.359  0.2901 -0.4420 -0.5116
   8923SM  H16S11955   4.524   2.717  14.345 -0.2244 -0.5360  1.4687
   8923SM  H16T11956   4.477   2.883  14.363  1.6898  1.6027 -0.1513
   8923SM  C17S11957   4.642   2.839  14.493 -0.1843 -0.0450  0.5627
   8923SM  H17S11958   4.709   2.926  14.480 -1.1160  0.7790  1.2041
   8923SM  H17T11959   4.706   2.751  14.517  0.5057  0.5933  1.0941
   8923SM  C18S11960   4.545   2.861  14.608  0.0861 -0.3261 -0.1451
   8923SM  H18S11961   4.442   2.826  14.590 -0.5088  2.0591 -1.8068
   8923SM  H18T11962   4.544   2.972  14.616  0.6674 -0.3505  0.4399
   8923SM  H18U11963   4.583   2.813  14.701  1.5893 -0.3110 -0.7128
   8923SM   C1F11964   5.288   2.556  12.976 -0.4814 -0.0680  0.2040
   8923SM    OF11965   5.381   2.632  12.942 -0.1060 -0.4770 -0.3471
   8923SM   C2F11966   5.315   2.423  13.051  0.3975 -0.2043 -0.6120
   8923SM   H2F11967   5.374   2.357  12.984 -0.1742 -0.8775 -0.4581
   8923SM   H2G11968   5.214   2.380  13.064 -0.3979  1.5007 -0.7950
   8923SM   C3F11969   5.380   2.449  13.188 -0.4305  0.1833 -0.0225
   8923SM   H3F11970   5.464   2.520  13.173  1.6543 -1.7613  1.7634
   8923SM   H3G11971   5.437   2.358  13.216 -0.2824  0.7270  1.5202
   8923SM   C4F11972   5.284   2.488  13.304 -0.8489 -1.1339  0.1423
   8923SM   H4F11973   5.197   2.419  13.310 -1.9775  0.1743 -0.6297
   8923SM   H4G11974   5.235   2.581  13.269 -0.4318 -0.7102  0.6820
   8923SM   C5F11975   5.361   2.511  13.435  0.8070 -0.7731  0.2641
   8923SM   H5F11976   5.453   2.567  13.410  0.4205 -0.4898 -0.5780
   8923SM   H5G11977   5.387   2.408  13.468  1.9915 -0.6618 -0.2662
   8923SM   C6F11978   5.289   2.590  13.546  0.0056  0.3137  0.0124
   8923SM   H6F11979   5.265   2.692  13.511 -1.0685  0.7664  1.9526
   8923SM   H6G11980   5.352   2.592  13.637 -0.1528  1.1718  0.1056
   8923SM   C7F11981   5.154   2.522  13.593 -0.5280 -0.2666  1.1152
   8923SM   H7F11982   5.173   2.414  13.611 -0.4029 -0.3791  0.3411
   8923SM   H7G11983   5.096   2.537  13.500 -1.2465  1.8230  1.8387
   8923SM   C8F11984   5.092   2.587  13.710  0.5522 -0.0369 -0.6565
   8923SM   H8F11985   4.990   2.542  13.721  1.4945 -1.9929  0.6176
   8923SM   H8G11986   5.067   2.692  13.683  0.4097 -0.2225 -1.2663
   8923SM   C9F11987   5.146   2.560  13.847 -0.5785  0.0894 -0.0151
   8923SM   H9F11988   5.254   2.586  13.851 -0.4573 -0.3499 -0.3768
   8923SM   H9G11989   5.140   2.453  13.875  2.8458 -0.4241 -0.7817
   8923SM  C10F11990   5.066   2.639  13.953  0.7931 -0.7082 -0.3327
   8923SM  H10F11991   4.969   2.590  13.976  1.1868 -2.1732 -1.5808
   8923SM  H10G11992   5.033   2.735  13.908  1.1269  0.6867  2.2657
   8923SM  C11F11993   5.137   2.675  14.084 -0.1108 -0.1891  0.0050
   8923SM  H11F11994   5.237   2.721  14.072  0.0875  0.7994  3.9363
   8923SM  H11G11995   5.154   2.574  14.128 -0.5526 -0.0368  0.5481
   8923SM  C12F11996   5.059   2.759  14.177  0.8925  0.0144 -0.1309
   8923SM  H12F11997   4.973   2.696  14.210  1.9091 -0.5350  1.6048
   8923SM  H12G11998   5.014   2.837  14.111  0.8205 -1.1111 -1.4713
   8923SM  C13F11999   5.133   2.812  14.293 -0.0532 -0.1289  0.7072
   8923SM  H13F12000   5.204   2.889  14.256 -1.4536  0.4003 -1.0047
   8923SM  H13G12001   5.193   2.725  14.325 -1.9425 -1.9241 -0.4103
   8923SM  C14F12002   5.042   2.874  14.401  0.3981  0.3883  0.7355
   8923SM  H14F12003   4.972   2.795  14.438 -3.6993  2.3473 -2.0708
   8923SM  H14G12004   4.974   2.946  14.350 -1.4173 -2.5787 -1.3817
   8923SM  C15F12005   5.123   2.931  14.521  0.4415 -0.3947 -0.2473
   8923SM  H15F12006   5.049   2.960  14.599  0.1178  0.5168 -0.8634
   8923SM  H15G12007   5.163   3.025  14.478 -1.3732 -0.1390 -1.5227
   8923SM  C16F12008   5.223   2.838  14.585 -0.7994 -0.4589 -0.6073
   8923SM  H16F12009   5.301   2.814  14.510 -0.6980  1.2353 -1.0783
   8923SM  H16G12010   5.162   2.747  14.602  0.0321 -0.9120  0.0294
   8923SM  C17F12011   5.284   2.894  14.709  0.8305  0.4339  0.3800
   8923SM  H17F12012   5.208   2.942  14.774  0.0374  0.7228 -0.7467
   8923SM  H17G12013   5.352   2.973  14.671  1.1238  0.4400  0.8932
   8923SM  C18F12014   5.369   2.798  14.792  0.8959  0.4042 -0.4945
   8923SM  H18F12015   5.455   2.762  14.732  0.7953 -1.0630  0.1974
   8923SM  H18G12016   5.306   2.717  14.835  1.2836  0.5775  0.4492
   8923SM  C19F12017   5.441   2.876  14.899 -0.2670 -0.4036 -0.7183
   8923SM  H19F12018   5.360   2.919  14.962  0.2014  0.6576 -0.8142
   8923SM  H19G12019   5.489   2.956  14.839  1.0712 -0.3976  0.3182
   8923SM  C20F12020   5.537   2.793  14.979 -0.3646 -0.2216 -0.3533
   8923SM  H20F12021   5.629   2.778  14.918 -0.1344 -0.5728  0.0712
   8923SM  H20G12022   5.483   2.703  15.013  1.1165 -2.2101 -2.8734
   8923SM  C21F12023   5.589   2.859  15.113  0.0392  0.3295  0.3650
   8923SM  H21F12024   5.670   2.798  15.159 -0.8936 -1.9699 -0.8917
   8923SM  H21G12025   5.502   2.867  15.183 -0.1389  0.2762  0.1505
   8923SM  C22F12026   5.639   2.997  15.097 -0.7983  0.0423 -0.3006
   8923SM  H22F12027   5.548   3.052  15.067 -1.7514  0.4392  2.9503
   8923SM  H22G12028   5.709   3.018  15.012 -0.8826  0.3835 -0.2860
   8923SM  C23F12029   5.688   3.068  15.223  0.3444  0.2120  0.5227
   8923SM  H23F12030   5.686   3.177  15.204 -1.1038  0.1205  0.0038
   8923SM  H23G12031   5.788   3.030  15.254 -0.0841 -1.3903  0.0605
   8923SM  H23H12032   5.614   3.055  15.305 -1.9775 -1.5147 -1.7237
   9023SM     N12033   5.892   1.954  12.609  0.0452 -0.1613  0.3276
   9023SM   C1512034   5.989   2.072  12.621 -0.6468 -0.1233 -0.1073
   9023SM  H15A12035   5.989   2.113  12.721  4.3713  1.0600 -0.3045
   9023SM  H15B12036   5.957   2.153  12.557  0.9152  0.6535  0.0516
   9023SM  H15C12037   6.087   2.048  12.584 -0.9753 -1.1640 -0.3521
   9023SM   C1412038   5.848   1.940  12.466 -0.0064 -0.3274  0.1679
   9023SM  H14A12039   5.798   2.029  12.429 -0.6328  0.2966  2.3688
   9023SM  H14B12040   5.772   1.863  12.463  0.0991 -0.5653  2.3426
   9023SM  H14C12041   5.927   1.924  12.395  0.2061 -0.1882  0.3734
   9023SM   C1312042   5.966   1.829  12.652 -0.5721 -0.0538 -0.0916
   9023SM  H13A12043   6.048   1.815  12.583 -1.5979  2.2204 -1.9095
   9023SM  H13B12044   5.903   1.741  12.651 -0.5968 -0.1852  3.0584
   9023SM  H13C12045   5.996   1.832  12.756  1.3357  0.2335 -0.6116
   9023SM   C1212046   5.768   1.974  12.692 -0.6869  0.2225  0.1853
   9023SM  H12A12047   5.714   2.064  12.664 -0.0318  0.1476 -1.4277
   9023SM  H12B12048   5.793   1.988  12.796 -2.4900  1.7920  0.4762
   9023SM   C1112049   5.647   1.871  12.692 -1.0068 -0.2518 -0.3097
   9023SM  H11A12050   5.576   1.905  12.770  0.7669 -1.2219  1.8409
   9023SM  H11B12051   5.688   1.774  12.729 -2.7488 -0.4778  1.1474
   9023SM     P12052   5.478   1.958  12.508  0.8153 -0.3439 -0.2022
   9023SM   O1312053   5.530   2.090  12.491 -0.9696 -0.5119 -0.0615
   9023SM   O1412054   5.406   1.901  12.388 -0.3207  0.4919  0.3651
   9023SM   O1112055   5.367   1.969  12.618 -0.1432 -0.1957 -0.9049
   9023SM   O1212056   5.582   1.857  12.567 -0.5614 -0.4979  0.4459
   9023SM   C1S12057   5.300   1.856  12.681  0.3437  0.0374  0.8753
   9023SM   H1S12058   5.379   1.782  12.702  1.3197 -0.2936 -3.0498
   9023SM   H1T12059   5.231   1.810  12.606 -0.6941  0.8014  1.3433
   9023SM    NF12060   5.142   1.784  12.856 -0.3189 -0.6090  0.6755
   9023SM   HNF12061   5.043   1.782  12.846 -0.3456  0.2316  0.7628
   9023SM   C2S12062   5.217   1.905  12.800  0.0608  0.5538  0.0364
   9023SM   H2S12063   5.284   1.937  12.882 -0.9539  2.0664  0.3275
   9023SM   C3S12064   5.119   2.021  12.770 -0.0724  0.3390 -0.1733
   9023SM   H3S12065   5.055   1.999  12.682 -0.6985  1.2824  0.0253
   9023SM    O312066   5.190   2.137  12.735  0.2956 -0.1531 -0.2802
   9023SM   HO312067   5.267   2.091  12.700 -0.1461 -1.2760  0.1827
   9023SM   C4S12068   5.031   2.050  12.887  0.0484 -0.2377  0.1539
   9023SM   H4S12069   4.934   2.000  12.870 -0.0223 -0.0021 -0.1416
   9023SM   C5S12070   5.064   2.107  13.008 -0.2566  0.0620  0.1501
   9023SM   H5S12071   5.163   2.156  13.013 -1.7993  3.3011  1.5339
   9023SM   C6S12072   4.970   2.135  13.120 -0.5260  0.2952  0.2059
   9023SM   H6S12073   4.867   2.158  13.086 -0.6791 -0.4707  0.1276
   9023SM   H6T12074   5.006   2.217  13.186 -1.8421  1.3875 -0.3873
   9023SM   C7S12075   4.976   2.004  13.206  0.4994 -0.6312  0.3310
   9023SM   H7S12076   5.079   1.982  13.242  1.2641  1.5361 -0.3523
   9023SM   H7T12077   4.945   1.919  13.142 -0.7738 -0.0309  0.1097
   9023SM   C8S12078   4.883   2.018  13.328  0.1785  0.0498 -0.2781
   9023SM   H8S12079   4.874   1.923  13.386  0.2897  0.4828  0.4645
   9023SM   H8T12080   4.778   2.038  13.298  0.1635 -1.6674 -1.5555
   9023SM   C9S12081   4.937   2.117  13.428  0.0842 -0.0289  0.4641
   9023SM   H9S12082   4.932   2.217  13.381 -1.1467 -0.3728 -0.1837
   9023SM   H9T12083   5.043   2.090  13.450 -0.9659 -1.3920  4.8241
   9023SM  C10S12084   4.854   2.108  13.551 -0.2776 -0.3219 -1.0616
   9023SM  H10S12085   4.856   2.002  13.584  0.7432 -0.2730 -0.9589
   9023SM  H10T12086   4.746   2.127  13.532 -0.3183  0.9751  0.3047
   9023SM  C11S12087   4.903   2.203  13.666 -1.0304  0.4675  0.6738
   9023SM  H11S12088   4.910   2.306  13.627  1.7125  0.4602  0.9500
   9023SM  H11T12089   5.009   2.181  13.693 -0.9195 -1.1406 -0.8590
   9023SM  C12S12090   4.825   2.184  13.794 -0.2261  0.4020 -0.1524
   9023SM  H12S12091   4.842   2.080  13.828 -0.1256  0.6630  0.6201
   9023SM  H12T12092   4.720   2.208  13.769 -0.4415 -0.4309 -0.0774
   9023SM  C13S12093   4.864   2.281  13.905 -0.1390 -0.0671  0.1558
   9023SM  H13S12094   4.855   2.386  13.870 -1.3801 -0.3564 -0.4672
   9023SM  H13T12095   4.973   2.277  13.922 -0.2153 -0.9777  0.4602
   9023SM  C14S12096   4.789   2.263  14.036 -0.2865  0.2997 -0.1582
   9023SM  H14S12097   4.817   2.163  14.076  0.5725  0.3482 -0.6159
   9023SM  H14T12098   4.680   2.253  14.018 -0.5232  0.7980  0.9235
   9023SM  C15S12099   4.821   2.377  14.137 -0.3052  0.1909  0.6722
   9023SM  H15S12100   4.798   2.476  14.092 -2.9405 -0.5057  0.3472
   9023SM  H15T12101   4.922   2.371  14.182 -0.7196  2.4029  2.0395
   9023SM  C16S12102   4.728   2.366  14.260 -0.5713 -0.0472 -0.2641
   9023SM  H16S12103   4.748   2.268  14.307 -0.1874 -0.0927 -0.5197
   9023SM  H16T12104   4.621   2.370  14.230 -1.1157  0.1328  1.5857
   9023SM  C17S12105   4.743   2.484  14.352 -0.1276  0.3307  0.6670
   9023SM  H17S12106   4.713   2.574  14.294  1.1738 -0.5743 -1.5577
   9023SM  H17T12107   4.846   2.495  14.393  1.0360  1.1414 -2.2317
   9023SM  C18S12108   4.637   2.467  14.461 -0.1737  0.1941 -0.3702
   9023SM  H18S12109   4.644   2.557  14.526  1.2241  1.9339 -2.7580
   9023SM  H18T12110   4.665   2.382  14.527  1.2678  1.9736  1.4735
   9023SM  H18U12111   4.539   2.457  14.411  0.0530 -0.2474 -0.7379
   9023SM   C1F12112   5.202   1.680  12.914  0.0872 -0.5080  0.2175
   9023SM    OF12113   5.323   1.686  12.923 -0.2848 -0.4712 -0.5418
   9023SM   C2F12114   5.115   1.572  12.987 -0.1824 -0.0235 -0.1353
   9023SM   H2F12115   5.183   1.521  13.059 -2.1238 -2.9327 -0.2250
   9023SM   H2G12116   5.085   1.496  12.912  1.8215 -1.4468  0.4164
   9023SM   C3F12117   4.987   1.629  13.051  0.2918 -0.3752  0.7083
   9023SM   H3F12118   4.927   1.651  12.961  2.1740 -2.5424 -1.2392
   9023SM   H3G12119   5.002   1.723  13.108 -0.2104 -0.4912  1.0373
   9023SM   C4F12120   4.907   1.518  13.139 -0.9980 -0.0435 -0.4059
   9023SM   H4F12121   4.916   1.423  13.082  1.2650 -1.5029  2.1492
   9023SM   H4G12122   4.805   1.558  13.156 -1.3074 -0.3288 -1.5221
   9023SM   C5F12123   4.987   1.506  13.279  0.3461  0.7610 -0.2151
   9023SM   H5F12124   5.097   1.494  13.265 -0.0761 -0.6884 -2.9387
   9023SM   H5G12125   4.962   1.408  13.325 -0.8585  0.8051 -0.7337
   9023SM   C6F12126   4.953   1.613  13.378 -0.3062 -0.0015 -0.0505
   9023SM   H6F12127   4.845   1.637  13.373 -0.1383  0.5511 -1.6021
   9023SM   H6G12128   5.019   1.702  13.365 -1.2825  0.6881 -0.4334
   9023SM   C7F12129   5.000   1.575  13.519  0.7207  0.6220 -0.0078
   9023SM   H7F12130   5.107   1.548  13.518  0.7481  0.7093  0.4890
   9023SM   H7G12131   4.948   1.485  13.558  0.6604  1.1838  1.2591
   9023SM   C8F12132   4.959   1.687  13.623  0.2166 -0.3713  0.8451
   9023SM   H8F12133   4.853   1.720  13.618 -0.0850 -1.1564  1.6896
   9023SM   H8G12134   5.020   1.771  13.585  0.1106 -0.3764  0.6595
   9023SM   C9F12135   4.992   1.666  13.770 -0.1666  0.3914 -0.1594
   9023SM   H9F12136   5.096   1.635  13.792 -0.2881 -0.2297 -0.4557
   9023SM   H9G12137   4.930   1.577  13.796 -1.3579  1.3939  0.5493
   9023SM  C10F12138   4.949   1.780  13.855  0.0690 -0.2250  0.1494
   9023SM  H10F12139   4.840   1.795  13.839 -0.1820  1.1649  2.6211
   9023SM  H10G12140   4.991   1.878  13.821 -1.1228 -0.0830 -0.9780
   9023SM  C11F12141   4.975   1.761  14.000 -0.3544  0.3265 -0.1673
   9023SM  H11F12142   5.084   1.776  14.009 -0.1794 -1.5737  1.9225
   9023SM  H11G12143   4.960   1.655  14.032 -2.8662  0.6809  0.0388
   9023SM  C12F12144   4.915   1.867  14.093 -0.1087  0.0762 -0.1543
   9023SM  H12F12145   4.806   1.856  14.110  0.0950 -0.1831  1.0898
   9023SM  H12G12146   4.924   1.963  14.038  1.0112  0.8774  1.3463
   9023SM  C13F12147   4.983   1.880  14.231  0.0263 -1.0811 -0.4478
   9023SM  H13F12148   5.093   1.873  14.213 -0.0367  0.4845 -1.6098
   9023SM  H13G12149   4.952   1.797  14.298  1.2678 -0.1844  1.3319
   9023SM  C14F12150   4.937   2.019  14.287  0.8165 -0.1586  0.2266
   9023SM  H14F12151   4.828   1.999  14.283  0.8055 -0.5556  1.7507
   9023SM  H14G12152   4.961   2.104  14.220 -0.7774 -1.6935 -2.4489
   9023SM  C15F12153   4.989   2.044  14.425  0.2533 -0.1869 -0.5736
   9023SM  H15F12154   5.098   2.063  14.423  0.0473  1.0576 -1.2207
   9023SM  H15G12155   4.984   1.951  14.486 -1.1303 -0.0235 -0.4136
   9023SM  C16F12156   4.928   2.172  14.490 -0.5661  0.4169 -0.4694
   9023SM  H16F12157   4.818   2.177  14.476 -0.4428  2.4505 -1.0030
   9023SM  H16G12158   4.979   2.254  14.435  0.8574  0.4230  0.7969
   9023SM  C17F12159   4.964   2.187  14.633 -0.4629 -0.1451 -0.1723
   9023SM  H17F12160   5.074   2.178  14.646 -0.0263  3.5844 -0.1509
   9023SM  H17G12161   4.906   2.115  14.694 -1.7184  0.8043 -0.2195
   9023SM  C18F12162   4.946   2.331  14.685 -0.4226  0.3657 -0.5488
   9023SM  H18F12163   4.837   2.345  14.677 -0.4725  0.9135  0.8099
   9023SM  H18G12164   4.989   2.401  14.610 -1.6441  3.6805  1.6505
   9023SM  C19F12165   4.999   2.359  14.825 -0.0618 -0.3401 -0.0039
   9023SM  H19F12166   5.108   2.338  14.820  0.0780  0.6554 -2.3376
   9023SM  H19G12167   4.954   2.291  14.901  0.1894 -0.6755 -0.1539
   9023SM  C20F12168   4.978   2.510  14.871  0.1883 -0.1067  0.2745
   9023SM  H20F12169   5.053   2.578  14.825 -1.1065  1.8774  0.9625
   9023SM  H20G12170   5.002   2.520  14.979 -1.0250  0.1498  0.5307
   9023SM  C21F12171   4.837   2.562  14.836  0.1192 -0.2679  0.3150
   9023SM  H21F12172   4.813   2.544  14.729 -0.1001 -0.1139  0.3380
   9023SM  H21G12173   4.836   2.672  14.853  1.3626 -0.1438 -0.3373
   9023SM  C22F12174   4.728   2.499  14.922 -0.3276 -0.1081 -0.5677
   9023SM  H22F12175   4.752   2.538  15.023  1.3379  1.2172 -1.4167
   9023SM  H22G12176   4.738   2.388  14.921 -2.0031 -0.3038  0.8198
   9023SM  C23F12177   4.589   2.545  14.885 -0.5070 -0.2506 -0.4372
   9023SM  H23F12178   4.584   2.656  14.884  1.4888 -0.0695  1.7673
   9023SM  H23G12179   4.510   2.507  14.953  1.3886 -0.0017  2.0439
   9023SM  H23H12180   4.562   2.504  14.785  1.5103  0.0900 -1.1840
   9123SM     N12181   5.028   4.502  12.241  0.6204 -0.0115  0.3352
   9123SM   C1512182   4.930   4.486  12.125  0.5210 -0.2425  0.8416
   9123SM  H15A12183   4.978   4.472  12.029 -1.0584  0.2879 -0.0665
   9123SM  H15B12184   4.865   4.568  12.101 -0.6366 -2.1139 -3.4046
   9123SM  H15C12185   4.863   4.402  12.133  0.5943 -0.3763  0.1160
   9123SM   C1412186   5.139   4.414  12.216 -0.0065  0.2612  1.1355
   9123SM  H14A12187   5.117   4.310  12.197  4.2522 -0.4277 -1.2302
   9123SM  H14B12188   5.214   4.421  12.293 -0.5528  2.9995  1.5394
   9123SM  H14C12189   5.186   4.446  12.124 -3.9882  3.5155 -0.0689
   9123SM   C1312190   5.091   4.635  12.247  0.1048 -0.6787 -0.4476
   9123SM  H13A12191   5.026   4.719  12.269  1.8308  0.7370 -0.4853
   9123SM  H13B12192   5.150   4.662  12.160  1.3643 -2.3722 -0.1666
   9123SM  H13C12193   5.166   4.626  12.325 -0.2827 -0.1448 -0.0018
   9123SM   C1212194   4.959   4.474  12.374  0.4733  0.4500 -0.3278
   9123SM  H12A12195   5.032   4.453  12.450  0.4961 -2.3852 -1.0227
   9123SM  H12B12196   4.900   4.384  12.364  0.0512  0.6426  0.3465
   9123SM   C1112197   4.854   4.575  12.436 -0.4187  0.9015 -0.2445
   9123SM  H11A12198   4.804   4.528  12.523  0.4860 -1.2039 -0.8241
   9123SM  H11B12199   4.788   4.596  12.349  0.3386 -2.5150 -1.7956
   9123SM     P12200   4.836   4.807  12.551  0.0746 -0.1984  0.7715
   9123SM   O1312201   4.937   4.916  12.558  0.3195 -0.3380 -0.3903
   9123SM   O1412202   4.714   4.830  12.467  0.4364 -0.0466 -0.2794
   9123SM   O1112203   4.794   4.756  12.692 -0.1149  0.0973  0.3963
   9123SM   O1212204   4.914   4.694  12.481 -0.2192  0.4066 -1.2339
   9123SM   C1S12205   4.884   4.711  12.791 -0.5398 -0.2968 -0.1481
   9123SM   H1S12206   4.987   4.749  12.776 -0.2790 -0.0319  1.9752
   9123SM   H1T12207   4.893   4.601  12.786 -2.0461 -0.4198 -0.8221
   9123SM    NF12208   4.955   4.714  13.040  0.4731 -0.0978  0.1006
   9123SM   HNF12209   4.941   4.622  13.078 -2.1343  0.6134  1.0908
   9123SM   C2S12210   4.851   4.749  12.939  0.7483  0.2975  0.5258
   9123SM   H2S12211   4.836   4.859  12.937 -1.9060 -0.0123 -0.8414
   9123SM   C3S12212   4.713   4.680  12.973 -0.0753  0.4204  0.5466
   9123SM   H3S12213   4.717   4.569  12.973  2.4415  0.4565 -0.5719
   9123SM    O312214   4.609   4.700  12.874  0.1574 -0.0540  0.0390
   9123SM   HO312215   4.650   4.718  12.789  0.3366 -0.2168  0.0914
   9123SM   C4S12216   4.668   4.737  13.107  0.8485  0.1569 -0.2603
   9123SM   H4S12217   4.616   4.831  13.085  1.7501  0.1529 -2.7018
   9123SM   C5S12218   4.692   4.677  13.230  0.7486  0.6149 -0.6836
   9123SM   H5S12219   4.761   4.592  13.237 -0.0165  0.0780  0.5167
   9123SM   C6S12220   4.648   4.744  13.366  0.3184  0.2140  0.4945
   9123SM   H6S12221   4.540   4.724  13.380  0.7082 -3.3846 -0.4562
   9123SM   H6T12222   4.664   4.854  13.361  0.6226  0.2470  1.9178
   9123SM   C7S12223   4.716   4.688  13.496  0.4450  0.2893  0.1422
   9123SM   H7S12224   4.705   4.763  13.577  0.9067 -1.5597  2.0201
   9123SM   H7T12225   4.820   4.678  13.458  0.5107  2.4174 -0.3606
   9123SM   C8S12226   4.661   4.548  13.538 -0.4801 -0.0205 -0.3529
   9123SM   H8S12227   4.645   4.490  13.444 -0.8870 -0.6229  0.0832
   9123SM   H8T12228   4.558   4.566  13.575  0.0419  1.8141  0.3201
   9123SM   C9S12229   4.749   4.474  13.641 -0.6279 -0.6685  0.1009
   9123SM   H9S12230   4.855   4.479  13.609 -0.8054  0.5477 -0.3586
   9123SM   H9T12231   4.713   4.370  13.654 -2.7484  0.0558  0.4887
   9123SM  C10S12232   4.721   4.529  13.790  0.1141 -0.4028  0.1706
   9123SM  H10S12233   4.624   4.483  13.816 -0.4315  0.4938 -0.2402
   9123SM  H10T12234   4.703   4.637  13.770  2.5623 -0.2223 -1.5240
   9123SM  C11S12235   4.842   4.517  13.877 -0.0504  0.4322  0.0458
   9123SM  H11S12236   4.926   4.574  13.834  0.5620 -0.1351  0.4729
   9123SM  H11T12237   4.868   4.409  13.873  0.3484  0.2061  4.1143
   9123SM  C12S12238   4.816   4.556  14.022 -0.1084  0.4134 -0.2926
   9123SM  H12S12239   4.723   4.503  14.052 -2.1008  3.6670 -0.3066
   9123SM  H12T12240   4.797   4.665  14.031  1.2752  0.5347  2.1218
   9123SM  C13S12241   4.945   4.526  14.104  0.5937  0.5292  0.3985
   9123SM  H13S12242   5.031   4.589  14.071  0.5707 -0.1886 -1.1352
   9123SM  H13T12243   4.976   4.423  14.075  1.0270  0.6808  0.3028
   9123SM  C14S12244   4.924   4.542  14.254  0.4144 -0.2651 -0.1191
   9123SM  H14S12245   4.832   4.481  14.269  0.3928 -0.5288 -1.2745
   9123SM  H14T12246   4.889   4.644  14.281 -0.6025 -0.5786 -0.1860
   9123SM  C15S12247   5.026   4.491  14.355 -0.1382  0.2869  0.3495
   9123SM  H15S12248   5.123   4.541  14.333 -1.2712  2.4568  0.0750
   9123SM  H15T12249   5.035   4.382  14.333 -0.6931  0.3327 -0.1060
   9123SM  C16S12250   4.978   4.522  14.500 -0.1329  0.1260 -0.4995
   9123SM  H16S12251   4.909   4.608  14.491 -0.9748 -0.5630 -0.6872
   9123SM  H16T12252   5.069   4.566  14.547  0.4451 -0.9371 -0.6011
   9123SM  C17S12253   4.926   4.399  14.572 -0.3563  0.2774  0.5576
   9123SM  H17S12254   5.001   4.317  14.567 -1.0141 -0.2553 -1.4271
   9123SM  H17T12255   4.841   4.359  14.513  0.7669  1.2601 -1.8285
   9123SM  C18S12256   4.889   4.419  14.715  0.7963  0.2133 -0.2781
   9123SM  H18S12257   4.969   4.432  14.791  1.4822 -0.5779 -0.8430
   9123SM  H18T12258   4.809   4.349  14.746 -0.9955  1.7396 -1.2573
   9123SM  H18U12259   4.842   4.519  14.722  1.6592  0.6039  0.1111
   9123SM   C1F12260   5.060   4.783  13.068 -0.7776 -0.3213 -0.2917
   9123SM    OF12261   5.081   4.895  13.018  0.4533  0.5572 -0.6818
   9123SM   C2F12262   5.159   4.732  13.169  0.2963 -0.3180  0.5850
   9123SM   H2F12263   5.242   4.805  13.169 -0.0321  0.0900 -1.1846
   9123SM   H2G12264   5.193   4.636  13.126  1.6586  0.7427 -0.7722
   9123SM   C3F12265   5.087   4.716  13.302  0.9044 -0.8618  0.0122
   9123SM   H3F12266   5.002   4.644  13.295  0.9523 -0.8555 -0.6915
   9123SM   H3G12267   5.052   4.811  13.348  1.0559 -1.9396  2.4980
   9123SM   C4F12268   5.185   4.670  13.416 -0.3865  0.4755  0.3927
   9123SM   H4F12269   5.278   4.729  13.404  0.6943 -1.3856 -0.7776
   9123SM   H4G12270   5.213   4.569  13.380 -3.1500  0.0987 -1.0198
   9123SM   C5F12271   5.137   4.668  13.562 -0.6672  0.4582  0.2523
   9123SM   H5F12272   5.226   4.633  13.618 -0.7867 -2.6156 -1.3034
   9123SM   H5G12273   5.051   4.602  13.587 -0.3357 -0.5621 -1.1792
   9123SM   C6F12274   5.114   4.814  13.604  0.4638  0.1369 -0.2498
   9123SM   H6F12275   5.023   4.845  13.549 -2.3834 -0.4389  3.7401
   9123SM   H6G12276   5.204   4.873  13.578 -0.3400  1.7760  0.5392
   9123SM   C7F12277   5.085   4.838  13.754 -0.0603  1.0135 -0.4931
   9123SM   H7F12278   5.001   4.771  13.781  0.5068 -0.4973 -2.2933
   9123SM   H7G12279   5.057   4.942  13.782  1.5857  2.0581 -2.5070
   9123SM   C8F12280   5.205   4.810  13.847 -0.5664  0.0556 -0.6574
   9123SM   H8F12281   5.288   4.870  13.804 -0.2698  0.7584  0.8320
   9123SM   H8G12282   5.226   4.705  13.819  2.0738  0.2853  0.2308
   9123SM   C9F12283   5.171   4.832  13.998  0.5542  0.2193  0.9766
   9123SM   H9F12284   5.082   4.778  14.038 -0.4233  0.2827 -0.9807
   9123SM   H9G12285   5.153   4.942  14.010  1.6605  0.2859  2.1325
   9123SM  C10F12286   5.299   4.806  14.075 -0.1745  0.1936 -0.7623
   9123SM  H10F12287   5.355   4.901  14.060  1.1699 -0.5129 -0.3925
   9123SM  H10G12288   5.350   4.715  14.037  0.2509 -0.4734  1.2976
   9123SM  C11F12289   5.277   4.777  14.220  0.2819 -0.0231  0.4051
   9123SM  H11F12290   5.223   4.681  14.241  1.6356 -0.7810  0.5384
   9123SM  H11G12291   5.217   4.863  14.255  0.2817  0.7456 -1.3995
   9123SM  C12F12292   5.413   4.779  14.297  0.0267  0.4336 -0.8737
   9123SM  H12F12293   5.482   4.853  14.252 -1.5190  2.4793 -0.0944
   9123SM  H12G12294   5.448   4.674  14.285 -1.3535 -0.5727  2.6111
   9123SM  C13F12295   5.404   4.801  14.449  0.5409 -0.4510 -0.6993
   9123SM  H13F12296   5.318   4.743  14.487  1.7308 -0.3186  2.4831
   9123SM  H13G12297   5.391   4.908  14.474  0.0624 -1.1616  2.4859
   9123SM  C14F12298   5.522   4.737  14.526 -0.3153 -0.3186 -0.2562
   9123SM  H14F12299   5.527   4.628  14.505 -2.6560 -0.5022 -0.1386
   9123SM  H14G12300   5.524   4.751  14.636  4.4760  0.5007 -0.2374
   9123SM  C15F12301   5.665   4.793  14.484  0.2284  0.3064  0.2956
   9123SM  H15F12302   5.646   4.903  14.485  0.3876  0.3755 -1.4207
   9123SM  H15G12303   5.688   4.750  14.384  0.5924  1.4436 -0.1311
   9123SM  C16F12304   5.777   4.762  14.586 -0.2313 -0.3473 -0.0365
   9123SM  H16F12305   5.772   4.661  14.632  0.0394  0.5302  2.0124
   9123SM  H16G12306   5.772   4.843  14.662 -0.0249 -0.9634  0.6455
   9123SM  C17F12307   5.918   4.777  14.524 -0.4019 -0.0380  0.0364
   9123SM  H17F12308   5.941   4.680  14.474  0.8812 -1.0639  2.4681
   9123SM  H17G12309   5.996   4.799  14.599  1.8577 -1.7521 -1.6749
   9123SM  C18F12310   5.925   4.888  14.415 -0.9396  0.3905  0.2479
   9123SM  H18F12311   5.898   4.991  14.446 -0.3137  0.2105  1.4205
   9123SM  H18G12312   5.874   4.844  14.326  0.4449 -1.2999  0.2403
   9123SM  C19F12313   6.075   4.912  14.374 -0.3925  0.2145  0.2373
   9123SM  H19F12314   6.122   4.814  14.351 -1.3706  0.1339 -1.6850
   9123SM  H19G12315   6.137   4.956  14.455 -0.2401  1.4332 -0.5105
   9123SM  C20F12316   6.088   5.011  14.251  0.3175  0.8061  0.1031
   9123SM  H20F12317   6.199   5.012  14.239  0.5413 -3.1091  0.5103
   9123SM  H20G12318   6.063   5.116  14.275  0.1661  0.7276  0.2927
   9123SM  C21F12319   6.013   4.950  14.127 -0.3988 -0.8487 -0.0088
   9123SM  H21F12320   5.909   4.990  14.127  0.6102  1.9916 -0.9348
   9123SM  H21G12321   6.014   4.839  14.123  0.5260 -0.8326 -0.5005
   9123SM  C22F12322   6.070   4.999  13.990  0.0065  0.5516  0.2468
   9123SM  H22F12323   6.000   4.971  13.908  0.0062  0.4673  0.2753
   9123SM  H22G12324   6.167   4.951  13.967 -0.3802  0.1509 -0.6010
   9123SM  C23F12325   6.101   5.148  13.981 -0.3807 -0.2732 -0.0775
   9123SM  H23F12326   6.139   5.173  13.879 -4.9936  1.0425 -1.7079
   9123SM  H23G12327   6.144   5.198  14.071  0.2509  0.8963 -0.9839
   9123SM  H23H12328   5.995   5.181  13.980 -0.7554 -1.3721  0.8963
   9223SM     N12329   4.637   1.533  12.358 -0.4305 -0.7098  1.0661
   9223SM   C1512330   4.594   1.393  12.318  0.1083 -0.8560  0.2782
   9223SM  H15A12331   4.583   1.317  12.394 -2.2737 -0.7485  0.1146
   9223SM  H15B12332   4.665   1.345  12.253  1.6593  0.0891  1.1943
   9223SM  H15C12333   4.492   1.405  12.284 -0.1575  0.4296  1.4329
   9223SM   C1412334   4.770   1.524  12.417 -0.3887  0.2669  0.0471
   9223SM  H14A12335   4.841   1.486  12.346  3.5742  3.1178  2.1267
   9223SM  H14B12336   4.772   1.466  12.508 -0.7912  1.3734  0.7938
   9223SM  H14C12337   4.800   1.623  12.450 -0.3487 -0.4794  2.4596
   9223SM   C1312338   4.658   1.622  12.232  0.2925  0.0735  0.6714
   9223SM  H13A12339   4.700   1.716  12.264 -1.0650  0.9426 -0.0296
   9223SM  H13B12340   4.568   1.629  12.173 -0.3396 -0.7739  1.5145
   9223SM  H13C12341   4.730   1.572  12.168  0.2454 -1.3772  1.7032
   9223SM   C1212342   4.534   1.604  12.447  0.4428 -0.3382  0.1137
   9223SM  H12A12343   4.570   1.705  12.459  1.6781 -0.6293 -1.0179
   9223SM  H12B12344   4.537   1.559  12.546  0.0224 -0.4454  0.0804
   9223SM   C1112345   4.392   1.608  12.392  0.3558  0.3984 -0.3268
   9223SM  H11A12346   4.390   1.632  12.284  0.3652 -0.8876 -0.6310
   9223SM  H11B12347   4.326   1.686  12.437  0.9461 -0.0964  1.4928
   9223SM     P12348   4.284   1.424  12.539  0.2889  0.0408 -0.0968
   9223SM   O1312349   4.136   1.429  12.545 -0.4847 -0.5054 -0.0677
   9223SM   O1412350   4.340   1.288  12.553 -0.8793 -0.0471  0.1043
   9223SM   O1112351   4.343   1.528  12.646 -0.1244  0.3260  0.3436
   9223SM   O1212352   4.334   1.479  12.397  0.3168  0.2044  0.1267
   9223SM   C1S12353   4.275   1.618  12.729  0.0088  0.2024  0.0266
   9223SM   H1S12354   4.166   1.598  12.728 -0.0195  0.3515 -0.3187
   9223SM   H1T12355   4.288   1.722  12.690 -0.3900 -0.2522 -1.3955
   9223SM    NF12356   4.226   1.674  12.968 -0.4363  0.1235  0.0127
   9223SM   HNF12357   4.262   1.766  12.984  2.7838 -0.9269 -0.5125
   9223SM   C2S12358   4.316   1.603  12.876 -0.2969 -0.0235 -0.0824
   9223SM   H2S12359   4.325   1.495  12.904  0.9067 -0.5017 -2.1023
   9223SM   C3S12360   4.464   1.656  12.884  0.5800 -0.1518  0.4265
   9223SM   H3S12361   4.454   1.752  12.828 -0.3256 -0.8427 -0.6545
   9223SM    O312362   4.552   1.570  12.809 -0.0562 -0.3915 -0.0384
   9223SM   HO312363   4.490   1.527  12.749 -2.7677  1.4529  1.1894
   9223SM   C4S12364   4.527   1.659  13.016 -0.4471  0.5673 -0.1171
   9223SM   H4S12365   4.571   1.564  13.050 -2.0029 -0.4682 -0.9082
   9223SM   C5S12366   4.539   1.769  13.098  0.6385 -1.1246 -0.4853
   9223SM   H5S12367   4.478   1.854  13.064  0.8782 -0.9281 -0.4267
   9223SM   C6S12368   4.606   1.771  13.238  0.4299  0.4492 -0.2586
   9223SM   H6S12369   4.682   1.851  13.238  0.3081  0.5833 -1.3404
   9223SM   H6T12370   4.655   1.674  13.261 -0.6713 -0.2225 -0.6339
   9223SM   C7S12371   4.503   1.822  13.338  0.0779  0.0009  0.4315
   9223SM   H7S12372   4.448   1.728  13.359  1.0039 -0.3230  1.4891
   9223SM   H7T12373   4.433   1.896  13.292 -3.1902 -0.8771  3.5462
   9223SM   C8S12374   4.566   1.865  13.474  0.7399  0.9375  0.4269
   9223SM   H8S12375   4.621   1.961  13.479 -2.1473  2.7702 -0.4410
   9223SM   H8T12376   4.632   1.777  13.491  1.1029  0.5332 -2.5714
   9223SM   C9S12377   4.463   1.870  13.589  0.3273 -0.2902 -0.8578
   9223SM   H9S12378   4.386   1.791  13.596 -1.0517  1.0339 -0.5504
   9223SM   H9T12379   4.391   1.952  13.568  2.3009  2.1560  1.2470
   9223SM  C10S12380   4.535   1.905  13.726  0.3836  0.2596  0.3005
   9223SM  H10S12381   4.597   1.996  13.713 -1.8198  1.9330  0.8938
   9223SM  H10T12382   4.607   1.827  13.758 -2.1921 -1.8295  1.4372
   9223SM  C11S12383   4.435   1.947  13.835  0.0248  0.2464 -0.1947
   9223SM  H11S12384   4.365   1.866  13.864 -0.6133  1.2336  1.1215
   9223SM  H11T12385   4.377   2.031  13.790  0.8373 -0.4681 -2.7406
   9223SM  C12S12386   4.512   1.997  13.953 -0.4658  0.9374  0.1342
   9223SM  H12S12387   4.572   2.082  13.912 -2.8622  1.8465 -1.7181
   9223SM  H12T12388   4.589   1.923  13.981 -1.2827 -0.3015 -0.8051
   9223SM  C13S12389   4.431   2.019  14.080  0.2949 -0.0615 -1.0033
   9223SM  H13S12390   4.364   1.935  14.110 -2.0973  1.9081 -0.4824
   9223SM  H13T12391   4.363   2.107  14.073 -0.2011 -0.3299  0.1137
   9223SM  C14S12392   4.520   2.052  14.203 -0.1459 -0.3476 -0.0078
   9223SM  H14S12393   4.605   2.116  14.169 -1.2731  0.1553 -2.0704
   9223SM  H14T12394   4.577   1.960  14.224  1.0644 -0.2413 -2.4345
   9223SM  C15S12395   4.454   2.113  14.325  0.0963 -0.2400  0.3738
   9223SM  H15S12396   4.351   2.072  14.331 -0.0612  0.1388  0.3095
   9223SM  H15T12397   4.452   2.224  14.330 -2.5174 -0.2503  1.0383
   9223SM  C16S12398   4.518   2.059  14.455  0.6120  0.1530  0.0529
   9223SM  H16S12399   4.628   2.057  14.442  0.4623  0.6063 -1.4545
   9223SM  H16T12400   4.494   1.952  14.469 -0.1802  0.2896 -0.2218
   9223SM  C17S12401   4.473   2.139  14.581  0.5015 -0.5169  0.0647
   9223SM  H17S12402   4.363   2.128  14.591  0.7338 -0.9239  3.2370
   9223SM  H17T12403   4.492   2.247  14.560 -2.5077  0.3133  1.1080
   9223SM  C18S12404   4.549   2.095  14.704  0.3595  0.5395 -0.1677
   9223SM  H18S12405   4.530   2.155  14.796 -0.6586  1.1894 -0.7841
   9223SM  H18T12406   4.658   2.088  14.686  0.4474 -3.1391  0.9935
   9223SM  H18U12407   4.518   1.993  14.735 -1.3685  1.2658  0.6325
   9223SM   C1F12408   4.104   1.630  13.005 -0.4025  0.1566  0.2543
   9223SM    OF12409   4.056   1.524  12.970 -0.1619 -0.1359  0.0711
   9223SM   C2F12410   4.044   1.722  13.099  0.5672 -0.0200 -0.3396
   9223SM   H2F12411   3.939   1.690  13.114  0.9580 -0.7649  1.0450
   9223SM   H2G12412   4.050   1.822  13.052 -1.0890  0.1148 -0.3172
   9223SM   C3F12413   4.111   1.715  13.237 -0.2284 -0.1513 -0.0770
   9223SM   H3F12414   4.215   1.753  13.228 -0.1354 -0.4341 -0.1910
   9223SM   H3G12415   4.119   1.607  13.262  2.7543 -0.0266 -0.1954
   9223SM   C4F12416   4.031   1.794  13.341 -0.3897  0.0866  0.5671
   9223SM   H4F12417   3.932   1.744  13.352 -0.9095  0.7424 -0.8208
   9223SM   H4G12418   4.011   1.897  13.305  1.3233 -0.3573 -1.8316
   9223SM   C5F12419   4.097   1.796  13.477 -0.2155  0.1846 -0.8376
   9223SM   H5F12420   4.192   1.852  13.464 -0.0152  0.3722  1.1265
   9223SM   H5G12421   4.112   1.695  13.522  0.2427  0.8175  0.4884
   9223SM   C6F12422   4.018   1.860  13.591  0.5823  0.3752 -0.6451
   9223SM   H6F12423   3.928   1.797  13.604  0.9162 -0.3237 -1.6147
   9223SM   H6G12424   3.977   1.955  13.550 -0.5510 -0.6521 -2.0178
   9223SM   C7F12425   4.096   1.894  13.716 -0.5472  0.1325 -0.2243
   9223SM   H7F12426   4.179   1.966  13.697  0.1357 -0.5328  0.1849
   9223SM   H7G12427   4.135   1.800  13.759  0.0866  0.9864  1.1515
   9223SM   C8F12428   4.016   1.966  13.833  0.2001  0.1597 -0.4340
   9223SM   H8F12429   3.928   1.901  13.851  1.0915 -0.6195  1.3672
   9223SM   H8G12430   3.991   2.067  13.794 -0.6907 -0.0641 -0.4705
   9223SM   C9F12431   4.089   1.983  13.963  0.4337 -0.5056 -0.4500
   9223SM   H9F12432   4.184   2.042  13.957 -0.1371  0.4984  0.0869
   9223SM   H9G12433   4.122   1.886  14.005  1.1188  0.1791  0.6613
   9223SM  C10F12434   3.993   2.038  14.072  0.2753  0.4577  0.7140
   9223SM  H10F12435   3.919   1.962  14.105  0.5144  0.1337  0.5076
   9223SM  H10G12436   3.935   2.116  14.018 -0.4622 -1.0498 -0.7608
   9223SM  C11F12437   4.075   2.083  14.194  0.5957  0.6926  0.5676
   9223SM  H11F12438   4.111   2.187  14.180 -2.1598  1.6538  0.0171
   9223SM  H11G12439   4.152   2.007  14.219 -0.1639  0.2265  1.5893
   9223SM  C12F12440   3.991   2.081  14.318 -0.1367 -0.9602 -0.1984
   9223SM  H12F12441   3.936   1.987  14.338 -1.8795  0.3334  1.4273
   9223SM  H12G12442   3.913   2.157  14.295 -0.0539 -1.0265 -0.7110
   9223SM  C13F12443   4.079   2.112  14.441 -0.5376 -0.3036  0.1815
   9223SM  H13F12444   4.121   2.214  14.434 -0.9345 -0.0207  1.6546
   9223SM  H13G12445   4.161   2.037  14.440 -2.0379 -2.0169 -0.1402
   9223SM  C14F12446   4.011   2.086  14.581 -0.1080 -0.1442  0.3291
   9223SM  H14F12447   4.094   2.104  14.653  0.9579  2.2598 -1.3622
   9223SM  H14G12448   3.986   1.978  14.583 -3.6945  0.5506 -0.0293
   9223SM  C15F12449   3.881   2.145  14.607  0.1137 -0.1928  0.6819
   9223SM  H15F12450   3.817   2.122  14.519  0.4177 -1.5033  0.7878
   9223SM  H15G12451   3.892   2.255  14.612 -0.3022 -0.1762  1.4207
   9223SM  C16F12452   3.820   2.108  14.739 -0.2278 -0.5093 -0.4280
   9223SM  H16F12453   3.897   2.132  14.816  1.7183 -1.3339 -2.0228
   9223SM  H16G12454   3.802   1.998  14.735  0.1220 -0.5501 -0.9229
   9223SM  C17F12455   3.675   2.165  14.759 -0.3776 -0.4739  0.8575
   9223SM  H17F12456   3.609   2.122  14.681  0.5697  0.1379 -0.3019
   9223SM  H17G12457   3.680   2.276  14.763  3.3453 -0.3623 -1.7980
   9223SM  C18F12458   3.614   2.120  14.894  0.6193  0.3588 -0.1189
   9223SM  H18F12459   3.637   2.012  14.905 -2.1834 -0.6759 -2.8249
   9223SM  H18G12460   3.504   2.132  14.900  0.4852 -1.3548  1.7327
   9223SM  C19F12461   3.669   2.190  15.019 -0.8111  0.2300 -0.1219
   9223SM  H19F12462   3.624   2.291  15.026 -2.3470 -0.3568 -0.9958
   9223SM  H19G12463   3.779   2.180  15.024 -0.7889 -0.2068 -1.2221
   9223SM  C20F12464   3.612   2.112  15.139  0.0246 -0.7666 -0.3874
   9223SM  H20F12465   3.641   2.005  15.129 -0.4295 -0.8801 -0.4803
   9223SM  H20G12466   3.503   2.124  15.128  0.3651  2.1050 -1.4838
   9223SM  C21F12467   3.655   2.162  15.280  0.6883 -0.8101  0.7707
   9223SM  H21F12468   3.580   2.114  15.346 -0.0187 -0.2192  0.4077
   9223SM  H21G12469   3.635   2.269  15.302 -1.6392 -1.2272  0.9098
   9223SM  C22F12470   3.794   2.109  15.329  0.5948 -0.2687 -0.0677
   9223SM  H22F12471   3.874   2.179  15.296  0.6998 -0.1179  0.4849
   9223SM  H22G12472   3.811   2.015  15.274 -1.6152  0.1488 -1.6139
   9223SM  C23F12473   3.795   2.091  15.480 -0.5634 -0.3218 -0.1603
   9223SM  H23F12474   3.738   2.167  15.539  1.8021  0.5791  1.1113
   9223SM  H23G12475   3.899   2.103  15.518 -0.2182 -1.4558 -0.7355
   9223SM  H23H12476   3.758   1.991  15.510  1.9911 -1.0025  0.9731
   9323SM     N12477   5.964   3.732  12.751 -0.5138  0.5488 -0.0278
   9323SM   C1512478   6.104   3.720  12.696 -0.0091 -0.3898  0.4913
   9323SM  H15A12479   6.169   3.783  12.755 -1.6287  1.0224  0.8621
   9323SM  H15B12480   6.113   3.774  12.603  1.0012 -1.9672 -0.3468
   9323SM  H15C12481   6.130   3.619  12.672 -1.6595 -0.6368 -0.4510
   9323SM   C1412482   5.865   3.656  12.668  0.3704  0.3182  0.3521
   9323SM  H14A12483   5.763   3.665  12.700 -0.7951  1.5284 -3.1936
   9323SM  H14B12484   5.885   3.550  12.658 -4.0518 -0.7890  1.2155
   9323SM  H14C12485   5.869   3.693  12.566 -0.6720  1.3193  0.6532
   9323SM   C1312486   5.969   3.683  12.890 -0.3678  0.0326 -0.9753
   9323SM  H13A12487   5.961   3.575  12.893 -0.4561  0.0430  1.4434
   9323SM  H13B12488   5.886   3.724  12.946  0.2781  0.2869 -0.1887
   9323SM  H13C12489   6.070   3.697  12.924 -0.2685 -1.3497 -0.6315
   9323SM   C1212490   5.921   3.878  12.753  0.0503  0.5383  0.1531
   9323SM  H12A12491   5.927   3.921  12.654 -2.9052 -0.1775 -0.4234
   9323SM  H12B12492   5.982   3.939  12.818 -0.0142 -0.1131  0.8372
   9323SM   C1112493   5.772   3.910  12.797 -1.0321  0.5592  0.1309
   9323SM  H11A12494   5.761   4.018  12.820 -2.9470  0.5651 -0.5746
   9323SM  H11B12495   5.755   3.858  12.894  0.5689  0.0649  0.1608
   9323SM     P12496   5.659   3.930  12.559  0.6140 -0.2478 -0.0152
   9323SM   O1312497   5.793   3.960  12.508  0.1146 -0.4169 -0.4345
   9323SM   O1412498   5.570   3.850  12.476 -0.7713 -0.0464  0.1635
   9323SM   O1112499   5.590   4.067  12.591 -0.2504  0.7542  0.1175
   9323SM   O1212500   5.673   3.865  12.701  0.2507  0.3163  0.5339
   9323SM   C1S12501   5.460   4.070  12.649  0.1002  0.2207  0.0792
   9323SM   H1S12502   5.419   3.967  12.660  3.2461 -1.2727 -0.8960
   9323SM   H1T12503   5.391   4.132  12.588 -1.8329 -1.4711  0.4249
   9323SM    NF12504   5.317   4.108  12.845 -0.0232  0.5382 -0.2242
   9323SM   HNF12505   5.256   4.184  12.867 -0.0683  0.7299 -1.0025
   9323SM   C2S12506   5.452   4.129  12.797  0.6624  0.1421  0.2522
   9323SM   H2S12507   5.534   4.075  12.850  2.9124 -0.6662 -3.6602
   9323SM   C3S12508   5.493   4.281  12.801  0.0300  0.3309 -0.3877
   9323SM   H3S12509   5.415   4.336  12.743 -0.4674  1.6728  1.4553
   9323SM    O312510   5.618   4.311  12.749  0.3171  0.6062 -0.0851
   9323SM   HO312511   5.626   4.233  12.694 -1.3215  1.1694 -1.1830
   9323SM   C4S12512   5.480   4.330  12.941  0.5077 -0.0769 -0.3471
   9323SM   H4S12513   5.536   4.262  13.007 -2.2096 -2.7698 -0.6142
   9323SM   C5S12514   5.407   4.429  12.997 -0.7290 -0.7313  0.3479
   9323SM   H5S12515   5.337   4.489  12.936 -1.0008 -0.7167  0.6724
   9323SM   C6S12516   5.413   4.464  13.144 -0.1383 -0.6877 -0.5229
   9323SM   H6S12517   5.308   4.461  13.180 -0.8486  0.1007 -2.3825
   9323SM   H6T12518   5.435   4.573  13.145 -1.7905 -0.2801 -2.3012
   9323SM   C7S12519   5.511   4.395  13.237 -0.2239  0.5809 -0.0114
   9323SM   H7S12520   5.615   4.395  13.197  0.8115 -2.6152  2.2057
   9323SM   H7T12521   5.484   4.288  13.255  1.7616 -0.0506 -0.4668
   9323SM   C8S12522   5.500   4.465  13.371  0.0650 -0.0523 -0.2454
   9323SM   H8S12523   5.398   4.432  13.401 -0.0515 -1.4244 -1.9664
   9323SM   H8T12524   5.503   4.575  13.356  0.1606  0.2582  1.7500
   9323SM   C9S12525   5.609   4.433  13.467  0.3146  0.4094 -0.2616
   9323SM   H9S12526   5.706   4.449  13.416  0.2983  0.4023 -0.2944
   9323SM   H9T12527   5.610   4.324  13.489  1.2260  0.5991  0.7209
   9323SM  C10S12528   5.595   4.504  13.602  0.6186  0.0216  0.0783
   9323SM  H10S12529   5.498   4.471  13.644  0.6214 -1.6269 -1.0981
   9323SM  H10T12530   5.596   4.610  13.569  1.5172 -0.8852 -3.1475
   9323SM  C11S12531   5.710   4.487  13.710  0.1762  0.2224  0.1651
   9323SM  H11S12532   5.813   4.501  13.669  0.3583  0.2110  0.6090
   9323SM  H11T12533   5.718   4.384  13.751  1.7672 -1.0755 -3.0067
   9323SM  C12S12534   5.687   4.588  13.823  0.6709 -0.1333  0.0950
   9323SM  H12S12535   5.611   4.547  13.893 -0.5497 -0.3375 -1.3018
   9323SM  H12T12536   5.643   4.676  13.772  1.0728  0.9727  1.5833
   9323SM  C13S12537   5.817   4.631  13.901 -0.6855 -0.4635 -0.1236
   9323SM  H13S12538   5.791   4.713  13.971 -1.4168  0.3583 -1.3358
   9323SM  H13T12539   5.893   4.652  13.823  0.6338  0.8153  1.4306
   9323SM  C14S12540   5.871   4.510  13.983 -0.3885  0.4952 -0.1389
   9323SM  H14S12541   5.883   4.420  13.919  1.7507 -0.2744  1.2301
   9323SM  H14T12542   5.795   4.477  14.058  0.5415  2.0435  1.5818
   9323SM  C15S12543   6.005   4.532  14.060  0.0782  0.4797  0.2467
   9323SM  H15S12544   5.975   4.609  14.133  1.3580  0.0630  1.2499
   9323SM  H15T12545   6.036   4.436  14.108 -0.1720  0.7249  0.9101
   9323SM  C16S12546   6.115   4.583  13.973 -0.3611  0.1315 -0.4866
   9323SM  H16S12547   6.098   4.686  13.934  0.9133  0.8402  0.7529
   9323SM  H16T12548   6.129   4.518  13.884  1.5557  0.7116 -0.6466
   9323SM  C17S12549   6.244   4.584  14.054  0.2034 -0.9229 -0.2613
   9323SM  H17S12550   6.272   4.482  14.087 -0.2509 -1.1419 -0.5347
   9323SM  H17T12551   6.227   4.639  14.149  0.3080 -2.7313  0.8456
   9323SM  C18S12552   6.353   4.658  13.972 -0.5410  0.3394 -0.6162
   9323SM  H18S12553   6.445   4.660  14.034 -2.2179  1.3216  2.0320
   9323SM  H18T12554   6.330   4.765  13.950  1.3894  0.2385 -3.7704
   9323SM  H18U12555   6.381   4.612  13.875 -0.9075  0.1140 -0.6152
   9323SM   C1F12556   5.276   3.985  12.871  0.2676  0.7871  0.5688
   9323SM    OF12557   5.347   3.884  12.868  0.6898 -0.1638  0.6579
   9323SM   C2F12558   5.128   3.963  12.903 -0.1390 -0.4449 -0.5665
   9323SM   H2F12559   5.096   3.863  12.865 -1.5752 -1.5326  3.0414
   9323SM   H2G12560   5.064   4.048  12.870 -1.2533  0.4871  3.4615
   9323SM   C3F12561   5.106   3.943  13.057 -0.4635 -0.4092  0.2968
   9323SM   H3F12562   5.151   3.847  13.089 -2.0341 -1.5228 -0.7109
   9323SM   H3G12563   4.996   3.927  13.057 -0.6067  0.4795  0.4790
   9323SM   C4F12564   5.149   4.060  13.144  0.2520 -0.0370  0.0420
   9323SM   H4F12565   5.092   4.148  13.106  0.5189 -0.7148 -2.0787
   9323SM   H4G12566   5.259   4.066  13.129  0.3616 -1.2972  0.2214
   9323SM   C5F12567   5.141   4.053  13.296  0.7052  0.3976  0.5445
   9323SM   H5F12568   5.214   3.977  13.331  0.4629 -1.6025 -2.8325
   9323SM   H5G12569   5.042   4.017  13.331  0.0712  0.2083 -1.3267
   9323SM   C6F12570   5.176   4.184  13.367  0.3755 -0.3470  0.7542
   9323SM   H6F12571   5.095   4.259  13.349  0.6863 -0.5311 -1.6991
   9323SM   H6G12572   5.265   4.238  13.328  0.1934 -1.0001 -0.6238
   9323SM   C7F12573   5.212   4.149  13.508 -0.0590  0.3265 -0.1884
   9323SM   H7F12574   5.302   4.083  13.512  0.1761  0.6358 -0.3425
   9323SM   H7G12575   5.127   4.087  13.544 -0.4689  1.6122  1.1889
   9323SM   C8F12576   5.212   4.271  13.602 -0.3615 -0.1820 -0.4026
   9323SM   H8F12577   5.109   4.312  13.608  0.3006  1.6560 -0.8207
   9323SM   H8G12578   5.274   4.355  13.564 -0.1556 -0.4666 -0.7024
   9323SM   C9F12579   5.273   4.231  13.734 -0.3128  0.2794 -0.2738
   9323SM   H9F12580   5.380   4.204  13.719 -0.9281 -2.6920 -0.0430
   9323SM   H9G12581   5.217   4.143  13.775 -2.2370  2.0819  1.1953
   9323SM  C10F12582   5.265   4.340  13.850 -0.8339 -0.2836 -0.0093
   9323SM  H10F12583   5.157   4.361  13.866 -1.1579 -0.0048 -2.2844
   9323SM  H10G12584   5.311   4.435  13.818  2.1013 -1.1872  1.1726
   9323SM  C11F12585   5.329   4.288  13.982 -0.4778 -0.3656  0.2833
   9323SM  H11F12586   5.434   4.274  13.947 -0.8961 -0.3791 -1.0440
   9323SM  H11G12587   5.286   4.189  14.009  2.2057 -2.1344 -1.4204
   9323SM  C12F12588   5.321   4.387  14.096  0.7245  0.0116  0.4486
   9323SM  H12F12589   5.216   4.400  14.131  1.2857  1.2602  1.7692
   9323SM  H12G12590   5.359   4.484  14.059  0.5887 -0.3010 -0.5361
   9323SM  C13F12591   5.395   4.341  14.228 -0.3802  0.0413  0.0793
   9323SM  H13F12592   5.347   4.258  14.285  1.7734 -0.3124  1.4855
   9323SM  H13G12593   5.381   4.430  14.293 -0.8047  0.3464 -0.4226
   9323SM  C14F12594   5.547   4.320  14.224 -0.9140  0.5659 -0.4199
   9323SM  H14F12595   5.597   4.411  14.184  1.3650 -0.5271 -0.2250
   9323SM  H14G12596   5.575   4.248  14.144 -1.8739  1.4160 -1.5534
   9323SM  C15F12597   5.602   4.268  14.359 -0.0517 -0.0200 -0.7341
   9323SM  H15F12598   5.554   4.169  14.373 -0.1294 -0.6572 -4.5512
   9323SM  H15G12599   5.579   4.336  14.445  0.9199 -0.3792 -0.1779
   9323SM  C16F12600   5.758   4.249  14.366  0.1529 -0.3004  0.4821
   9323SM  H16F12601   5.811   4.342  14.337 -1.7795  0.7748  0.1816
   9323SM  H16G12602   5.788   4.179  14.285  0.4201 -0.6463  0.8755
   9323SM  C17F12603   5.809   4.192  14.499 -0.0293 -0.2484  0.4485
   9323SM  H17F12604   5.918   4.172  14.497  0.2965  1.3508  0.9985
   9323SM  H17G12605   5.758   4.095  14.518  0.3072 -0.9421 -1.8459
   9323SM  C18F12606   5.791   4.275  14.628 -0.0142 -0.5237  0.2382
   9323SM  H18F12607   5.683   4.291  14.648  0.0039 -0.2260  0.1084
   9323SM  H18G12608   5.845   4.371  14.612  1.0136 -0.4431  3.4411
   9323SM  C19F12609   5.869   4.218  14.756  0.2813  0.1722 -0.3397
   9323SM  H19F12610   5.821   4.120  14.775 -0.6181  1.1216  2.7461
   9323SM  H19G12611   5.842   4.285  14.840  0.2102 -0.2170 -0.0494
   9323SM  C20F12612   6.018   4.207  14.754  0.1216 -0.2505  0.2319
   9323SM  H20F12613   6.052   4.312  14.745  0.0025 -0.3432 -1.9886
   9323SM  H20G12614   6.045   4.166  14.654 -1.9295 -0.0970 -0.4254
   9323SM  C21F12615   6.076   4.132  14.873 -0.6509 -0.0918  0.1113
   9323SM  H21F12616   6.026   4.036  14.894 -1.9258  0.3073 -0.9382
   9323SM  H21G12617   6.045   4.197  14.957 -2.5440  1.5899 -1.7529
   9323SM  C22F12618   6.225   4.112  14.849  0.3474  0.4965  0.6248
   9323SM  H22F12619   6.270   4.070  14.942  0.1319  1.3071  1.1104
   9323SM  H22G12620   6.276   4.211  14.850 -1.6584  1.5697  0.4762
   9323SM  C23F12621   6.277   4.037  14.729 -0.6288  0.0920  0.1595
   9323SM  H23F12622   6.241   4.071  14.630 -1.1589  0.2374  0.3955
   9323SM  H23G12623   6.255   3.929  14.740 -2.3729  0.3744 -0.3487
   9323SM  H23H12624   6.388   4.050  14.725 -0.4823 -0.5516  1.5924
   9423SM     N12625   4.526   6.986  12.520 -0.7841  0.2455 -0.2707
   9423SM   C1512626   4.451   6.869  12.584  0.3245  0.2420 -0.7169
   9423SM  H15A12627   4.403   6.810  12.507 -1.5670 -1.3080  1.5277
   9423SM  H15B12628   4.381   6.897  12.661  1.3091 -0.7994  0.5949
   9423SM  H15C12629   4.525   6.805  12.628  0.7617 -0.8250 -2.8669
   9423SM   C1412630   4.433   7.077  12.453  0.3644 -0.2880 -0.1040
   9423SM  H14A12631   4.482   7.152  12.393 -0.0240 -1.7170 -2.3066
   9423SM  H14B12632   4.366   7.127  12.521  1.3924  2.1260 -0.7491
   9423SM  H14C12633   4.379   7.007  12.392 -0.7514  1.5916 -1.3753
   9423SM   C1312634   4.596   7.055  12.630  0.1713 -0.2384 -0.2297
   9423SM  H13A12635   4.516   7.083  12.697 -0.5216 -0.2283 -1.0438
   9423SM  H13B12636   4.650   7.140  12.590  1.6537 -2.1372 -2.4943
   9423SM  H13C12637   4.661   6.987  12.683  0.1139 -0.1204 -0.0054
   9423SM   C1212638   4.635   6.937  12.418 -0.4319  0.6609  0.1762
   9423SM  H12A12639   4.691   7.016  12.372  2.3770 -0.6474  1.1063
   9423SM  H12B12640   4.588   6.883  12.337  0.6722  0.4041 -0.3096
   9423SM   C1112641   4.745   6.834  12.464  0.3262 -0.1871 -0.2694
   9423SM  H11A12642   4.807   6.805  12.377 -0.9575 -0.0171 -1.2852
   9423SM  H11B12643   4.700   6.738  12.495  2.2423 -1.3049 -0.8240
   9423SM     P12644   4.921   7.002  12.563  0.0855 -0.2047 -0.1600
   9423SM   O1312645   5.052   6.959  12.509 -0.2099 -0.5516  0.0856
   9423SM   O1412646   4.851   7.114  12.493 -0.5741  0.7517  0.0605
   9423SM   O1112647   4.949   7.047  12.713  0.6920 -0.1359  0.3661
   9423SM   O1212648   4.825   6.879  12.579  0.2993  1.0267 -0.4701
   9423SM   C1S12649   5.013   6.944  12.790  0.0061  0.0305 -0.4344
   9423SM   H1S12650   5.118   6.931  12.756 -0.7948 -2.0285 -2.3337
   9423SM   H1T12651   4.964   6.845  12.783  1.5918 -0.7615 -0.8373
   9423SM    NF12652   5.085   6.879  13.032  0.2468 -0.2274  0.6726
   9423SM   HNF12653   5.026   6.813  13.076 -0.3653  0.2954  0.6606
   9423SM   C2S12654   5.016   6.978  12.945 -0.3228 -0.1069  0.1539
   9423SM   H2S12655   5.075   7.072  12.960  1.7889 -1.2976 -0.2716
   9423SM   C3S12656   4.865   6.994  12.994  0.5363  0.7765 -0.1093
   9423SM   H3S12657   4.817   6.898  12.969  0.0595  1.0901 -0.4164
   9423SM    O312658   4.780   7.095  12.936 -0.0064  0.3916 -0.0102
   9423SM   HO312659   4.827   7.132  12.860 -2.7201  0.8967 -1.5578
   9423SM   C4S12660   4.869   7.011  13.142  0.1984  0.0683 -0.2607
   9423SM   H4S12661   4.946   7.083  13.174  1.3737 -0.6159 -1.4629
   9423SM   C5S12662   4.799   6.953  13.238 -0.2460 -0.2589  0.3417
   9423SM   H5S12663   4.714   6.890  13.209 -0.5055 -0.4864  1.5660
   9423SM   C6S12664   4.808   6.980  13.385  0.3572  0.2494  0.3422
   9423SM   H6S12665   4.836   6.884  13.434  0.9341  0.5367  0.5853
   9423SM   H6T12666   4.713   7.016  13.430 -0.2263 -2.0533  1.0617
   9423SM   C7S12667   4.915   7.080  13.427 -0.7341  0.5016  0.0903
   9423SM   H7S12668   4.891   7.186  13.402 -0.8500  0.3461 -0.4660
   9423SM   H7T12669   5.015   7.059  13.383 -0.5744  1.5125 -0.0484
   9423SM   C8S12670   4.943   7.075  13.579 -0.2384  0.0568  0.4537
   9423SM   H8S12671   5.025   7.148  13.596 -0.0863 -0.3928  1.7342
   9423SM   H8T12672   4.994   6.976  13.591 -0.3535  0.0297  0.7143
   9423SM   C9S12673   4.831   7.083  13.676  1.1095  0.7607  0.3489
   9423SM   H9S12674   4.761   7.000  13.651 -0.8583  1.7053  2.3335
   9423SM   H9T12675   4.777   7.180  13.664  2.5991  1.2712 -5.1295
   9423SM  C10S12676   4.875   7.054  13.819 -0.8339  0.0574  0.3882
   9423SM  H10S12677   4.958   7.116  13.858 -2.0258  1.2796  1.0404
   9423SM  H10T12678   4.912   6.949  13.823 -2.5395 -0.5366  2.1568
   9423SM  C11S12679   4.763   7.060  13.928  0.1577  0.4944 -0.2861
   9423SM  H11S12680   4.733   7.167  13.931  1.5460  0.8953  2.3028
   9423SM  H11T12681   4.808   7.035  14.026  0.1924  3.9691  0.7076
   9423SM  C12S12682   4.639   6.977  13.896  0.2240  0.1834  0.4303
   9423SM  H12S12683   4.677   6.874  13.875 -1.1618 -0.2898  0.1514
   9423SM  H12T12684   4.591   7.023  13.807  1.8016  1.8420  0.3640
   9423SM  C13S12685   4.535   6.970  14.012  0.3193  0.4814 -0.0614
   9423SM  H13S12686   4.493   7.070  14.034 -1.7580  0.3116 -2.6220
   9423SM  H13T12687   4.576   6.921  14.103 -1.1808 -0.3477  0.2091
   9423SM  C14S12688   4.401   6.908  13.969 -0.3089  0.5917  0.3798
   9423SM  H14S12689   4.419   6.812  13.917 -0.7782  0.1945  0.9357
   9423SM  H14T12690   4.356   6.976  13.893  1.2422  1.9529  0.6397
   9423SM  C15S12691   4.288   6.870  14.075 -0.9381  0.2568  0.1112
   9423SM  H15S12692   4.198   6.853  14.012 -1.4220  3.5592 -0.2654
   9423SM  H15T12693   4.262   6.962  14.131  0.0863  0.0590  0.9526
   9423SM  C16S12694   4.327   6.743  14.155 -0.3029 -0.6583 -0.1907
   9423SM  H16S12695   4.429   6.755  14.197  0.1818  0.1622 -1.5551
   9423SM  H16T12696   4.338   6.652  14.092  1.7401 -1.0155  0.5939
   9423SM  C17S12697   4.223   6.727  14.267 -0.6576  0.5754  0.2587
   9423SM  H17S12698   4.118   6.748  14.240 -0.8960  1.5485  1.7479
   9423SM  H17T12699   4.255   6.806  14.339  0.4199 -0.5183  1.0245
   9423SM  C18S12700   4.230   6.593  14.325  0.7616 -0.5076  0.1324
   9423SM  H18S12701   4.209   6.524  14.241  0.4541 -2.5572  1.8183
   9423SM  H18T12702   4.146   6.595  14.398 -0.2790  2.1948 -0.9803
   9423SM  H18U12703   4.322   6.567  14.382  0.5826  0.8755  1.1172
   9423SM   C1F12704   5.216   6.862  13.044 -0.2068 -0.0904  0.2049
   9423SM    OF12705   5.286   6.952  13.003 -0.1759 -0.2364 -0.4726
   9423SM   C2F12706   5.271   6.745  13.113  0.6524 -0.2130  0.5162
   9423SM   H2F12707   5.355   6.711  13.047  0.7912  0.9761  0.0533
   9423SM   H2G12708   5.191   6.669  13.114 -1.1075  1.5141 -0.7813
   9423SM   C3F12709   5.334   6.780  13.245  1.0767 -0.4054  0.6868
   9423SM   H3F12710   5.405   6.866  13.235  0.1912  0.1073 -1.8880
   9423SM   H3G12711   5.391   6.693  13.284 -1.9254 -2.1868  1.3535
   9423SM   C4F12712   5.232   6.801  13.359 -0.8020 -0.7316 -0.1513
   9423SM   H4F12713   5.168   6.711  13.365 -0.8667 -0.6258  0.9057
   9423SM   H4G12714   5.165   6.889  13.350 -0.2012 -0.2852 -0.3335
   9423SM   C5F12715   5.321   6.824  13.476  0.3731 -0.6214 -0.3489
   9423SM   H5F12716   5.393   6.908  13.467 -2.4436  2.0144 -0.0111
   9423SM   H5G12717   5.363   6.723  13.494 -0.3107 -1.5156 -3.2182
   9423SM   C6F12718   5.240   6.858  13.602 -0.3156  0.0202 -0.0240
   9423SM   H6F12719   5.155   6.787  13.603 -0.2834 -0.0435 -0.9543
   9423SM   H6G12720   5.206   6.964  13.593 -0.5620  0.1421  1.9381
   9423SM   C7F12721   5.312   6.834  13.732  0.6434 -0.3927  0.4361
   9423SM   H7F12722   5.406   6.893  13.730  0.2439  0.2427 -0.5212
   9423SM   H7G12723   5.338   6.727  13.746  0.5377 -0.0464  4.2331
   9423SM   C8F12724   5.233   6.866  13.860  0.4105 -0.3662 -0.1486
   9423SM   H8F12725   5.192   6.970  13.858  0.1042 -0.3486  2.6763
   9423SM   H8G12726   5.308   6.849  13.940  0.0946 -1.5660 -0.0959
   9423SM   C9F12727   5.122   6.771  13.879  0.3298  0.3582 -0.6692
   9423SM   H9F12728   5.148   6.664  13.867 -1.2660 -0.4445  2.1324
   9423SM   H9G12729   5.049   6.781  13.795 -0.3906 -2.6650 -0.5287
   9423SM  C10F12730   5.052   6.782  14.015  0.3190 -0.2340 -0.1775
   9423SM  H10F12731   4.951   6.735  14.010  0.3346 -0.4667  1.3477
   9423SM  H10G12732   5.056   6.889  14.042  0.3735 -0.1630 -0.4636
   9423SM  C11F12733   5.130   6.701  14.120 -0.2002 -0.1674 -0.5861
   9423SM  H11F12734   5.210   6.769  14.155  0.8362 -0.8323 -1.6044
   9423SM  H11G12735   5.154   6.607  14.067 -1.4312 -0.1794 -1.1571
   9423SM  C12F12736   5.038   6.662  14.239 -0.8001  0.3928  0.1438
   9423SM  H12F12737   4.950   6.617  14.189 -0.1950  1.3141 -1.8528
   9423SM  H12G12738   4.995   6.753  14.286  0.4548  0.2869  1.5830
   9423SM  C13F12739   5.105   6.578  14.350 -1.0679  0.3704 -0.2735
   9423SM  H13F12740   5.191   6.633  14.394  0.1860 -0.6359 -1.3949
   9423SM  H13G12741   5.143   6.485  14.302  0.7379  1.8278 -1.8316
   9423SM  C14F12742   4.999   6.535  14.456 -0.9309 -0.1023  0.2109
   9423SM  H14F12743   4.915   6.481  14.407  0.3784 -2.1131  0.0488
   9423SM  H14G12744   4.972   6.637  14.490  2.9235  1.0672  0.2247
   9423SM  C15F12745   5.066   6.460  14.570  0.0714 -0.2005 -0.0326
   9423SM  H15F12746   5.136   6.527  14.623 -0.4527 -0.3410  0.8601
   9423SM  H15G12747   5.124   6.376  14.527 -2.7726 -1.3362 -2.0331
   9423SM  C16F12748   4.966   6.415  14.675 -0.0092  0.2979 -0.2875
   9423SM  H16F12749   4.892   6.492  14.704 -2.2787 -2.6395  2.4017
   9423SM  H16G12750   5.025   6.385  14.765 -2.2916 -2.1019  0.5583
   9423SM  C17F12751   4.883   6.291  14.623 -0.1231 -0.8134  0.0107
   9423SM  H17F12752   4.957   6.212  14.599  0.8918 -0.5401  2.0546
   9423SM  H17G12753   4.828   6.315  14.529 -1.1982 -0.6012  0.6775
   9423SM  C18F12754   4.772   6.250  14.725  0.3786  0.4498  0.1082
   9423SM  H18F12755   4.703   6.178  14.678  0.5271 -1.3592  2.4759
   9423SM  H18G12756   4.717   6.344  14.748 -0.4278  0.3857 -1.4723
   9423SM  C19F12757   4.846   6.189  14.843  0.5339 -0.3745  0.4863
   9423SM  H19F12758   4.773   6.183  14.926  0.9053  3.3168  1.2308
   9423SM  H19G12759   4.922   6.255  14.889 -0.5285  0.3475  1.2449
   9423SM  C20F12760   4.896   6.049  14.812 -0.2408  0.6214  0.7625
   9423SM  H20F12761   5.003   6.057  14.787  0.0703 -3.7664 -0.2344
   9423SM  H20G12762   4.837   6.013  14.724  0.5938  1.9151 -0.3641
   9423SM  C21F12763   4.877   5.951  14.930  0.2585 -0.4882 -0.4099
   9423SM  H21F12764   4.770   5.933  14.953  0.7373 -1.1184  1.4348
   9423SM  H21G12765   4.923   5.987  15.024 -0.5115  1.2401 -0.6363
   9423SM  C22F12766   4.934   5.815  14.887 -0.3870  0.3263  0.4731
   9423SM  H22F12767   5.029   5.844  14.836 -1.2606  0.5928 -1.0525
   9423SM  H22G12768   4.862   5.778  14.812 -2.4482  1.0518  2.0174
   9423SM  C23F12769   4.963   5.706  14.995 -0.1493 -0.6436  0.7708
   9423SM  H23F12770   4.977   5.603  14.954 -1.1717 -0.5727  0.2189
   9423SM  H23G12771   4.878   5.700  15.066  0.8890  0.5487  2.1602
   9423SM  H23H12772   5.050   5.736  15.056  2.0300 -1.8904 -1.5162
   9523SM     N12773   1.111   0.890  12.271  0.1758  0.3604  0.0441
   9523SM   C1512774   1.196   1.016  12.234  0.4516  0.0548 -1.1420
   9523SM  H15A12775   1.234   1.026  12.133  2.3979  1.2580 -0.3476
   9523SM  H15B12776   1.279   1.017  12.303  0.6426 -0.4801 -1.3593
   9523SM  H15C12777   1.132   1.101  12.253 -0.5437 -0.4875 -1.9146
   9523SM   C1412778   1.041   0.852  12.142  0.0593  0.5876 -0.2032
   9523SM  H14A12779   0.980   0.930  12.099  0.5834  0.4127 -1.3079
   9523SM  H14B12780   0.975   0.767  12.150  1.6593 -0.8136 -1.0998
   9523SM  H14C12781   1.105   0.821  12.060 -1.3331 -2.7766 -0.1862
   9523SM   C1312782   1.197   0.771  12.312 -0.2915  0.6342 -0.2355
   9523SM  H13A12783   1.243   0.802  12.405  0.7002  2.1486 -1.1975
   9523SM  H13B12784   1.286   0.747  12.256 -0.2010 -0.1638  0.2347
   9523SM  H13C12785   1.133   0.685  12.327  1.8658 -1.1437 -0.6532
   9523SM   C1212786   1.011   0.918  12.380  0.3143  0.0537  0.1752
   9523SM  H12A12787   0.951   0.829  12.392 -0.8335  0.4574 -1.9471
   9523SM  H12B12788   0.939   0.989  12.342  0.6537  0.6660  0.6701
   9523SM   C1112789   1.066   0.972  12.516 -0.1780  0.1319 -0.6176
   9523SM  H11A12790   1.154   0.914  12.554 -1.1156  0.2651  1.9586
   9523SM  H11B12791   0.986   0.952  12.590 -0.4511 -1.9890 -1.4068
   9523SM     P12792   1.005   1.226  12.517  0.4601 -0.0034  0.3413
   9523SM   O1312793   1.063   1.360  12.492  0.3250  0.0137  0.2209
   9523SM   O1412794   0.879   1.183  12.439  0.0465  0.1176  0.4158
   9523SM   O1112795   0.948   1.224  12.662 -0.1777 -0.0274 -0.1265
   9523SM   O1212796   1.112   1.106  12.511  0.3630 -0.6326 -0.0913
   9523SM   C1S12797   1.036   1.202  12.771  0.4703  0.1720 -0.0315
   9523SM   H1S12798   1.118   1.277  12.767  0.6555 -0.0726 -3.1452
   9523SM   H1T12799   1.087   1.103  12.768 -0.4912 -0.4471  1.8415
   9523SM    NF12800   1.046   1.144  13.015  0.1909 -0.4143  0.4863
   9523SM   HNF12801   1.030   1.049  13.039 -0.5834 -0.2292  0.7138
   9523SM   C2S12802   0.964   1.205  12.912  0.0635  0.3172 -0.4533
   9523SM   H2S12803   0.949   1.312  12.936 -1.1711 -0.1147  0.8672
   9523SM   C3S12804   0.825   1.132  12.886  0.6527 -0.1705 -0.5827
   9523SM   H3S12805   0.855   1.029  12.856  1.5272  0.2802 -1.2967
   9523SM    O312806   0.737   1.186  12.790  0.1715  0.0586 -0.3314
   9523SM   HO312807   0.788   1.250  12.740 -0.5011 -1.2904 -2.9084
   9523SM   C4S12808   0.764   1.120  13.027  0.2307 -0.5875  0.4109
   9523SM   H4S12809   0.817   1.046  13.090  1.7706 -0.3249 -0.5072
   9523SM   C5S12810   0.656   1.183  13.074  0.1601 -0.4805 -0.2848
   9523SM   H5S12811   0.590   1.243  13.009 -1.8341  0.9610  2.8353
   9523SM   C6S12812   0.597   1.171  13.209  0.1309  0.1444  0.0174
   9523SM   H6S12813   0.497   1.124  13.212  0.0446  0.3963  1.3334
   9523SM   H6T12814   0.566   1.269  13.250 -0.4934  0.2453 -0.6740
   9523SM   C7S12815   0.684   1.105  13.314 -0.0216 -0.2555  0.5748
   9523SM   H7S12816   0.752   1.184  13.353 -1.9567  2.0502 -0.4474
   9523SM   H7T12817   0.740   1.018  13.273  0.4760  1.7141 -3.4670
   9523SM   C8S12818   0.602   1.075  13.436 -1.0807 -0.5710  0.5875
   9523SM   H8S12819   0.668   1.032  13.515 -2.0728 -1.7056  0.8349
   9523SM   H8T12820   0.537   0.991  13.403  0.8210 -1.4090 -1.2461
   9523SM   C9S12821   0.536   1.199  13.506 -0.1513 -0.0920  0.3683
   9523SM   H9S12822   0.476   1.241  13.423  0.7656 -0.0011 -0.2694
   9523SM   H9T12823   0.612   1.273  13.539 -0.0212  0.6797 -1.5245
   9523SM  C10S12824   0.451   1.170  13.629 -0.6435  0.2924 -0.2663
   9523SM  H10S12825   0.500   1.091  13.690 -0.2282 -0.7615 -1.8956
   9523SM  H10T12826   0.353   1.128  13.598  0.8993 -2.7244 -1.4858
   9523SM  C11S12827   0.427   1.296  13.716  0.1717 -0.2666  0.0501
   9523SM  H11S12828   0.386   1.377  13.652  1.1378  0.7799  0.7163
   9523SM  H11T12829   0.522   1.322  13.767  0.1386  0.6505 -0.3258
   9523SM  C12S12830   0.325   1.271  13.829 -0.5399  0.2577 -0.5419
   9523SM  H12S12831   0.355   1.177  13.881  0.5604 -0.1732 -1.9055
   9523SM  H12T12832   0.231   1.246  13.776 -1.7024 -0.6429  1.8146
   9523SM  C13S12833   0.308   1.391  13.930 -0.1984  0.1239  0.2305
   9523SM  H13S12834   0.286   1.483  13.872 -1.0932 -1.7562 -2.6426
   9523SM  H13T12835   0.404   1.410  13.981 -0.9787  1.4820  1.2696
   9523SM  C14S12836   0.199   1.366  14.032  0.5275 -0.7603 -0.8752
   9523SM  H14S12837   0.218   1.269  14.082  2.2401  0.1858  0.3998
   9523SM  H14T12838   0.104   1.352  13.976  0.1939 -1.4360 -0.1594
   9523SM  C15S12839   0.175   1.477  14.142  0.3458 -0.2652 -0.2476
   9523SM  H15S12840   0.162   1.568  14.080  0.3869 -1.1912 -1.6528
   9523SM  H15T12841   0.271   1.493  14.196  0.2658  1.1394 -0.4868
   9523SM  C16S12842   0.059   1.448  14.235  0.0876 -0.1221 -0.1683
   9523SM  H16S12843   0.086   1.351  14.281  1.6973  1.0464  1.4841
   9523SM  H16T12844  -0.033   1.438  14.173  1.3678 -0.5041 -2.1098
   9523SM  C17S12845   0.050   1.563  14.331  0.3388  0.0558  0.0458
   9523SM  H17S12846   0.019   1.654  14.276 -0.8190 -0.7542 -0.6925
   9523SM  H17T12847   0.148   1.582  14.378  0.8814 -2.5768  0.1462
   9523SM  C18S12848  -0.057   1.544  14.447 -0.4665  0.3765  0.1832
   9523SM  H18S12849  -0.150   1.511  14.397 -0.3575  0.3239  0.0151
   9523SM  H18T12850  -0.064   1.639  14.504 -0.1424 -0.6809  2.0746
   9523SM  H18U12851  -0.022   1.468  14.520  0.0551  1.1705  0.7881
   9523SM   C1F12852   1.148   1.201  13.068 -0.5213 -0.0569  0.1319
   9523SM    OF12853   1.168   1.320  13.041  0.0891 -0.5947  0.6048
   9523SM   C2F12854   1.231   1.117  13.163  0.1499 -0.3652 -0.0944
   9523SM   H2F12855   1.337   1.103  13.134  0.7551  1.0342  1.2626
   9523SM   H2G12856   1.201   1.010  13.168 -0.5623 -0.3345 -2.4202
   9523SM   C3F12857   1.229   1.177  13.308 -0.1748 -0.3094  0.0730
   9523SM   H3F12858   1.282   1.274  13.298  1.1093 -0.9593  0.3682
   9523SM   H3G12859   1.299   1.107  13.358 -0.6955 -0.0581  1.1879
   9523SM   C4F12860   1.097   1.182  13.387 -0.3463 -0.5897  1.0493
   9523SM   H4F12861   1.040   1.088  13.401 -2.4388  0.3160 -0.6660
   9523SM   H4G12862   1.019   1.244  13.337  0.4652 -0.8762 -0.6544
   9523SM   C5F12863   1.113   1.255  13.522 -0.0643  1.0991  0.9669
   9523SM   H5F12864   1.153   1.358  13.515  1.7989  0.5039  2.1023
   9523SM   H5G12865   1.184   1.192  13.579 -0.7571 -1.6112 -0.9352
   9523SM   C6F12866   0.975   1.265  13.585 -0.1145  0.0220 -0.1818
   9523SM   H6F12867   0.909   1.182  13.550 -3.5276  1.0935  3.0570
   9523SM   H6G12868   0.917   1.356  13.561 -0.7234 -0.7548 -1.8411
   9523SM   C7F12869   0.982   1.246  13.738  0.5885  0.1781  0.3861
   9523SM   H7F12870   1.075   1.298  13.771  0.3704  0.3286  0.7719
   9523SM   H7G12871   0.992   1.137  13.758  1.4923 -0.2286 -1.9759
   9523SM   C8F12872   0.850   1.286  13.805  0.6685  0.4428 -0.1507
   9523SM   H8F12873   0.764   1.239  13.753  0.1001  0.7368  0.5143
   9523SM   H8G12874   0.829   1.394  13.787  1.1004  0.3326 -1.5086
   9523SM   C9F12875   0.830   1.240  13.951 -0.3337  0.2476 -0.0789
   9523SM   H9F12876   0.912   1.269  14.019 -0.9148 -1.3979  1.3805
   9523SM   H9G12877   0.820   1.130  13.943  0.1253  0.0537  1.7067
   9523SM  C10F12878   0.696   1.289  14.000  0.0988 -0.1631  0.0255
   9523SM  H10F12879   0.616   1.244  13.939  0.1542 -2.6796  1.6726
   9523SM  H10G12880   0.679   1.397  13.981  2.4195  0.3892  0.7525
   9523SM  C11F12881   0.688   1.251  14.146  0.5644 -0.3029  0.1161
   9523SM  H11F12882   0.774   1.304  14.192  1.5054 -1.2360 -0.5336
   9523SM  H11G12883   0.718   1.147  14.170 -0.6357 -1.0110 -1.3078
   9523SM  C12F12884   0.554   1.288  14.211 -0.1077  0.3812 -0.0623
   9523SM  H12F12885   0.474   1.214  14.193  0.0187  0.0226  0.7934
   9523SM  H12G12886   0.512   1.384  14.173  0.1286  0.7889  0.6814
   9523SM  C13F12887   0.571   1.312  14.363 -0.1687  0.4582  0.0862
   9523SM  H13F12888   0.652   1.385  14.384  0.3954 -0.9087  3.1486
   9523SM  H13G12889   0.601   1.219  14.416 -1.2325  0.5124  0.8081
   9523SM  C14F12890   0.437   1.371  14.420 -0.4809 -0.2009 -0.1889
   9523SM  H14F12891   0.359   1.310  14.371 -1.7258  3.2225 -2.8647
   9523SM  H14G12892   0.428   1.469  14.369  0.3630  0.6346  1.2124
   9523SM  C15F12893   0.432   1.390  14.572  0.4324  0.8237  0.0007
   9523SM  H15F12894   0.513   1.463  14.591  1.8178 -0.6619 -0.0287
   9523SM  H15G12895   0.441   1.295  14.629  0.7198  1.6277  1.3323
   9523SM  C16F12896   0.290   1.436  14.617 -0.3803  0.3518 -0.5138
   9523SM  H16F12897   0.212   1.369  14.576  0.5650 -1.2214  0.1936
   9523SM  H16G12898   0.275   1.534  14.567 -0.1825 -1.0659 -3.6118
   9523SM  C17F12899   0.264   1.440  14.767  0.0897 -0.2290  0.4148
   9523SM  H17F12900   0.350   1.473  14.829 -0.9128  0.9171  1.2387
   9523SM  H17G12901   0.241   1.334  14.791  0.8904 -0.6534 -0.6245
   9523SM  C18F12902   0.154   1.545  14.796 -0.0702  0.4482 -0.8430
   9523SM  H18F12903   0.074   1.514  14.726 -0.9042  1.9221 -0.5604
   9523SM  H18G12904   0.196   1.643  14.765  1.5013  0.0016 -0.2584
   9523SM  C19F12905   0.110   1.539  14.949 -0.3858 -0.0939  0.1284
   9523SM  H19F12906   0.074   1.436  14.966 -0.2451 -0.1871 -0.1246
   9523SM  H19G12907   0.038   1.616  14.982  1.1404  2.3232 -1.7811
   9523SM  C20F12908   0.232   1.568  15.048 -0.3111  0.2695  0.1449
   9523SM  H20F12909   0.316   1.496  15.045  1.2384  2.0344 -1.0282
   9523SM  H20G12910   0.177   1.567  15.144 -2.4666  1.0182 -1.0029
   9523SM  C21F12911   0.286   1.712  15.051 -0.1423  0.2597 -0.2536
   9523SM  H21F12912   0.190   1.764  15.032 -2.2937 -2.4719  2.1876
   9523SM  H21G12913   0.360   1.726  14.969 -0.3357 -0.7357 -0.6105
   9523SM  C22F12914   0.340   1.754  15.178 -1.2280 -0.3478 -0.0672
   9523SM  H22F12915   0.438   1.706  15.196 -0.0694  1.9115 -0.0417
   9523SM  H22G12916   0.269   1.740  15.262  0.6729 -0.7131  1.5423
   9523SM  C23F12917   0.375   1.903  15.168 -0.0185 -0.2748 -0.1171
   9523SM  H23F12918   0.433   1.934  15.258 -0.9814  0.9337  0.1170
   9523SM  H23G12919   0.287   1.970  15.177  1.3877  1.4049  2.3207
   9523SM  H23H12920   0.425   1.929  15.072 -0.2464 -1.1751 -0.4914
   9623SM     N12921   2.384   0.472  12.573  0.1450 -0.0889 -0.6392
   9623SM   C1512922   2.514   0.406  12.566  0.1048  0.0161  0.2849
   9623SM  H15A12923   2.511   0.298  12.574  1.4221  0.0940  2.6149
   9623SM  H15B12924   2.570   0.436  12.653  0.3122  2.8363 -0.7259
   9623SM  H15C12925   2.562   0.443  12.477 -2.7207  0.2615 -1.2434
   9623SM   C1412926   2.410   0.624  12.555  0.7299 -0.2520  0.0464
   9623SM  H14A12927   2.439   0.640  12.452  0.5773 -0.0789  0.0286
   9623SM  H14B12928   2.479   0.667  12.626  1.5557 -1.8256  0.2217
   9623SM  H14C12929   2.321   0.679  12.583  0.9558 -0.3530  0.9714
   9623SM   C1312930   2.306   0.424  12.463 -1.0335 -0.1879 -0.0170
   9623SM  H13A12931   2.209   0.471  12.455 -0.7823  0.5341  0.9364
   9623SM  H13B12932   2.291   0.319  12.486  1.9279 -0.3632  1.6695
   9623SM  H13C12933   2.357   0.441  12.370  0.0904 -0.8528  0.4560
   9623SM   C1212934   2.325   0.426  12.705  0.1421  0.3218 -0.0138
   9623SM  H12A12935   2.391   0.456  12.786 -2.0105  2.2907  1.1187
   9623SM  H12B12936   2.307   0.320  12.700 -2.5561  0.7855 -1.4351
   9623SM   C1112937   2.186   0.480  12.750 -0.3894  0.1696  0.3645
   9623SM  H11A12938   2.199   0.579  12.798  1.1028  0.1200  0.0913
   9623SM  H11B12939   2.151   0.412  12.831  0.6334  1.3470  1.8330
   9623SM     P12940   2.017   0.621  12.610  0.0403  0.1502  0.0575
   9623SM   O1312941   2.109   0.722  12.556 -0.1774  0.3297 -0.2738
   9623SM   O1412942   1.914   0.573  12.514 -0.7380  0.2974  0.0827
   9623SM   O1112943   1.947   0.670  12.748 -0.5771  0.5062 -0.1228
   9623SM   O1212944   2.094   0.488  12.643 -0.1582  0.1914  0.0797
   9623SM   C1S12945   1.867   0.582  12.828 -0.5513  0.0512 -0.0628
   9623SM   H1S12946   1.873   0.475  12.799  3.6634  0.0209  0.4188
   9623SM   H1T12947   1.762   0.618  12.824  0.1791  2.1728 -2.6235
   9623SM    NF12948   1.840   0.497  13.050 -0.0057 -0.2246 -0.0870
   9623SM   HNF12949   1.766   0.531  13.108 -0.4019  0.1642 -0.8062
   9623SM   C2S12950   1.917   0.589  12.973  0.4691 -0.2647  0.3531
   9623SM   H2S12951   2.025   0.564  12.974  0.5398  0.0653  1.3230
   9623SM   C3S12952   1.897   0.732  13.032  0.2007  0.8925 -0.0689
   9623SM   H3S12953   1.789   0.758  13.030 -0.1210 -0.3623 -0.1903
   9623SM    O312954   1.964   0.836  12.973  0.0166  0.0118 -0.0481
   9623SM   HO312955   1.987   0.798  12.887  1.1785  3.1014 -1.2379
   9623SM   C4S12956   1.942   0.724  13.177 -0.3616 -0.0538 -0.0410
   9623SM   H4S12957   2.049   0.736  13.198 -0.7366  1.5988  1.1949
   9623SM   C5S12958   1.858   0.710  13.281  0.3019 -0.7763  0.2138
   9623SM   H5S12959   1.751   0.704  13.253  0.4233  1.2939 -0.8730
   9623SM   C6S12960   1.898   0.707  13.426 -0.3141 -0.4892  0.5938
   9623SM   H6S12961   1.882   0.608  13.473  2.9122 -1.8963 -0.9370
   9623SM   H6T12962   1.841   0.791  13.471  1.2444 -1.0435  3.9699
   9623SM   C7S12963   2.047   0.731  13.450  0.5513  0.1965 -0.6745
   9623SM   H7S12964   2.078   0.832  13.414 -0.9892 -0.3189 -3.7127
   9623SM   H7T12965   2.111   0.653  13.403 -1.1055 -0.7836 -1.3644
   9623SM   C8S12966   2.085   0.742  13.597 -0.1580 -0.1504  0.5149
   9623SM   H8S12967   2.195   0.726  13.605  0.3349  2.9785  1.0185
   9623SM   H8T12968   2.047   0.657  13.658  4.4645 -3.2006 -0.2828
   9623SM   C9S12969   2.052   0.874  13.662 -0.4846  0.3733 -0.3008
   9623SM   H9S12970   1.946   0.901  13.639 -0.5426 -0.1006 -0.6000
   9623SM   H9T12971   2.123   0.952  13.628  0.0722 -0.3212 -0.7514
   9623SM  C10S12972   2.074   0.866  13.817  0.0923 -0.0048  0.1913
   9623SM  H10S12973   2.184   0.851  13.830  0.2948  0.8493 -0.4122
   9623SM  H10T12974   2.025   0.777  13.861 -2.0067  1.4263  0.8832
   9623SM  C11S12975   2.032   0.990  13.900  0.3712 -0.2964 -0.1047
   9623SM  H11S12976   1.922   0.989  13.883  0.2465 -1.6661  0.6886
   9623SM  H11T12977   2.080   1.072  13.842  1.9710 -1.7001 -0.8518
   9623SM  C12S12978   2.059   0.993  14.051  0.0707 -0.1067 -0.3826
   9623SM  H12S12979   2.165   0.962  14.055  0.7865  1.8777 -2.1568
   9623SM  H12T12980   1.998   0.907  14.088 -0.5182  0.4771  0.0447
   9623SM  C13S12981   2.030   1.120  14.129 -0.3402  0.5071  1.0292
   9623SM  H13S12982   2.076   1.201  14.069 -2.1252  1.0601  0.3522
   9623SM  H13T12983   2.068   1.109  14.233  0.3225  0.6672  0.8043
   9623SM  C14S12984   1.880   1.145  14.149  0.4953 -0.1559 -0.3329
   9623SM  H14S12985   1.844   1.054  14.202 -0.6878  0.3960 -0.1559
   9623SM  H14T12986   1.834   1.147  14.048  1.0954  0.7838 -0.5976
   9623SM  C15S12987   1.852   1.260  14.242  0.1976  0.0009  0.1037
   9623SM  H15S12988   1.895   1.351  14.195  1.0376 -0.0877  0.6783
   9623SM  H15T12989   1.906   1.252  14.339  2.8128  0.3712 -1.2342
   9623SM  C16S12990   1.695   1.288  14.247 -0.2827 -0.0793 -0.6893
   9623SM  H16S12991   1.641   1.193  14.264 -0.2910  0.2303  1.1991
   9623SM  H16T12992   1.653   1.325  14.151 -1.2732  3.6067  0.9633
   9623SM  C17S12993   1.664   1.389  14.356  0.6241  0.0746 -0.0995
   9623SM  H17S12994   1.726   1.477  14.328  1.1765  0.4327  2.1246
   9623SM  H17T12995   1.691   1.354  14.458  1.1277  1.1031  0.1272
   9623SM  C18S12996   1.515   1.419  14.361 -0.0568 -0.5004 -0.0256
   9623SM  H18S12997   1.497   1.477  14.268  3.5231  2.2113  0.7661
   9623SM  H18T12998   1.499   1.486  14.449  0.0761 -0.5150  0.0095
   9623SM  H18U12999   1.450   1.330  14.375 -1.1931  0.3701  0.4404
   9623SM   C1F13000   1.861   0.365  13.046  0.6879  0.0270  0.3229
   9623SM    OF13001   1.938   0.329  12.965 -0.1024 -0.1933  0.2112
   9623SM   C2F13002   1.784   0.274  13.140  0.9469 -0.0625 -0.1124
   9623SM   H2F13003   1.694   0.229  13.094 -1.0182  1.8112  1.6370
   9623SM   H2G13004   1.738   0.339  13.218  1.2331 -0.0863  0.0761
   9623SM   C3F13005   1.872   0.165  13.201 -0.9848 -0.3463 -0.0568
   9623SM   H3F13006   1.958   0.224  13.239 -1.5154 -0.1038  0.7976
   9623SM   H3G13007   1.900   0.090  13.124 -3.1786  0.3631 -1.6408
   9623SM   C4F13008   1.812   0.081  13.309 -0.2250 -0.1742 -0.1799
   9623SM   H4F13009   1.886   0.006  13.344  1.4082  1.4509 -0.0043
   9623SM   H4G13010   1.732   0.016  13.266  1.0063 -3.3609  1.9199
   9623SM   C5F13011   1.756   0.158  13.431 -0.1907 -0.4821 -0.0116
   9623SM   H5F13012   1.680   0.096  13.483 -1.6799  0.8610 -0.5059
   9623SM   H5G13013   1.705   0.251  13.397  0.5994 -0.8370 -2.3286
   9623SM   C6F13014   1.863   0.212  13.522  0.1214 -0.1840  0.1604
   9623SM   H6F13015   1.940   0.271  13.469 -1.2967 -1.3000 -3.3993
   9623SM   H6G13016   1.910   0.116  13.554 -1.1466 -2.1920 -3.4946
   9623SM   C7F13017   1.803   0.292  13.642  0.7890 -0.2307 -0.2494
   9623SM   H7F13018   1.761   0.220  13.716  0.9241 -0.9352 -0.8492
   9623SM   H7G13019   1.727   0.364  13.605  1.9885  0.9009 -0.6156
   9623SM   C8F13020   1.913   0.375  13.706  0.9430  0.8255 -0.0213
   9623SM   H8F13021   1.956   0.454  13.641  0.0787  0.5974 -0.8881
   9623SM   H8G13022   1.985   0.298  13.740  0.9256  1.4268  1.4667
   9623SM   C9F13023   1.848   0.433  13.827  0.8742 -0.2235 -0.6372
   9623SM   H9F13024   1.800   0.355  13.890  0.6265  0.4754  0.0598
   9623SM   H9G13025   1.767   0.503  13.799 -1.0128 -2.0109  0.0932
   9623SM  C10F13026   1.955   0.504  13.913  0.2199  0.5576 -0.3106
   9623SM  H10F13027   1.999   0.578  13.844  0.4203 -0.4049 -1.2394
   9623SM  H10G13028   2.031   0.427  13.940 -1.5368 -0.7756  1.1563
   9623SM  C11F13029   1.896   0.555  14.043 -0.2003  0.1812 -0.8528
   9623SM  H11F13030   1.852   0.467  14.095 -0.7380  1.7509  1.5050
   9623SM  H11G13031   1.822   0.637  14.033  0.4105  0.5070 -3.4146
   9623SM  C12F13032   2.013   0.591  14.144  0.9769 -0.1944  0.7008
   9623SM  H12F13033   2.055   0.691  14.123 -3.0505  2.0812  2.2726
   9623SM  H12G13034   2.098   0.519  14.143  0.0977 -1.5081 -4.1192
   9623SM  C13F13035   1.972   0.600  14.287  0.5114 -0.3932  0.0695
   9623SM  H13F13036   1.953   0.505  14.341 -1.0211  0.5693  1.3225
   9623SM  H13G13037   1.872   0.648  14.295 -0.2179 -1.9429  0.6118
   9623SM  C14F13038   2.075   0.680  14.367  0.2287 -0.3152 -0.2661
   9623SM  H14F13039   2.153   0.729  14.305  2.0877 -1.1270  1.3304
   9623SM  H14G13040   2.127   0.603  14.429 -0.5840 -1.5028 -1.0119
   9623SM  C15F13041   2.019   0.795  14.448 -0.0370  1.1932 -1.0059
   9623SM  H15F13042   1.949   0.852  14.383 -0.3830 -0.2106 -1.9202
   9623SM  H15G13043   2.110   0.856  14.466 -0.1465  2.3055 -3.6828
   9623SM  C16F13044   1.944   0.745  14.572  0.3726 -0.5933 -0.4540
   9623SM  H16F13045   2.009   0.667  14.617 -0.4518 -2.3074 -2.1552
   9623SM  H16G13046   1.847   0.699  14.544  0.7070  0.2698 -3.3593
   9623SM  C17F13047   1.904   0.852  14.684 -0.2735 -0.1458 -0.4106
   9623SM  H17F13048   1.836   0.925  14.636  0.4402 -0.0781 -1.3617
   9623SM  H17G13049   1.998   0.910  14.698 -0.0350 -0.0357 -2.2356
   9623SM  C18F13050   1.837   0.786  14.810 -0.1336 -0.3349  0.8312
   9623SM  H18F13051   1.918   0.735  14.866  2.0199  0.3991 -1.4265
   9623SM  H18G13052   1.760   0.713  14.779 -0.8340  0.0614  1.6171
   9623SM  C19F13053   1.775   0.877  14.911 -0.6573  0.0265  0.3755
   9623SM  H19F13054   1.699   0.820  14.969  1.5618 -4.6122 -0.7688
   9623SM  H19G13055   1.732   0.962  14.856  2.5987  0.3418 -1.9821
   9623SM  C20F13056   1.873   0.946  15.006  0.0814 -0.1520  0.3338
   9623SM  H20F13057   1.812   1.020  15.062  0.1675  0.6383 -0.5872
   9623SM  H20G13058   1.956   0.998  14.954 -1.6724 -0.8258 -3.4673
   9623SM  C21F13059   1.926   0.851  15.117 -0.1964 -0.7041 -0.3453
   9623SM  H21F13060   2.005   0.785  15.077  0.6627 -0.0513  0.2482
   9623SM  H21G13061   1.839   0.785  15.137 -0.5274 -0.0733  0.3671
   9623SM  C22F13062   1.995   0.920  15.239  0.1600  0.3155  0.0121
   9623SM  H22F13063   1.916   0.978  15.291 -0.2832 -0.8894  0.7170
   9623SM  H22G13064   2.082   0.984  15.214  0.2137  1.3684  2.5997
   9623SM  C23F13065   2.055   0.825  15.347  0.2430 -0.0278  0.2558
   9623SM  H23F13066   1.987   0.741  15.373  1.2171 -1.7179 -2.2219
   9623SM  H23G13067   2.072   0.884  15.440  0.0827  0.1980  0.1432
   9623SM  H23H13068   2.153   0.786  15.311  0.3812  1.0528 -0.5800
   9723SM     N13069   3.365   7.579  12.593 -0.2830  0.5784 -0.4065
   9723SM   C1513070   3.414   7.672  12.706 -0.6236  0.2349  0.5229
   9723SM  H15A13071   3.330   7.735  12.733 -1.8770 -1.2120  0.1598
   9723SM  H15B13072   3.495   7.725  12.660  0.3503 -1.2119  0.4982
   9723SM  H15C13073   3.433   7.605  12.789  2.3595  1.1259  0.6417
   9723SM   C1413074   3.316   7.674  12.481 -0.2573  0.1118 -1.1411
   9723SM  H14A13075   3.236   7.738  12.515 -0.8800 -0.7613 -0.9584
   9723SM  H14B13076   3.269   7.614  12.404  1.0829  0.7726 -2.5358
   9723SM  H14C13077   3.394   7.739  12.444 -0.4724  0.4367 -1.0268
   9723SM   C1313078   3.488   7.508  12.548  0.1541 -0.0339  0.2182
   9723SM  H13A13079   3.559   7.577  12.504 -1.0074 -0.6098 -2.8262
   9723SM  H13B13080   3.473   7.430  12.474  0.5528  0.2383 -0.1598
   9723SM  H13C13081   3.542   7.455  12.625  1.6607  0.4050 -0.4836
   9723SM   C1213082   3.252   7.484  12.635 -0.2345  0.0503 -0.0472
   9723SM  H12A13083   3.299   7.439  12.721 -0.9926 -1.1523 -0.2263
   9723SM  H12B13084   3.222   7.410  12.562 -0.4733 -0.4618  0.5577
   9723SM   C1113085   3.117   7.544  12.683  0.7143  0.0314 -0.1260
   9723SM  H11A13086   3.143   7.616  12.763 -2.5160  1.0849  0.1424
   9723SM  H11B13087   3.050   7.470  12.731 -0.1542  1.8881  1.6919
   9723SM     P13088   2.933   7.700  12.579  0.4809  0.1838 -0.0068
   9723SM   O1313089   2.977   7.836  12.550  0.3093 -0.9124 -0.3673
   9723SM   O1413090   2.828   7.640  12.496  0.0561  0.3516  0.7049
   9723SM   O1113091   2.892   7.692  12.737  0.1737  0.3339  0.4073
   9723SM   O1213092   3.056   7.613  12.567  0.0423  0.5619 -0.5743
   9723SM   C1S13093   2.922   7.804  12.824 -0.3000  0.6389 -0.4029
   9723SM   H1S13094   2.875   7.896  12.783 -0.0553  1.1028  0.3535
   9723SM   H1T13095   3.030   7.828  12.826 -0.7790  2.9191  0.6865
   9723SM    NF13096   2.899   7.922  13.045  0.4530  0.0039 -0.0039
   9723SM   HNF13097   2.978   7.933  13.104 -0.9077  2.4634  1.5422
   9723SM   C2S13098   2.868   7.796  12.971 -0.1925 -0.5969 -0.2548
   9723SM   H2S13099   2.761   7.773  12.957 -0.5563 -0.6779  2.2577
   9723SM   C3S13100   2.933   7.674  13.040  0.5500 -0.3948 -0.7175
   9723SM   H3S13101   3.038   7.697  13.065  0.3289 -0.0677 -0.0563
   9723SM    O313102   2.938   7.555  12.967  0.2130  0.3634  0.5652
   9723SM   HO313103   2.893   7.579  12.886 -0.8973 -2.4983  0.2183
   9723SM   C4S13104   2.855   7.643  13.170  0.2866  0.3035 -0.9913
   9723SM   H4S13105   2.748   7.617  13.168  0.5984 -1.1129 -0.2918
   9723SM   C5S13106   2.905   7.664  13.290 -0.2584  0.0619  0.0980
   9723SM   H5S13107   3.007   7.701  13.310  0.3654 -1.9736  0.9631
   9723SM   C6S13108   2.830   7.633  13.415 -0.0635 -0.4954  0.2770
   9723SM   H6S13109   2.731   7.587  13.397  0.0093 -0.4807 -0.1521
   9723SM   H6T13110   2.823   7.732  13.467  0.6064 -0.7527  0.8716
   9723SM   C7S13111   2.919   7.539  13.515  0.6602 -0.1523 -0.5105
   9723SM   H7S13112   3.019   7.573  13.547 -0.0242 -0.2120  1.9562
   9723SM   H7T13113   2.930   7.437  13.473  0.0736 -1.1596  1.6046
   9723SM   C8S13114   2.853   7.524  13.654  0.0244  0.7332 -0.1237
   9723SM   H8S13115   2.756   7.471  13.659  0.2658  0.2737 -0.1840
   9723SM   H8T13116   2.831   7.619  13.707  0.7864  0.8134  0.0633
   9723SM   C9S13117   2.938   7.453  13.752 -0.1292 -0.5550 -0.1383
   9723SM   H9S13118   3.027   7.516  13.773 -0.0819 -1.3666  2.5641
   9723SM   H9T13119   2.967   7.351  13.719  2.7596 -0.5060  1.8498
   9723SM  C10S13120   2.881   7.458  13.894  0.2054  0.2140  0.6495
   9723SM  H10S13121   2.776   7.424  13.879  0.6138 -1.0628  0.5124
   9723SM  H10T13122   2.894   7.552  13.952  2.9512  1.0586 -1.1543
   9723SM  C11S13123   2.947   7.343  13.975  0.4436  0.1523 -0.5267
   9723SM  H11S13124   3.057   7.356  13.972  0.8581 -0.9683  3.5790
   9723SM  H11T13125   2.917   7.248  13.925  0.9640 -0.2456 -0.0975
   9723SM  C12S13126   2.908   7.347  14.131  0.3515 -0.1019  1.2716
   9723SM  H12S13127   2.809   7.297  14.130 -0.0734  0.7363  1.0122
   9723SM  H12T13128   2.890   7.452  14.160 -0.3164 -0.3356  1.7316
   9723SM  C13S13129   3.002   7.270  14.238  0.0608 -0.0641  0.3102
   9723SM  H13S13130   3.101   7.321  14.234  0.5874 -1.1171 -2.1634
   9723SM  H13T13131   3.013   7.165  14.205 -0.0593  0.4630 -1.5528
   9723SM  C14S13132   2.961   7.263  14.387 -0.0829 -0.1689  0.0893
   9723SM  H14S13133   2.958   7.365  14.430  1.2582  0.2163 -0.6633
   9723SM  H14T13134   3.049   7.215  14.435 -0.4979  1.3766  2.5445
   9723SM  C15S13135   2.821   7.186  14.413 -0.6657 -0.2963 -0.1812
   9723SM  H15S13136   2.820   7.083  14.372  1.2455  0.3169 -1.9613
   9723SM  H15T13137   2.743   7.244  14.359 -2.1955  0.6061  2.7987
   9723SM  C16S13138   2.779   7.191  14.560  0.0609  0.2027  0.1586
   9723SM  H16S13139   2.805   7.291  14.601  0.2233  0.4480 -0.5253
   9723SM  H16T13140   2.839   7.118  14.619  0.5660  0.8610  0.4865
   9723SM  C17S13141   2.634   7.141  14.585 -0.1678 -0.6175 -0.2827
   9723SM  H17S13142   2.615   7.044  14.534  3.5022 -1.2296 -0.7565
   9723SM  H17T13143   2.563   7.211  14.536 -0.4952 -1.1603 -0.5889
   9723SM  C18S13144   2.612   7.132  14.734  0.8567 -0.5676 -0.8234
   9723SM  H18S13145   2.644   7.226  14.782 -0.1889 -1.5181  1.9590
   9723SM  H18T13146   2.674   7.052  14.780  0.7636  0.1930  0.6844
   9723SM  H18U13147   2.507   7.110  14.766  1.7167 -0.9881  1.9850
   9723SM   C1F13148   2.830   8.033  13.019  0.0223  0.8959 -0.5501
   9723SM    OF13149   2.741   8.037  12.941  0.8697  0.0815  0.5295
   9723SM   C2F13150   2.865   8.164  13.078  0.0732 -0.3872 -0.8287
   9723SM   H2F13151   2.869   8.244  13.001 -0.5401 -1.5367 -2.1061
   9723SM   H2G13152   2.961   8.168  13.134  0.0541  1.9262 -0.8739
   9723SM   C3F13153   2.739   8.232  13.159 -0.8634  0.0382 -0.0849
   9723SM   H3F13154   2.657   8.218  13.085  0.7395 -0.5650 -1.8438
   9723SM   H3G13155   2.765   8.337  13.182  2.0740 -0.7249  0.4351
   9723SM   C4F13156   2.703   8.168  13.294 -0.4085  0.1200 -0.0194
   9723SM   H4F13157   2.684   8.060  13.280  0.9206 -0.3772  1.7469
   9723SM   H4G13158   2.612   8.224  13.326 -0.6917  0.2158 -0.9652
   9723SM   C5F13159   2.813   8.179  13.397 -0.2198 -0.1799  0.7019
   9723SM   H5F13160   2.805   8.274  13.455 -2.6703  0.1434 -0.0505
   9723SM   H5G13161   2.904   8.194  13.336 -1.4343  3.0796 -0.5878
   9723SM   C6F13162   2.821   8.069  13.501 -0.6229  0.8676 -0.4565
   9723SM   H6F13163   2.818   7.975  13.443 -1.1685  0.3240  0.4350
   9723SM   H6G13164   2.733   8.076  13.569 -1.3134 -1.1674 -1.0717
   9723SM   C7F13165   2.942   8.081  13.580 -0.2001  0.4050 -0.5474
   9723SM   H7F13166   2.951   8.153  13.665 -0.0814 -0.9687  0.6335
   9723SM   H7G13167   3.034   8.094  13.520 -0.0124 -0.5355 -0.4778
   9723SM   C8F13168   2.966   7.952  13.651  0.5349 -0.6809 -0.1434
   9723SM   H8F13169   2.963   7.864  13.583 -2.4892 -1.1214  0.4055
   9723SM   H8G13170   2.891   7.932  13.730  0.4170 -2.2519 -0.6149
   9723SM   C9F13171   3.093   7.958  13.727 -0.4911  1.1045 -0.9439
   9723SM   H9F13172   3.094   8.040  13.801  2.0755  2.2633 -2.1488
   9723SM   H9G13173   3.178   7.977  13.658 -0.4393  2.2235 -0.5915
   9723SM  C10F13174   3.126   7.834  13.813  0.1269 -0.5753  0.5397
   9723SM  H10F13175   3.230   7.848  13.850 -0.5332  1.9414  1.6726
   9723SM  H10G13176   3.116   7.737  13.760 -0.0202 -1.0100  1.3470
   9723SM  C11F13177   3.034   7.820  13.934 -0.3562 -0.1127 -0.8451
   9723SM  H11F13178   2.939   7.774  13.898 -1.5025  1.3669  0.1983
   9723SM  H11G13179   3.006   7.924  13.961  0.8004  0.8079 -2.8926
   9723SM  C12F13180   3.087   7.741  14.053 -0.4281 -0.8233 -0.2969
   9723SM  H12F13181   3.168   7.676  14.014 -0.0388 -0.5806  0.0831
   9723SM  H12G13182   3.008   7.687  14.110 -2.0112  1.6362  0.0224
   9723SM  C13F13183   3.145   7.827  14.175  0.1794 -0.1250 -0.0947
   9723SM  H13F13184   3.065   7.890  14.218 -1.5043 -1.1222 -1.6425
   9723SM  H13G13185   3.222   7.896  14.136 -1.0324  0.8126 -0.9001
   9723SM  C14F13186   3.199   7.735  14.284  0.4332  0.3534  0.2277
   9723SM  H14F13187   3.288   7.690  14.234 -0.2966 -1.0559  0.1269
   9723SM  H14G13188   3.127   7.653  14.306  0.8334 -0.2822 -0.7815
   9723SM  C15F13189   3.244   7.809  14.410  0.1184 -1.1725 -0.8277
   9723SM  H15F13190   3.282   7.738  14.486  1.2302 -1.0513 -1.2456
   9723SM  H15G13191   3.166   7.874  14.454  1.8979  0.9306 -0.6028
   9723SM  C16F13192   3.359   7.917  14.396 -0.0768  0.0689  0.5881
   9723SM  H16F13193   3.348   7.979  14.304  0.4906 -0.8418 -0.1074
   9723SM  H16G13194   3.454   7.860  14.386  0.4808  1.2310 -1.4510
   9723SM  C17F13195   3.380   8.005  14.528 -0.0667  0.1175 -0.2232
   9723SM  H17F13196   3.286   7.991  14.587  0.8425 -0.4020  1.1408
   9723SM  H17G13197   3.389   8.112  14.501  0.0761 -0.1175 -1.1600
   9723SM  C18F13198   3.494   7.971  14.615 -0.0868  0.6024 -0.5399
   9723SM  H18F13199   3.597   7.980  14.576 -0.4623 -1.1224 -2.0708
   9723SM  H18G13200   3.482   7.868  14.655  1.5460  0.9736  1.0499
   9723SM  C19F13201   3.486   8.064  14.743 -0.0588  0.0662  0.1008
   9723SM  H19F13202   3.381   8.067  14.779 -1.0461  0.4835 -2.5815
   9723SM  H19G13203   3.500   8.166  14.701 -2.0800 -0.1705 -1.3435
   9723SM  C20F13204   3.580   8.037  14.855 -0.4155 -0.1815  0.3986
   9723SM  H20F13205   3.684   8.058  14.825 -0.3942 -0.6231  0.1486
   9723SM  H20G13206   3.585   7.926  14.866  0.7558 -0.1419  0.3166
   9723SM  C21F13207   3.542   8.102  14.991 -0.3514 -0.2162 -0.4369
   9723SM  H21F13208   3.443   8.147  14.971 -1.0117 -0.0520  2.6908
   9723SM  H21G13209   3.610   8.187  15.013  1.0282 -1.3525 -0.1357
   9723SM  C22F13210   3.534   8.006  15.111 -0.1008 -0.3398  0.1222
   9723SM  H22F13211   3.518   7.904  15.068 -3.0436  0.5675 -1.2033
   9723SM  H22G13212   3.448   8.027  15.177 -1.0078 -0.1528 -1.0726
   9723SM  C23F13213   3.660   8.009  15.195  0.5573 -0.1621 -0.3861
   9723SM  H23F13214   3.751   7.989  15.136  1.9103 -1.0417  1.8542
   9723SM  H23G13215   3.644   7.930  15.272 -0.5173  0.6931  0.3115
   9723SM  H23H13216   3.670   8.102  15.256 -0.5293 -0.7177  0.6929
   9823SM     N13217   6.263   7.386  12.215  0.0953 -0.0952 -0.3212
   9823SM   C1513218   6.342   7.456  12.107  0.1106  0.4922  0.6387
   9823SM  H15A13219   6.421   7.522  12.139 -0.8305  1.4212  1.0800
   9823SM  H15B13220   6.274   7.531  12.069  1.2871  0.8109 -0.9796
   9823SM  H15C13221   6.384   7.390  12.032  1.6287  1.0164  0.9960
   9823SM   C1413222   6.146   7.315  12.143 -0.4583  0.2137 -1.0283
   9823SM  H14A13223   6.084   7.270  12.220  1.6337 -0.3130  0.4324
   9823SM  H14B13224   6.181   7.242  12.072  0.4982 -0.6576  0.3057
   9823SM  H14C13225   6.091   7.385  12.083 -0.2381  0.1425 -1.3125
   9823SM   C1313226   6.347   7.279  12.267 -0.3856 -0.0063  0.2720
   9823SM  H13A13227   6.354   7.206  12.188 -0.6051 -0.2539  0.4822
   9823SM  H13B13228   6.299   7.223  12.345 -0.0526 -1.9360 -0.8465
   9823SM  H13C13229   6.447   7.310  12.293  0.2050 -1.2195 -0.4982
   9823SM   C1213230   6.227   7.483  12.326  0.4514  0.1917  0.5398
   9823SM  H12A13231   6.153   7.555  12.293 -0.5403 -0.9293  0.2494
   9823SM  H12B13232   6.307   7.544  12.365  0.3686  0.5446  0.1745
   9823SM   C1113233   6.167   7.406  12.449  0.6697  0.1328 -0.6085
   9823SM  H11A13234   6.154   7.483  12.527 -0.1220  0.4812 -1.0737
   9823SM  H11B13235   6.253   7.344  12.484 -0.9227 -1.4810  0.5844
   9823SM     P13236   5.906   7.389  12.453  0.0923 -0.2855 -0.4313
   9823SM   O1313237   5.920   7.535  12.475 -0.0057 -0.2070 -0.0605
   9823SM   O1413238   5.810   7.340  12.351  0.0320  0.1077 -0.5769
   9823SM   O1113239   5.857   7.335  12.590  0.2208 -0.0423 -0.1683
   9823SM   O1213240   6.050   7.324  12.441  0.1157  0.3031 -0.6246
   9823SM   C1S13241   5.939   7.340  12.708  0.0680  0.1874  0.4878
   9823SM   H1S13242   5.959   7.446  12.732 -1.6672  0.9597 -1.2640
   9823SM   H1T13243   6.041   7.305  12.678 -0.1523 -0.7181  0.7639
   9823SM    NF13244   5.971   7.269  12.931  0.1619  0.1704 -0.0069
   9823SM   HNF13245   6.043   7.205  12.959 -0.3538 -0.5471 -0.2795
   9823SM   C2S13246   5.888   7.241  12.813 -0.8408 -0.3004 -0.2132
   9823SM   H2S13247   5.783   7.267  12.837 -0.2400  0.1550  2.2102
   9823SM   C3S13248   5.891   7.098  12.757 -0.1049 -0.2140  0.4402
   9823SM   H3S13249   5.998   7.069  12.746 -0.2283 -0.9027  0.9479
   9823SM    O313250   5.826   7.087  12.633 -0.0039  0.4288  0.2645
   9823SM   HO313251   5.811   7.179  12.608  0.5072  0.5340  0.3269
   9823SM   C4S13252   5.833   7.002  12.859 -0.5460  0.3790 -0.5841
   9823SM   H4S13253   5.742   7.040  12.909 -2.3422 -4.0052 -0.1221
   9823SM   C5S13254   5.882   6.880  12.892 -0.0421  0.4922 -0.4215
   9823SM   H5S13255   5.967   6.846  12.831  0.6857  0.4287  0.6132
   9823SM   C6S13256   5.826   6.781  12.995  0.3028  0.0310  0.3129
   9823SM   H6S13257   5.911   6.724  13.037  1.1986  0.6447 -0.6261
   9823SM   H6T13258   5.764   6.702  12.946  0.3830 -0.4103  0.9159
   9823SM   C7S13259   5.753   6.845  13.117  0.3983 -0.3952 -0.2267
   9823SM   H7S13260   5.657   6.888  13.082  0.1963 -0.3975  0.3080
   9823SM   H7T13261   5.801   6.936  13.158  0.9276 -0.3127 -1.0201
   9823SM   C8S13262   5.711   6.753  13.231  0.7174  0.1482 -1.0360
   9823SM   H8S13263   5.796   6.683  13.246  0.6687  0.6687  2.5498
   9823SM   H8T13264   5.624   6.692  13.198 -0.4422  1.1349  0.1146
   9823SM   C9S13265   5.692   6.810  13.366  0.3699  0.3546 -0.2445
   9823SM   H9S13266   5.596   6.866  13.364 -0.4511 -0.9735  0.5110
   9823SM   H9T13267   5.781   6.875  13.381  2.6011 -2.6121  0.2994
   9823SM  C10S13268   5.673   6.708  13.484  0.6061  0.0858  0.3740
   9823SM  H10S13269   5.750   6.631  13.461  1.1546  0.9013 -0.6709
   9823SM  H10T13270   5.577   6.654  13.473  0.4662  0.4605 -0.3485
   9823SM  C11S13271   5.674   6.776  13.619  0.1503 -0.7595 -0.1342
   9823SM  H11S13272   5.643   6.694  13.688 -0.9738 -1.4543 -1.4102
   9823SM  H11T13273   5.594   6.853  13.621  0.7318 -0.0934 -1.5795
   9823SM  C12S13274   5.804   6.838  13.645  0.3658 -0.0168 -0.5386
   9823SM  H12S13275   5.824   6.923  13.576 -0.9544  1.9849  1.4049
   9823SM  H12T13276   5.888   6.766  13.639 -0.3162 -1.2660  2.8061
   9823SM  C13S13277   5.805   6.884  13.790 -0.0855 -0.1522 -0.1955
   9823SM  H13S13278   5.779   6.792  13.848  1.8045 -2.3609 -2.6252
   9823SM  H13T13279   5.726   6.959  13.812  1.7964  1.7829  0.2863
   9823SM  C14S13280   5.942   6.935  13.836 -0.5144 -0.1806  0.0303
   9823SM  H14S13281   5.964   7.023  13.772  2.8435 -0.6858  0.2696
   9823SM  H14T13282   6.016   6.858  13.805 -0.7049 -0.6785  0.8027
   9823SM  C15S13283   5.952   6.979  13.985  0.6683  0.2116  0.3215
   9823SM  H15S13284   5.869   7.043  14.020  0.4613  0.3243 -0.3450
   9823SM  H15T13285   6.049   7.030  13.999  0.5465  0.7879 -0.8532
   9823SM  C16S13286   5.953   6.861  14.085 -0.6816 -0.1104  0.3548
   9823SM  H16S13287   6.030   6.797  14.038 -0.5473 -0.0928  0.5512
   9823SM  H16T13288   5.853   6.812  14.085  0.7697 -3.3620 -0.9697
   9823SM  C17S13289   5.968   6.893  14.232 -0.2036 -0.0637 -0.2011
   9823SM  H17S13290   6.052   6.964  14.245 -1.9304  1.9738  0.4160
   9823SM  H17T13291   5.987   6.807  14.299  2.1963  0.2576 -0.3827
   9823SM  C18S13292   5.851   6.978  14.285  0.0635  0.2162  0.6264
   9823SM  H18S13293   5.852   7.080  14.241  1.7724  0.2683  0.7089
   9823SM  H18T13294   5.860   6.990  14.395 -1.1869 -2.5518  1.1253
   9823SM  H18U13295   5.757   6.923  14.263 -0.4814  1.9800 -1.9025
   9823SM   C1F13296   5.940   7.372  13.001 -0.2297  0.3026 -0.7455
   9823SM    OF13297   5.844   7.440  12.966  0.0045  0.0307  0.3410
   9823SM   C2F13298   6.020   7.397  13.121  0.1437 -0.0341 -0.0952
   9823SM   H2F13299   6.124   7.359  13.113  0.3900  0.2533  1.4175
   9823SM   H2G13300   5.983   7.347  13.213  1.3864 -1.5490 -0.3739
   9823SM   C3F13301   6.037   7.548  13.147 -0.5467 -0.0714  0.1089
   9823SM   H3F13302   5.941   7.601  13.163 -0.7211 -1.0319  2.7216
   9823SM   H3G13303   6.074   7.592  13.052  0.2991  1.2710  1.0151
   9823SM   C4F13304   6.130   7.573  13.266 -0.1836 -0.7851  0.4454
   9823SM   H4F13305   6.220   7.508  13.260  1.8115  1.7498  1.0723
   9823SM   H4G13306   6.078   7.554  13.362 -1.4397 -1.5747 -0.3644
   9823SM   C5F13307   6.183   7.718  13.270  0.1618  0.2964  0.5171
   9823SM   H5F13308   6.095   7.785  13.256  0.8096  0.9297 -0.6601
   9823SM   H5G13309   6.241   7.744  13.179  1.9992 -1.4494  1.1086
   9823SM   C6F13310   6.261   7.757  13.394 -0.4255 -0.4683  0.7629
   9823SM   H6F13311   6.268   7.868  13.399  1.3002 -0.3458 -2.0094
   9823SM   H6G13312   6.362   7.714  13.379 -0.3355 -0.6214  1.7775
   9823SM   C7F13313   6.215   7.709  13.534 -0.6167  0.0058 -0.0134
   9823SM   H7F13314   6.189   7.601  13.531 -3.3278  0.4922  2.0651
   9823SM   H7G13315   6.116   7.750  13.564 -0.4232  1.5691 -1.3744
   9823SM   C8F13316   6.314   7.740  13.652 -0.0837  0.2142  0.7933
   9823SM   H8F13317   6.341   7.848  13.648  2.9308 -0.4123  1.9095
   9823SM   H8G13318   6.408   7.684  13.634  0.1238  0.5192  0.9072
   9823SM   C9F13319   6.251   7.703  13.791 -0.4152  0.5954 -0.1566
   9823SM   H9F13320   6.334   7.691  13.863 -1.2457 -2.0725  0.5049
   9823SM   H9G13321   6.200   7.604  13.778  2.5045 -1.5063  2.6992
   9823SM  C10F13322   6.155   7.810  13.848 -0.8193 -0.7476  0.0118
   9823SM  H10F13323   6.065   7.824  13.784  1.1991  1.2401 -2.6574
   9823SM  H10G13324   6.212   7.905  13.855  0.6372 -1.6763  1.5447
   9823SM  C11F13325   6.121   7.769  13.995 -0.3292  0.1010  0.6218
   9823SM  H11F13326   6.095   7.661  14.005  1.4197 -0.3505  0.7715
   9823SM  H11G13327   6.024   7.817  14.021 -2.3594 -3.0846 -0.5207
   9823SM  C12F13328   6.235   7.802  14.102 -0.1543 -1.5393  0.1839
   9823SM  H12F13329   6.252   7.911  14.097 -1.2983 -1.3106  0.7594
   9823SM  H12G13330   6.327   7.741  14.095  1.3500  0.7498 -0.8043
   9823SM  C13F13331   6.180   7.782  14.243  0.5460  0.5537 -0.8351
   9823SM  H13F13332   6.128   7.684  14.248  0.7506  0.4028 -1.5422
   9823SM  H13G13333   6.095   7.850  14.265 -0.6497 -0.2103 -2.8369
   9823SM  C14F13334   6.285   7.797  14.347  0.3947  0.4284 -0.2462
   9823SM  H14F13335   6.376   7.735  14.327 -0.9310 -1.1407 -1.6823
   9823SM  H14G13336   6.233   7.775  14.442 -1.3320  1.4310 -0.9216
   9823SM  C15F13337   6.332   7.943  14.359 -0.6572 -0.3275  0.4625
   9823SM  H15F13338   6.238   8.002  14.367 -0.2356  0.6908 -1.4485
   9823SM  H15G13339   6.381   7.974  14.264  0.3062 -1.0668  0.7058
   9823SM  C16F13340   6.408   7.962  14.487 -0.3136 -0.0176  0.0826
   9823SM  H16F13341   6.504   7.912  14.462 -1.2399 -0.9658 -1.7061
   9823SM  H16G13342   6.359   7.909  14.571 -0.6644  0.1760  0.0028
   9823SM  C17F13343   6.443   8.108  14.514  0.3662 -0.2385  0.6173
   9823SM  H17F13344   6.344   8.156  14.531  1.4467  1.8732  1.4012
   9823SM  H17G13345   6.482   8.156  14.421  0.6945  1.7317  1.7218
   9823SM  C18F13346   6.526   8.112  14.638  0.0657 -0.3251 -0.1310
   9823SM  H18F13347   6.613   8.048  14.610  0.7603  0.4626  0.1752
   9823SM  H18G13348   6.469   8.076  14.726  0.5701  2.5222  1.4748
   9823SM  C19F13349   6.598   8.250  14.658  0.3882  0.0091  0.5556
   9823SM  H19F13350   6.528   8.332  14.683  0.0341 -0.0420 -0.2456
   9823SM  H19G13351   6.655   8.283  14.568  2.1241  2.2802  2.3636
   9823SM  C20F13352   6.700   8.248  14.774  0.0634 -0.3926 -0.1232
   9823SM  H20F13353   6.758   8.342  14.765 -1.9851  0.7797 -2.2422
   9823SM  H20G13354   6.770   8.167  14.745  1.0173  0.7131 -0.9982
   9823SM  C21F13355   6.648   8.239  14.915  0.2047 -0.1475 -0.1125
   9823SM  H21F13356   6.722   8.292  14.978 -0.3982  1.7071 -0.9051
   9823SM  H21G13357   6.642   8.130  14.938 -1.9988 -0.7700 -2.9711
   9823SM  C22F13358   6.507   8.298  14.942  0.1787 -0.2119  0.2504
   9823SM  H22F13359   6.447   8.243  14.867 -0.3478  1.8172 -0.8671
   9823SM  H22G13360   6.515   8.404  14.910 -0.0446 -0.3826 -0.3925
   9823SM  C23F13361   6.456   8.272  15.087 -0.5014  0.1574  0.0832
   9823SM  H23F13362   6.497   8.348  15.157 -0.1065  1.9436 -1.9761
   9823SM  H23G13363   6.486   8.168  15.112  0.3306  0.4471  0.3129
   9823SM  H23H13364   6.346   8.277  15.075 -0.5683 -1.6452 -0.3684
   9923SM     N13365   7.127   7.188  12.448 -0.6946  0.6229  0.2268
   9923SM   C1513366   7.242   7.257  12.519  0.0159  0.3120  0.2540
   9923SM  H15A13367   7.212   7.356  12.552 -0.7941  0.6137 -1.2631
   9923SM  H15B13368   7.323   7.274  12.450 -0.3917  0.1667 -0.2668
   9923SM  H15C13369   7.280   7.197  12.599  1.4544  0.4601 -0.2960
   9923SM   C1413370   7.165   7.047  12.423 -0.3501  0.2174 -0.8800
   9923SM  H14A13371   7.189   6.999  12.517  0.2321  3.2387  0.6363
   9923SM  H14B13372   7.255   7.040  12.364  0.7806 -1.1190  0.8851
   9923SM  H14C13373   7.082   6.990  12.384 -1.8562  0.2469  1.9737
   9923SM   C1313374   7.017   7.173  12.549 -0.9322 -0.1228 -0.0617
   9923SM  H13A13375   6.927   7.143  12.498 -0.3898 -1.1811 -0.4288
   9923SM  H13B13376   7.008   7.271  12.593 -0.4320  0.0744 -0.3919
   9923SM  H13C13377   7.038   7.101  12.627 -0.7034  1.1370  1.0718
   9923SM   C1213378   7.092   7.250  12.319  0.7779  0.2207  0.3431
   9923SM  H12A13379   7.034   7.178  12.264 -1.0548  1.6090  0.3549
   9923SM  H12B13380   7.184   7.273  12.268  0.3010 -1.1769 -1.2350
   9923SM   C1113381   7.014   7.383  12.340 -0.0644 -0.1917 -1.0935
   9923SM  H11A13382   6.920   7.356  12.392  0.6197 -0.8914 -0.1850
   9923SM  H11B13383   6.987   7.432  12.245 -3.0779  0.5466  0.0360
   9923SM     P13384   7.035   7.578  12.525 -0.4173  0.1720  0.2791
   9923SM   O1313385   7.159   7.651  12.576 -0.1394  0.0150  0.3183
   9923SM   O1413386   6.919   7.655  12.481  0.5289  0.5073  0.4189
   9923SM   O1113387   6.976   7.478  12.629  0.0123  0.0470 -0.3170
   9923SM   O1213388   7.090   7.479  12.409  0.3334 -0.0053 -0.5167
   9923SM   C1S13389   7.030   7.462  12.766 -0.0968  0.1642  0.4513
   9923SM   H1S13390   7.099   7.547  12.786 -0.4936  0.7465 -0.5866
   9923SM   H1T13391   7.088   7.371  12.790  0.5639  0.3616 -0.3314
   9923SM    NF13392   6.987   7.444  13.002  0.4999 -0.6930  0.8138
   9923SM   HNF13393   6.972   7.349  13.029 -0.3077 -0.4442  1.2749
   9923SM   C2S13394   6.922   7.482  12.876 -0.1122 -0.1657  0.0103
   9923SM   H2S13395   6.895   7.589  12.875  2.1735  0.4765 -1.6109
   9923SM   C3S13396   6.790   7.407  12.843  0.3141  0.6045  0.0102
   9923SM   H3S13397   6.814   7.306  12.805 -0.1514  0.8773 -1.0298
   9923SM    O313398   6.717   7.457  12.734  0.3808 -0.1942  0.2132
   9923SM   HO313399   6.772   7.526  12.697  0.4857  1.4847  3.2487
   9923SM   C4S13400   6.708   7.402  12.968 -0.8612 -0.4927  0.3960
   9923SM   H4S13401   6.746   7.326  13.038 -3.8398 -1.4336  1.1436
   9923SM   C5S13402   6.588   7.460  12.996 -0.5596  0.3093  0.2944
   9923SM   H5S13403   6.539   7.521  12.919  1.6686  2.7198  0.6279
   9923SM   C6S13404   6.508   7.452  13.124  0.5492  0.1951  0.1503
   9923SM   H6S13405   6.431   7.373  13.116  0.5967 -0.0044  1.4752
   9923SM   H6T13406   6.448   7.542  13.149  0.2336 -0.3905  1.5590
   9923SM   C7S13407   6.581   7.427  13.256 -0.1930 -0.2182  0.3685
   9923SM   H7S13408   6.661   7.503  13.269  0.5621 -0.9343  0.0239
   9923SM   H7T13409   6.633   7.329  13.246  0.4111  0.1369 -0.0286
   9923SM   C8S13410   6.478   7.422  13.372  0.4051 -0.0156  0.0636
   9923SM   H8S13411   6.408   7.338  13.351 -0.1208  0.4531 -0.0753
   9923SM   H8T13412   6.425   7.520  13.370  1.3158  0.5139  0.6982
   9923SM   C9S13413   6.548   7.401  13.510 -0.5747  0.0590 -0.5939
   9923SM   H9S13414   6.619   7.486  13.512 -1.1911  0.5675  0.5020
   9923SM   H9T13415   6.617   7.314  13.504 -1.2890 -0.6017  0.4581
   9923SM  C10S13416   6.450   7.372  13.624 -0.4043  0.4639 -0.4308
   9923SM  H10S13417   6.388   7.281  13.609 -0.7681  1.0160 -2.7241
   9923SM  H10T13418   6.381   7.459  13.619 -0.6511  0.3948  1.4096
   9923SM  C11S13419   6.523   7.357  13.764  0.4117  0.2414  0.5191
   9923SM  H11S13420   6.572   7.452  13.794  1.5142  1.1276 -3.4129
   9923SM  H11T13421   6.590   7.270  13.749 -0.9522 -0.6385 -0.9117
   9923SM  C12S13422   6.412   7.331  13.870  0.0727 -0.4943  0.6044
   9923SM  H12S13423   6.351   7.242  13.845  1.4066 -0.7744 -2.0736
   9923SM  H12T13424   6.351   7.424  13.875  0.0744 -0.4716  0.2576
   9923SM  C13S13425   6.472   7.318  14.008  0.1792 -0.3318  0.0439
   9923SM  H13S13426   6.537   7.407  14.018  0.6597 -0.1381 -3.3881
   9923SM  H13T13427   6.541   7.231  14.018  0.1178 -0.4934 -0.8176
   9923SM  C14S13428   6.369   7.304  14.113  0.3776  0.2438 -0.2850
   9923SM  H14S13429   6.295   7.229  14.077 -1.5122  1.1720  1.4389
   9923SM  H14T13430   6.309   7.396  14.127  2.0357  1.4726 -0.9662
   9923SM  C15S13431   6.443   7.271  14.238  0.3274  0.1693  0.2749
   9923SM  H15S13432   6.514   7.352  14.265  0.6255 -0.1740  0.5338
   9923SM  H15T13433   6.494   7.175  14.214 -2.1193 -0.7145 -1.8847
   9923SM  C16S13434   6.348   7.262  14.360  0.5519 -0.0917  0.5968
   9923SM  H16S13435   6.401   7.193  14.429  1.7754  1.5274  1.3503
   9923SM  H16T13436   6.251   7.219  14.327  0.8992  0.2429 -0.9367
   9923SM  C17S13437   6.321   7.402  14.409  0.5359 -0.5208 -0.9022
   9923SM  H17S13438   6.281   7.462  14.325  1.9036 -0.9779 -1.9216
   9923SM  H17T13439   6.410   7.442  14.463 -1.0102 -0.2651  1.6410
   9923SM  C18S13440   6.211   7.389  14.520  0.0812 -0.2357  0.2688
   9923SM  H18S13441   6.250   7.331  14.607  2.3082  0.8199  0.0513
   9923SM  H18T13442   6.142   7.315  14.474  0.1950 -0.3531  0.2859
   9923SM  H18U13443   6.169   7.486  14.553  1.9547 -0.1088  2.5684
   9923SM   C1F13444   7.088   7.505  13.059  0.0597  0.1826  0.5571
   9923SM    OF13445   7.126   7.615  13.021 -0.1813 -0.0060  0.1642
   9923SM   C2F13446   7.151   7.430  13.165  0.6370  0.4169  0.3336
   9923SM   H2F13447   7.260   7.450  13.151  0.4397  1.4471  0.2008
   9923SM   H2G13448   7.138   7.320  13.158  3.9286 -0.1399  0.9704
   9923SM   C3F13449   7.108   7.482  13.299 -0.3469 -0.2629 -0.8018
   9923SM   H3F13450   7.118   7.591  13.313  0.2106 -0.1249 -2.1564
   9923SM   H3G13451   7.176   7.439  13.376  1.7980  2.5471 -0.9777
   9923SM   C4F13452   6.959   7.451  13.334 -0.2984 -0.5538  0.2703
   9923SM   H4F13453   6.922   7.364  13.274  1.2536 -2.1173  1.4587
   9923SM   H4G13454   6.912   7.545  13.299 -0.4736 -0.4265  0.8459
   9923SM   C5F13455   6.932   7.424  13.479 -0.9346  0.1237 -0.5958
   9923SM   H5F13456   6.825   7.449  13.496 -0.8536  0.2678 -0.2970
   9923SM   H5G13457   6.995   7.494  13.537  0.4464 -1.2622 -0.3655
   9923SM   C6F13458   6.966   7.281  13.522 -0.2054  0.3460 -0.2747
   9923SM   H6F13459   7.074   7.269  13.499  0.0805  1.0446  0.6252
   9923SM   H6G13460   6.904   7.215  13.457  0.9147 -2.4391  1.2796
   9923SM   C7F13461   6.929   7.263  13.666  0.9297 -0.0941  0.5291
   9923SM   H7F13462   6.826   7.223  13.672  1.7469 -2.1342  2.7230
   9923SM   H7G13463   6.930   7.359  13.721  0.3541 -0.3819  1.0558
   9923SM   C8F13464   7.022   7.182  13.752 -0.4806 -0.6352  0.3651
   9923SM   H8F13465   7.126   7.222  13.749 -1.2839  1.6580  0.4455
   9923SM   H8G13466   7.021   7.076  13.719 -1.9148  0.1918 -2.5993
   9923SM   C9F13467   6.958   7.188  13.893  0.3126 -0.6914  0.6236
   9923SM   H9F13468   6.854   7.149  13.895  0.7896 -1.9994  1.0179
   9923SM   H9G13469   6.951   7.292  13.931 -1.2137 -1.4075  2.4318
   9923SM  C10F13470   7.037   7.101  13.996 -0.3704  0.7148 -0.4803
   9923SM  H10F13471   7.139   7.140  14.017 -0.5990  1.2276 -0.3241
   9923SM  H10G13472   7.053   7.003  13.945 -0.7487  0.7691 -0.7068
   9923SM  C11F13473   6.972   7.080  14.134 -0.4608  0.1431  1.0712
   9923SM  H11F13474   6.869   7.047  14.110 -1.1999  3.0114 -0.0702
   9923SM  H11G13475   6.938   7.174  14.182  0.9042  0.4724  1.4296
   9923SM  C12F13476   7.053   6.999  14.234 -0.1318 -0.1120 -0.0160
   9923SM  H12F13477   7.149   7.052  14.252 -0.0508 -0.7456  1.5189
   9923SM  H12G13478   7.087   6.901  14.195  1.1808 -0.2890  1.4695
   9923SM  C13F13479   6.975   6.960  14.359  0.1125 -0.3050  0.1467
   9923SM  H13F13480   6.897   6.888  14.326  1.2257 -1.2684 -0.4469
   9923SM  H13G13481   6.924   7.052  14.396 -1.3273 -1.6166  1.5988
   9923SM  C14F13482   7.047   6.890  14.472 -0.4328  0.0097  0.7418
   9923SM  H14F13483   7.090   6.965  14.542  2.8272 -0.6970 -0.3367
   9923SM  H14G13484   7.137   6.842  14.426 -0.9944 -1.1144  0.7981
   9923SM  C15F13485   6.965   6.783  14.541  0.4836  0.7206  0.0425
   9923SM  H15F13486   6.933   6.707  14.466 -0.0899  0.1431  0.8535
   9923SM  H15G13487   6.874   6.829  14.584 -0.3282  0.1282 -0.9996
   9923SM  C16F13488   7.060   6.708  14.632  0.2536  0.0604 -0.2065
   9923SM  H16F13489   7.155   6.689  14.579 -0.4614 -0.9675 -1.1707
   9923SM  H16G13490   7.022   6.609  14.665 -0.9181  1.0849  1.7353
   9923SM  C17F13491   7.088   6.787  14.766 -0.1033  0.3150 -0.8724
   9923SM  H17F13492   6.996   6.838  14.799 -0.5183 -1.1302  0.3083
   9923SM  H17G13493   7.172   6.858  14.748  1.8190 -1.3564  0.9577
   9923SM  C18F13494   7.146   6.706  14.889 -0.5052  0.2689  0.4716
   9923SM  H18F13495   7.181   6.779  14.964  5.5265  1.4125 -2.8250
   9923SM  H18G13496   7.240   6.655  14.861  0.9402  2.3448  1.3224
   9923SM  C19F13497   7.050   6.603  14.943 -0.3956  0.1395  0.0530
   9923SM  H19F13498   7.055   6.533  14.857  2.7671  0.9826 -0.5702
   9923SM  H19G13499   6.947   6.637  14.967 -0.0932 -0.2541  2.0351
   9923SM  C20F13500   7.095   6.528  15.062  0.5776  0.0047  0.5224
   9923SM  H20F13501   7.160   6.591  15.127  0.1148 -1.2551  2.3062
   9923SM  H20G13502   7.162   6.448  15.023  0.3045 -0.9626  1.9597
   9923SM  C21F13503   6.989   6.464  15.148  0.0190  0.6513 -0.6601
   9923SM  H21F13504   6.916   6.405  15.088  0.0536 -0.5947  0.4649
   9923SM  H21G13505   6.938   6.553  15.190  0.3200  1.8336 -2.7168
   9923SM  C22F13506   7.035   6.375  15.268 -0.1634  1.3056  0.1010
   9923SM  H22F13507   7.108   6.428  15.333  0.0146  0.2809  0.7615
   9923SM  H22G13508   7.100   6.300  15.219 -0.6097  0.7225  0.3846
   9923SM  C23F13509   6.919   6.316  15.346  0.3621 -0.3488  1.5139
   9923SM  H23F13510   6.960   6.241  15.416  0.4187 -0.5624  1.2554
   9923SM  H23G13511   6.850   6.267  15.274  1.7577  1.8275 -1.5317
   9923SM  H23H13512   6.863   6.393  15.402 -2.5514 -0.9642 -0.3125
  10023SM     N13513   6.457   0.783  12.411  0.3543 -0.0081  0.1168
  10023SM   C1513514   6.364   0.664  12.371 -0.0265  0.0266  0.2135
  10023SM  H15A13515   6.313   0.618  12.455 -1.1482 -0.8956 -0.9445
  10023SM  H15B13516   6.420   0.593  12.313  0.8382 -2.2580  3.5511
  10023SM  H15C13517   6.293   0.699  12.298  1.0261  0.5865 -0.5718
  10023SM   C1413518   6.526   0.835  12.286 -0.0203 -0.6140 -0.0257
  10023SM  H14A13519   6.460   0.872  12.210  1.2849 -2.3100 -2.0832
  10023SM  H14B13520   6.590   0.767  12.231 -2.6685 -1.3167 -2.4872
  10023SM  H14C13521   6.591   0.910  12.328 -0.3986 -0.6019  0.5585
  10023SM   C1313522   6.356   0.883  12.466 -0.0204  0.0141  0.0568
  10023SM  H13A13523   6.284   0.914  12.393  0.0802 -0.2109 -0.1384
  10023SM  H13B13524   6.411   0.972  12.496 -0.7171  0.6314 -0.4649
  10023SM  H13C13525   6.309   0.839  12.553  1.4852  0.1340  0.9842
  10023SM   C1213526   6.553   0.748  12.519 -0.3247  0.0698  0.3103
  10023SM  H12A13527   6.498   0.712  12.605  0.2310 -1.8704 -0.0940
  10023SM  H12B13528   6.603   0.838  12.552 -1.5059  1.3796 -1.3743
  10023SM   C1113529   6.666   0.640  12.507  0.4918  0.0996 -0.4826
  10023SM  H11A13530   6.729   0.624  12.598  1.0393  0.7700 -0.7374
  10023SM  H11B13531   6.738   0.693  12.442  1.9706  1.3690  2.0277
  10023SM     P13532   6.568   0.405  12.540 -0.0075  0.1911 -0.2379
  10023SM   O1313533   6.519   0.464  12.670 -0.4874 -0.3816  0.1710
  10023SM   O1413534   6.460   0.335  12.465  0.0227  0.0278 -0.2235
  10023SM   O1113535   6.679   0.308  12.564 -0.2910  0.3484  0.1098
  10023SM   O1213536   6.628   0.518  12.452 -0.5413 -0.2734 -0.1168
  10023SM   C1S13537   6.787   0.328  12.658  0.1611  0.1322  0.9862
  10023SM   H1S13538   6.823   0.433  12.647 -2.5925  1.1701  1.1247
  10023SM   H1T13539   6.874   0.261  12.639  1.6648  0.8406  4.4464
  10023SM    NF13540   6.876   0.366  12.891 -0.1927  0.3786 -0.2274
  10023SM   HNF13541   6.933   0.299  12.939 -2.4727 -0.1345  1.9688
  10023SM   C2S13542   6.757   0.322  12.814 -0.7378 -0.3852  0.5498
  10023SM   H2S13543   6.667   0.384  12.836 -2.0237 -2.3813  1.2222
  10023SM   C3S13544   6.703   0.183  12.849 -0.0958  0.0553  0.1102
  10023SM   H3S13545   6.772   0.097  12.842 -1.2701 -0.7790 -2.0862
  10023SM    O313546   6.583   0.147  12.780 -0.0159 -0.3520 -0.1105
  10023SM   HO313547   6.587   0.192  12.696 -1.0417 -0.9253 -0.4955
  10023SM   C4S13548   6.682   0.192  13.000  0.2673  0.4666 -0.0114
  10023SM   H4S13549   6.771   0.159  13.055  0.3500 -0.9083 -0.8984
  10023SM   C5S13550   6.584   0.256  13.064 -0.3020  0.5030  0.2648
  10023SM   H5S13551   6.506   0.294  12.996 -2.2434 -0.4239  1.8564
  10023SM   C6S13552   6.563   0.270  13.213  0.8450  0.1127 -0.4602
  10023SM   H6S13553   6.463   0.230  13.242  0.4190  1.2294 -0.3468
  10023SM   H6T13554   6.557   0.379  13.235  0.2053 -0.3055  1.7082
  10023SM   C7S13555   6.670   0.195  13.299 -0.1536  0.1340  0.5243
  10023SM   H7S13556   6.769   0.243  13.285 -0.2753 -0.2657 -2.2333
  10023SM   H7T13557   6.692   0.097  13.252  0.4167  1.5457 -2.4238
  10023SM   C8S13558   6.634   0.185  13.447  0.6251 -0.1014 -0.7195
  10023SM   H8S13559   6.531   0.145  13.456 -0.1335  1.8321 -0.4044
  10023SM   H8T13560   6.634   0.288  13.487  1.1575 -0.3544 -0.0289
  10023SM   C9S13561   6.725   0.097  13.536 -0.5660 -0.0750  0.6470
  10023SM   H9S13562   6.826   0.112  13.492 -1.3880  0.4062 -1.1706
  10023SM   H9T13563   6.702  -0.012  13.528 -2.9579  0.2845  1.8484
  10023SM  C10S13564   6.713   0.141  13.683  0.0013  0.8435  0.1998
  10023SM  H10S13565   6.605   0.161  13.699 -0.1927  1.9086 -2.0127
  10023SM  H10T13566   6.764   0.239  13.696  1.0008  0.3950 -0.2024
  10023SM  C11S13567   6.758   0.031  13.780 -0.4198 -0.6011  0.3150
  10023SM  H11S13568   6.867   0.045  13.797  0.0582 -2.2175 -1.1155
  10023SM  H11T13569   6.746  -0.072  13.741 -0.9793 -0.2287 -0.5341
  10023SM  C12S13570   6.685   0.051  13.915 -0.2052 -0.1188  0.7589
  10023SM  H12S13571   6.584   0.006  13.914 -0.5379  0.5945 -1.3391
  10023SM  H12T13572   6.664   0.156  13.945  0.3592  0.2103  0.0252
  10023SM  C13S13573   6.776  -0.009  14.026 -0.1408  0.3322  0.5128
  10023SM  H13S13574   6.870   0.049  14.033  0.1606 -0.3210  3.8171
  10023SM  H13T13575   6.795  -0.114  13.996 -1.3948  0.6058 -1.4033
  10023SM  C14S13576   6.706  -0.017  14.163 -0.7182 -1.0073 -0.1837
  10023SM  H14S13577   6.605  -0.057  14.139  0.2341 -2.2729 -2.4347
  10023SM  H14T13578   6.706   0.087  14.203  0.2661 -0.2904 -1.9019
  10023SM  C15S13579   6.782  -0.105  14.260  0.0482 -0.3789  0.1394
  10023SM  H15S13580   6.882  -0.060  14.277  2.4446 -4.5698 -1.2886
  10023SM  H15T13581   6.798  -0.210  14.226 -0.8664 -0.6191  0.4477
  10023SM  C16S13582   6.717  -0.105  14.398 -0.5798  0.1644 -0.5100
  10023SM  H16S13583   6.624  -0.165  14.392 -0.8408  0.0033  3.1527
  10023SM  H16T13584   6.691  -0.002  14.431 -1.7003 -0.0801 -0.5939
  10023SM  C17S13585   6.799  -0.179  14.503  0.0997  0.0817 -0.7898
  10023SM  H17S13586   6.743  -0.192  14.598  1.8256 -1.9058  0.0431
  10023SM  H17T13587   6.885  -0.114  14.529 -0.7981  1.7429 -1.8141
  10023SM  C18S13588   6.854  -0.316  14.469 -0.6972  0.1101  0.8622
  10023SM  H18S13589   6.775  -0.386  14.434 -0.5699  0.8773 -1.1014
  10023SM  H18T13590   6.895  -0.370  14.556 -1.4830 -1.6373  0.1854
  10023SM  H18U13591   6.935  -0.321  14.392 -1.1440  1.2604  0.2829
  10023SM   C1F13592   6.913   0.493  12.895  0.0149 -0.0541 -0.3532
  10023SM    OF13593   6.849   0.579  12.835  0.6781 -0.3921  0.4077
  10023SM   C2F13594   7.038   0.523  12.970 -0.3937 -0.4836  0.2347
  10023SM   H2F13595   7.125   0.541  12.904  1.9285  1.2734  3.4964
  10023SM   H2G13596   7.064   0.438  13.038 -2.3445 -2.3670 -1.2189
  10023SM   C3F13597   7.012   0.644  13.064  0.7483  0.0368  0.1944
  10023SM   H3F13598   6.991   0.727  12.994 -0.5409  0.3368  0.9002
  10023SM   H3G13599   7.109   0.667  13.113  0.0131  0.1928  1.6155
  10023SM   C4F13600   6.904   0.626  13.177 -0.1517 -0.3730  0.4380
  10023SM   H4F13601   6.805   0.611  13.131 -0.7897 -2.0179  2.2317
  10023SM   H4G13602   6.901   0.724  13.231 -1.0477  1.3829 -2.5946
  10023SM   C5F13603   6.923   0.510  13.273  0.0558  0.6825  0.5366
  10023SM   H5F13604   7.034   0.508  13.282  0.0135 -0.7272  0.8863
  10023SM   H5G13605   6.892   0.409  13.240 -2.0676  1.5602 -0.3703
  10023SM   C6F13606   6.851   0.537  13.408  0.2851  0.7287 -1.0591
  10023SM   H6F13607   6.745   0.503  13.402 -0.6951  3.3619 -0.1885
  10023SM   H6G13608   6.849   0.645  13.433 -0.9695  0.5196 -0.1506
  10023SM   C7F13609   6.937   0.460  13.518 -0.7518 -0.2557 -0.1142
  10023SM   H7F13610   7.046   0.472  13.503 -1.1894  2.3326 -1.8343
  10023SM   H7G13611   6.916   0.351  13.517 -3.7761  0.2104  1.5821
  10023SM   C8F13612   6.899   0.502  13.665 -0.4611  0.0726 -0.4041
  10023SM   H8F13613   6.791   0.479  13.677 -0.3857 -0.9718 -1.5293
  10023SM   H8G13614   6.910   0.612  13.675 -0.5526  0.3053 -2.3966
  10023SM   C9F13615   6.989   0.434  13.762 -0.2281 -0.1879 -0.0750
  10023SM   H9F13616   7.085   0.491  13.763 -0.6857  0.6488 -1.1805
  10023SM   H9G13617   7.005   0.327  13.737 -2.4006 -0.3834 -0.8539
  10023SM  C10F13618   6.932   0.454  13.900  0.3075  0.2069 -0.6265
  10023SM  H10F13619   6.821   0.449  13.903  0.2300  1.0604 -1.5843
  10023SM  H10G13620   6.945   0.560  13.930  2.2557 -0.7409  2.3940
  10023SM  C11F13621   6.988   0.359  14.008  0.5765  0.6502  0.7134
  10023SM  H11F13622   7.094   0.382  14.029  1.5657 -2.9813  0.3915
  10023SM  H11G13623   6.990   0.256  13.966 -0.1777  1.1208 -0.5289
  10023SM  C12F13624   6.907   0.363  14.138  0.3787  0.0109  0.9516
  10023SM  H12F13625   6.800   0.342  14.116  1.0768 -3.5718  0.2831
  10023SM  H12G13626   6.914   0.466  14.178  0.6203 -0.1012  1.2069
  10023SM  C13F13627   6.955   0.272  14.246  0.2417 -0.4570  0.4621
  10023SM  H13F13628   7.064   0.288  14.254  0.3246 -1.2728  1.1406
  10023SM  H13G13629   6.947   0.164  14.220 -1.6947 -0.8592  2.3664
  10023SM  C14F13630   6.872   0.280  14.376  0.5788  0.4010 -0.2930
  10023SM  H14F13631   6.772   0.238  14.350  0.2402  2.5185 -2.9457
  10023SM  H14G13632   6.869   0.386  14.410  1.6580 -0.4046  2.5562
  10023SM  C15F13633   6.935   0.206  14.497 -0.3922 -0.2193  0.2568
  10023SM  H15F13634   7.036   0.252  14.506  0.0594 -1.3935  1.4273
  10023SM  H15G13635   6.958   0.104  14.461  0.3743 -0.1877  0.6329
  10023SM  C16F13636   6.865   0.211  14.627 -0.5652 -0.2407 -0.2371
  10023SM  H16F13637   6.759   0.189  14.600 -0.6263 -0.9009  0.4982
  10023SM  H16G13638   6.866   0.311  14.675 -0.7467 -0.8569  1.0938
  10023SM  C17F13639   6.917   0.107  14.734  1.0900 -0.8442  0.0269
  10023SM  H17F13640   7.023   0.133  14.754  0.7049  1.2184 -0.3505
  10023SM  H17G13641   6.916   0.007  14.685 -1.2207 -0.6433 -0.4328
  10023SM  C18F13642   6.817   0.089  14.854  0.4954 -0.5625  0.1993
  10023SM  H18F13643   6.719   0.052  14.819  0.0939 -0.3685  1.0941
  10023SM  H18G13644   6.790   0.180  14.912  1.0447  0.2051 -0.7135
  10023SM  C19F13645   6.866  -0.019  14.950 -0.4875  0.1232 -0.1512
  10023SM  H19F13646   6.967   0.018  14.979 -0.1130 -0.2294 -0.9625
  10023SM  H19G13647   6.885  -0.116  14.900 -2.6133 -0.5244  0.1901
  10023SM  C20F13648   6.769  -0.055  15.062 -0.4989 -0.3761 -0.0239
  10023SM  H20F13649   6.685  -0.116  15.025 -0.9628 -0.1498  0.6303
  10023SM  H20G13650   6.720   0.036  15.103  1.0254  0.5505 -0.1872
  10023SM  C21F13651   6.837  -0.126  15.179 -0.0368 -0.5541 -0.2832
  10023SM  H21F13652   6.915  -0.054  15.211 -1.8227  1.2203  0.3505
  10023SM  H21G13653   6.901  -0.209  15.144  3.2044  2.1494 -1.3060
  10023SM  C22F13654   6.739  -0.161  15.289  0.2636  0.0841  0.1506
  10023SM  H22F13655   6.652  -0.212  15.243  1.9431 -0.8083 -2.2536
  10023SM  H22G13656   6.698  -0.066  15.329 -2.9378 -0.4256 -1.6034
  10023SM  C23F13657   6.800  -0.238  15.406  0.2186 -0.0294 -0.3346
  10023SM  H23F13658   6.888  -0.177  15.434 -0.7916  1.4236 -0.2244
  10023SM  H23G13659   6.831  -0.341  15.376 -1.2969 -0.2399 -1.2882
  10023SM  H23H13660   6.725  -0.242  15.489 -0.3923 -1.0290 -0.9065
  101CHL1    C313661   3.207   4.749  16.671 -0.0119 -0.0653 -0.3303
  101CHL1    H313662   3.137   4.666  16.691 -0.2579  0.6048  1.8880
  101CHL1    O313663   3.239   4.800  16.804  0.1458 -0.0568  0.0250
  101CHL1   H3'13664   3.233   4.726  16.866  0.7504 -0.2423 -0.1236
  101CHL1    C413665   3.336   4.712  16.610 -0.3000  0.1075  0.0614
  101CHL1   H4A13666   3.409   4.788  16.647 -4.2354  2.9132  2.8319
  101CHL1   H4B13667   3.362   4.619  16.665 -2.4003 -0.8734 -0.5119
  101CHL1    C513668   3.331   4.682  16.459  0.3123 -0.1375 -0.5449
  101CHL1    C613669   3.385   4.569  16.414 -0.3313 -0.5515 -0.2179
  101CHL1    H613670   3.441   4.504  16.483 -1.5947 -0.2394  1.1384
  101CHL1    C713671   3.386   4.534  16.270 -0.7019  0.5030  0.5716
  101CHL1   H7A13672   3.486   4.493  16.243 -0.5495  0.5197  1.0986
  101CHL1   H7B13673   3.316   4.453  16.241  1.0246 -0.1954 -2.0844
  101CHL1    C813674   3.359   4.657  16.180 -0.3141  0.6300  0.1974
  101CHL1    H813675   3.446   4.725  16.188 -0.8055  1.3909 -0.7392
  101CHL1   C1413676   3.339   4.611  16.040  0.9436 -0.0510 -0.0872
  101CHL1   H1413677   3.251   4.544  16.034  0.8872  0.1014 -1.2573
  101CHL1   C1513678   3.447   4.527  15.976 -0.5284 -0.2270 -0.2822
  101CHL1  H15A13679   3.550   4.555  16.008 -0.8961 -0.2968  0.9985
  101CHL1  H15B13680   3.442   4.420  16.006  0.5721  0.1634  1.4240
  101CHL1   C1613681   3.438   4.545  15.821  0.4145 -0.3811 -0.2113
  101CHL1  H16A13682   3.536   4.583  15.784  0.7322 -0.4947  0.4809
  101CHL1  H16B13683   3.409   4.451  15.770  0.9421 -0.4908 -0.3162
  101CHL1   C1713684   3.322   4.655  15.809 -0.0626 -0.2540  0.1831
  101CHL1   H1713685   3.224   4.602  15.807 -0.8421  1.1377 -2.2710
  101CHL1   C1313686   3.314   4.731  15.941  0.6419  0.3855 -0.4994
  101CHL1   C1813687   3.432   4.826  15.948 -0.1452  0.1033 -0.7507
  101CHL1  H18A13688   3.425   4.905  15.871 -0.5985 -0.4811 -1.3228
  101CHL1  H18B13689   3.430   4.889  16.039 -2.7721  1.8578 -1.9012
  101CHL1  H18C13690   3.534   4.784  15.934  0.7100  1.2111  1.7373
  101CHL1   C1213691   3.180   4.793  15.982  0.6422 -0.7864 -0.1011
  101CHL1  H12A13692   3.165   4.886  15.923  0.7273  1.0034  2.5476
  101CHL1  H12B13693   3.100   4.718  15.966  1.2964 -1.7891  1.1201
  101CHL1   C1113694   3.175   4.832  16.129  0.7276  0.4551  0.7329
  101CHL1  H11A13695   3.245   4.917  16.138  1.3162 -0.1100  1.6734
  101CHL1  H11B13696   3.071   4.864  16.151  0.5196  0.0043  0.4320
  101CHL1    C913697   3.235   4.731  16.232  0.2918 -0.2820  0.0168
  101CHL1    H913698   3.156   4.655  16.249  1.3538 -1.3956  0.1024
  101CHL1   C1013699   3.258   4.790  16.375 -0.0698  0.5105 -0.8173
  101CHL1   C1913700   3.352   4.915  16.372 -0.1229 -0.5231  0.0852
  101CHL1  H19A13701   3.391   4.939  16.473 -1.3421 -1.9944  0.9406
  101CHL1  H19B13702   3.431   4.896  16.296  2.3390  0.0451  2.3546
  101CHL1  H19C13703   3.294   5.002  16.335  0.2368 -0.5567 -0.5689
  101CHL1    C113704   3.118   4.824  16.450  0.1276  0.1290  0.1010
  101CHL1   H1A13705   3.073   4.908  16.394  0.1579 -0.2216 -0.4587
  101CHL1   H1B13706   3.068   4.726  16.436  2.2470 -1.0076 -0.0690
  101CHL1    C213707   3.129   4.858  16.596  0.1771 -0.7221  0.0984
  101CHL1   H2A13708   3.032   4.873  16.648  0.3041 -0.5726  0.2980
  101CHL1   H2B13709   3.180   4.957  16.596 -0.0086 -0.6256  0.4742
  101CHL1   C2013710   3.327   4.726  15.670  0.2762 -0.3831  0.4807
  101CHL1   H2013711   3.422   4.782  15.679  0.5485 -1.0029  1.7478
  101CHL1   C2113712   3.203   4.812  15.648 -0.5370  0.0812  0.5311
  101CHL1  H21A13713   3.220   4.870  15.555  0.6081  0.3873  0.9210
  101CHL1  H21B13714   3.197   4.891  15.727 -2.3963  1.2944 -0.7405
  101CHL1  H21C13715   3.113   4.748  15.636  0.7182 -1.2596 -2.9381
  101CHL1   C2213716   3.342   4.638  15.549  0.9062 -0.0475 -0.2619
  101CHL1  H22A13717   3.429   4.570  15.559  0.2220 -1.0533 -0.9182
  101CHL1  H22B13718   3.257   4.565  15.550  1.6063 -0.8829 -0.5138
  101CHL1   C2313719   3.353   4.703  15.406  0.6615 -0.2375  0.1681
  101CHL1  H23A13720   3.335   4.629  15.325 -1.5166  0.9879 -0.5595
  101CHL1  H23B13721   3.276   4.781  15.384  0.8291  0.8988  3.1991
  101CHL1   C2413722   3.489   4.764  15.394 -0.0994  0.3977  0.3793
  101CHL1  H24A13723   3.501   4.840  15.474 -0.5457  1.4008 -0.4934
  101CHL1  H24B13724   3.551   4.677  15.424  2.8173  2.4580  0.7131
  101CHL1   C2513725   3.535   4.800  15.258 -0.7626  0.7420  0.3381
  101CHL1   H2513726   3.493   4.730  15.182  0.0395 -0.2123  0.7495
  101CHL1   C2613727   3.507   4.949  15.237 -0.2849  0.2259  0.0141
  101CHL1  H26A13728   3.556   5.004  15.320  0.8130 -0.0106 -0.4704
  101CHL1  H26B13729   3.547   4.979  15.138 -1.1590  0.1811 -0.3619
  101CHL1  H26C13730   3.397   4.967  15.240 -0.6684 -0.3895 -4.4767
  101CHL1   C2713731   3.688   4.800  15.248  0.4450 -0.0960  0.0624
  101CHL1  H27A13732   3.712   4.859  15.157  1.1157 -0.0144  0.2820
  101CHL1  H27B13733   3.737   4.846  15.337 -3.6756  0.8340  2.0778
  101CHL1  H27C13734   3.730   4.699  15.227 -0.2998  0.1926 -3.3309
  102CHL1    C313735   2.239   5.134  16.774 -0.2769 -0.3242  0.1171
  102CHL1    H313736   2.323   5.201  16.802  1.0836 -1.7881 -0.3311
  102CHL1    O313737   2.188   5.076  16.892 -0.3491 -0.2381 -0.0159
  102CHL1   H3'13738   2.118   5.014  16.871  2.5391 -3.0467 -2.2406
  102CHL1    C413739   2.128   5.216  16.706  0.0279 -0.1245 -0.5042
  102CHL1   H4A13740   2.036   5.154  16.713  0.2434 -0.4992 -0.9465
  102CHL1   H4B13741   2.110   5.295  16.781 -0.6266 -0.3822 -0.3805
  102CHL1    C513742   2.161   5.265  16.567 -0.0734  0.9276 -0.2420
  102CHL1    C613743   2.150   5.394  16.536 -0.3372  0.5889 -0.2930
  102CHL1    H613744   2.102   5.463  16.606 -1.3383 -0.3089 -0.0704
  102CHL1    C713745   2.205   5.459  16.406  0.1232  0.2093 -0.4543
  102CHL1   H7A13746   2.121   5.520  16.366  0.3798 -0.1089 -1.5055
  102CHL1   H7B13747   2.285   5.533  16.425  0.6885 -0.4862 -0.0960
  102CHL1    C813748   2.250   5.353  16.300 -0.4707  0.1140 -0.2465
  102CHL1    H813749   2.164   5.312  16.243 -1.1693  1.8623 -0.5264
  102CHL1   C1413750   2.345   5.422  16.204 -0.5272 -0.4308 -0.3909
  102CHL1   H1413751   2.435   5.447  16.264 -0.2398 -1.0863 -0.5435
  102CHL1   C1513752   2.298   5.553  16.139  0.3077 -0.0487 -0.7154
  102CHL1  H15A13753   2.194   5.541  16.100 -0.6260 -0.6855  1.8053
  102CHL1  H15B13754   2.297   5.642  16.206 -0.3781 -0.4816 -0.1406
  102CHL1   C1613755   2.392   5.570  16.016  0.7183 -0.5626  0.0615
  102CHL1  H16A13756   2.336   5.587  15.921  1.0036  0.5986  0.0918
  102CHL1  H16B13757   2.468   5.650  16.025  1.6331 -1.3655 -0.3179
  102CHL1   C1713758   2.478   5.439  16.012  0.0122 -0.5016  0.6941
  102CHL1   H1713759   2.565   5.473  16.072  1.2989  0.5495 -1.6520
  102CHL1   C1313760   2.398   5.335  16.092 -0.2694  0.1367  0.1364
  102CHL1   C1813761   2.279   5.291  16.006  0.2164  0.3997  0.4579
  102CHL1  H18A13762   2.224   5.367  15.946 -1.4748 -0.9983  0.1759
  102CHL1  H18B13763   2.313   5.215  15.933 -1.2709  1.3021 -1.2730
  102CHL1  H18C13764   2.207   5.240  16.073  0.1815  2.2822  1.9273
  102CHL1   C1213765   2.474   5.216  16.148 -0.3171 -0.8389  0.7576
  102CHL1  H12A13766   2.511   5.146  16.070 -0.6679  1.5664 -1.7094
  102CHL1  H12B13767   2.560   5.270  16.192 -0.3856 -0.2175  0.1423
  102CHL1   C1113768   2.386   5.139  16.251  0.0311 -0.0021  0.0242
  102CHL1  H11A13769   2.308   5.085  16.192  1.8660 -3.1549  0.2227
  102CHL1  H11B13770   2.450   5.059  16.293  2.0705  0.6770 -1.6174
  102CHL1    C913771   2.314   5.226  16.360  0.1384 -0.4251 -0.2923
  102CHL1    H913772   2.396   5.272  16.419 -0.6013  0.3318  0.1805
  102CHL1   C1013773   2.233   5.153  16.477  0.4555 -0.5451 -0.1840
  102CHL1   C1913774   2.130   5.063  16.419 -0.4171 -0.2433 -0.0902
  102CHL1  H19A13775   2.061   5.126  16.359  0.4671 -1.2442 -2.2347
  102CHL1  H19B13776   2.177   4.992  16.349  2.4026  0.6994  0.7347
  102CHL1  H19C13777   2.066   5.008  16.492  2.1701 -4.1448 -0.4849
  102CHL1    C113778   2.336   5.065  16.551  0.5450  0.0420 -0.4366
  102CHL1   H1A13779   2.359   4.974  16.491 -0.3047 -0.4258 -0.0717
  102CHL1   H1B13780   2.432   5.119  16.565  0.4185  0.0510  0.4264
  102CHL1    C213781   2.284   5.021  16.682  0.0869  0.5881 -0.3386
  102CHL1   H2A13782   2.355   4.965  16.747 -2.3116 -1.9356  0.3401
  102CHL1   H2B13783   2.198   4.954  16.659  1.0740 -1.4761  1.5360
  102CHL1   C2013784   2.538   5.391  15.879  0.1814  0.9826  0.0771
  102CHL1   H2013785   2.555   5.281  15.885 -0.9003  0.7150 -1.2514
  102CHL1   C2113786   2.671   5.456  15.863 -0.1761  0.3044 -0.4303
  102CHL1  H21A13787   2.751   5.438  15.938  0.1309 -0.6022 -0.9540
  102CHL1  H21B13788   2.668   5.566  15.849 -1.7876  0.0327 -2.8050
  102CHL1  H21C13789   2.728   5.422  15.773 -0.9203 -0.6146 -0.5624
  102CHL1   C2213790   2.451   5.400  15.750  0.2948 -0.0790  0.6866
  102CHL1  H22A13791   2.341   5.400  15.765 -0.1175 -1.0482 -1.8098
  102CHL1  H22B13792   2.493   5.480  15.685  0.5128  0.1248  1.0749
  102CHL1   C2313793   2.452   5.261  15.675 -0.3124 -0.2699  0.0993
  102CHL1  H23A13794   2.549   5.236  15.628 -0.6790 -3.5415  0.8491
  102CHL1  H23B13795   2.447   5.181  15.753  0.4855 -0.8838 -0.4694
  102CHL1   C2413796   2.355   5.251  15.558 -0.0754  0.3660 -0.0198
  102CHL1  H24A13797   2.251   5.273  15.590 -0.8619 -0.7743 -1.6286
  102CHL1  H24B13798   2.404   5.316  15.484  3.2441 -0.6595  1.0994
  102CHL1   C2513799   2.339   5.118  15.480 -0.1781  0.4298  0.2656
  102CHL1   H2513800   2.258   5.143  15.408 -0.1468 -0.6309 -0.1702
  102CHL1   C2613801   2.466   5.070  15.402 -0.0192 -0.4808 -0.2854
  102CHL1  H26A13802   2.434   4.989  15.333  1.8648 -0.2916 -1.4370
  102CHL1  H26B13803   2.502   5.159  15.347  0.4162 -0.1959  0.4461
  102CHL1  H26C13804   2.543   5.025  15.469 -1.3507 -1.2532  0.8007
  102CHL1   C2713805   2.271   5.007  15.570  0.2336  0.2787 -0.6107
  102CHL1  H27A13806   2.342   4.990  15.654  1.7170  0.7436 -1.7208
  102CHL1  H27B13807   2.186   5.051  15.626 -0.3307 -1.4010 -0.0882
  102CHL1  H27C13808   2.246   4.908  15.527  0.7058 -0.7437  1.3182
  103CHL1    C313809   2.371   3.461  16.740  0.3703 -0.6569  0.0148
  103CHL1    H313810   2.267   3.472  16.703 -0.3319  1.7705  2.3523
  103CHL1    O313811   2.368   3.443  16.881 -0.2809  0.2157  0.0112
  103CHL1   H3'13812   2.354   3.349  16.891  0.1191  0.2006  0.4564
  103CHL1    C413813   2.434   3.332  16.670  0.4967 -0.2432  0.2218
  103CHL1   H4A13814   2.539   3.320  16.704  0.6167 -0.8913 -0.3534
  103CHL1   H4B13815   2.379   3.240  16.700  1.3583 -0.8476  0.0061
  103CHL1    C513816   2.429   3.347  16.519 -0.1013 -0.8624 -0.4181
  103CHL1    C613817   2.375   3.252  16.437 -0.6124  0.0019 -0.4383
  103CHL1    H613818   2.336   3.160  16.484 -0.0766  0.8126  1.6977
  103CHL1    C713819   2.376   3.254  16.288  0.7678  0.2068 -1.4583
  103CHL1   H7A13820   2.424   3.165  16.241 -0.6525 -0.9672 -0.7777
  103CHL1   H7B13821   2.270   3.266  16.258 -0.6754 -1.7106  2.2163
  103CHL1    C813822   2.455   3.370  16.226  0.1138  0.3139 -0.2389
  103CHL1    H813823   2.557   3.326  16.236 -0.4674 -0.7156  1.6825
  103CHL1   C1413824   2.406   3.406  16.090 -0.2270  0.0811 -0.1441
  103CHL1   H1413825   2.308   3.451  16.114 -0.1340  0.1230  0.1539
  103CHL1   C1513826   2.390   3.289  15.990 -0.4565 -0.0990  0.3840
  103CHL1  H15A13827   2.486   3.234  16.001  0.4130  1.4957  1.1111
  103CHL1  H15B13828   2.304   3.220  16.005 -1.4085  0.8042 -0.7314
  103CHL1   C1613829   2.394   3.356  15.853 -0.3653 -0.1905  0.3988
  103CHL1  H16A13830   2.476   3.310  15.795 -1.4111 -1.5413 -0.0596
  103CHL1  H16B13831   2.302   3.337  15.793 -1.1494  0.2030  1.4461
  103CHL1   C1713832   2.425   3.512  15.881 -0.2082  0.2534 -0.8075
  103CHL1   H1713833   2.322   3.554  15.888 -0.8295 -1.4171  0.9087
  103CHL1   C1313834   2.493   3.516  16.027  0.1184  0.2215  0.0601
  103CHL1   C1813835   2.637   3.460  16.017  0.2021  0.3889  0.4554
  103CHL1  H18A13836   2.649   3.371  15.951  0.5939 -1.3685  2.7513
  103CHL1  H18B13837   2.691   3.541  15.964  0.1836 -1.4317 -2.6057
  103CHL1  H18C13838   2.690   3.432  16.111 -2.9368 -0.3121  2.1689
  103CHL1   C1213839   2.486   3.644  16.117 -0.0094  0.0738  0.5305
  103CHL1  H12A13840   2.547   3.729  16.080  0.2477  0.4583  1.7888
  103CHL1  H12B13841   2.380   3.678  16.116 -0.6772 -1.8789  0.6001
  103CHL1   C1113842   2.529   3.611  16.253  0.0698  0.6996 -0.0988
  103CHL1  H11A13843   2.638   3.592  16.245  0.1803  0.8527  0.8498
  103CHL1  H11B13844   2.529   3.705  16.313 -0.5668  0.8286 -0.2875
  103CHL1    C913845   2.445   3.497  16.317 -0.3977  0.4749 -0.4170
  103CHL1    H913846   2.341   3.535  16.316 -0.6803 -0.3154 -1.3219
  103CHL1   C1013847   2.486   3.473  16.462 -0.0716 -0.5704 -0.2364
  103CHL1   C1913848   2.639   3.446  16.477  0.7223  0.3488  0.2281
  103CHL1  H19A13849   2.680   3.352  16.434  2.0013  0.1243  1.8396
  103CHL1  H19B13850   2.702   3.520  16.424  0.6469  0.0418 -0.3018
  103CHL1  H19C13851   2.670   3.452  16.583  1.7205 -0.1369 -0.0303
  103CHL1    C113852   2.448   3.601  16.551  0.0523 -0.2394  0.3192
  103CHL1   H1A13853   2.506   3.693  16.528 -2.5294  1.6099  0.8329
  103CHL1   H1B13854   2.345   3.627  16.519  0.2116  1.1025  0.8250
  103CHL1    C213855   2.446   3.583  16.706  0.0592 -0.6312  0.1791
  103CHL1   H2A13856   2.394   3.669  16.753 -1.0365 -0.9069 -0.4895
  103CHL1   H2B13857   2.551   3.575  16.741 -0.6307 -2.4402  2.0492
  103CHL1   C2013858   2.495   3.587  15.767 -0.2103  0.4805 -0.2875
  103CHL1   H2013859   2.603   3.566  15.781 -0.1051  0.7201 -0.7228
  103CHL1   C2113860   2.452   3.733  15.778 -1.0390  0.0173  0.3770
  103CHL1  H21A13861   2.511   3.792  15.705  0.3540 -0.9659  0.6663
  103CHL1  H21B13862   2.487   3.778  15.873  1.7944  4.0982 -2.2667
  103CHL1  H21C13863   2.342   3.734  15.758 -1.1305 -0.4822  0.8356
  103CHL1   C2213864   2.460   3.536  15.623 -0.2420  0.0418 -0.2514
  103CHL1  H22A13865   2.472   3.426  15.619 -1.4758 -0.1586  0.8217
  103CHL1  H22B13866   2.352   3.532  15.600 -0.0664 -0.6679 -0.9946
  103CHL1   C2313867   2.536   3.600  15.515 -0.0998  0.0371  0.4482
  103CHL1  H23A13868   2.499   3.705  15.507 -1.3998 -0.3291  1.2861
  103CHL1  H23B13869   2.646   3.590  15.525 -0.2568 -3.7992 -0.3426
  103CHL1   C2413870   2.504   3.540  15.370 -0.9738 -0.0778  0.7688
  103CHL1  H24A13871   2.556   3.443  15.368 -0.0138  0.4325 -0.6534
  103CHL1  H24B13872   2.392   3.538  15.373 -0.9644 -2.9927  1.7720
  103CHL1   C2513873   2.554   3.629  15.253  0.2663 -0.1128  0.2676
  103CHL1   H2513874   2.502   3.726  15.264  2.1047  0.8768  0.5364
  103CHL1   C2613875   2.706   3.660  15.243  0.2346 -0.4848  1.1384
  103CHL1  H26A13876   2.734   3.741  15.313  1.1815  0.6680 -0.4941
  103CHL1  H26B13877   2.768   3.568  15.254  0.0779 -1.0220 -1.6859
  103CHL1  H26C13878   2.733   3.696  15.141  1.6396  0.1136  1.6949
  103CHL1   C2713879   2.508   3.569  15.119  0.9870 -0.5490  0.2206
  103CHL1  H27A13880   2.554   3.626  15.036  0.2066  0.7218  0.6469
  103CHL1  H27B13881   2.525   3.459  15.113 -0.5128 -0.7408 -1.1193
  103CHL1  H27C13882   2.398   3.564  15.110  1.1242 -2.6030 -0.9661
  104CHL1    C313883   5.356   5.643  16.744 -0.0792 -0.3687  0.9167
  104CHL1    H313884   5.377   5.749  16.770 -0.7731  0.3291 -1.1267
  104CHL1    O313885   5.342   5.563  16.860  0.2054 -0.2638 -0.2044
  104CHL1   H3'13886   5.248   5.573  16.875  0.1801  0.1029 -0.5898
  104CHL1    C413887   5.224   5.620  16.660  0.1691 -0.3096 -0.0306
  104CHL1   H4A13888   5.210   5.513  16.634 -0.4147 -0.3043  0.2467
  104CHL1   H4B13889   5.138   5.649  16.724 -1.4839  0.3908 -2.4754
  104CHL1    C513890   5.229   5.694  16.530  0.3617 -0.2452  0.5933
  104CHL1    C613891   5.133   5.783  16.506  0.3710  0.0150 -0.1144
  104CHL1    H613892   5.053   5.798  16.580  1.1448  1.3000  0.4988
  104CHL1    C713893   5.117   5.862  16.376  0.2119 -0.0259  0.2976
  104CHL1   H7A13894   5.014   5.850  16.337  0.6990  2.2701 -1.9105
  104CHL1   H7B13895   5.129   5.970  16.401  1.5157  0.7769 -3.1860
  104CHL1    C813896   5.222   5.809  16.268 -0.1030  0.4385  0.0447
  104CHL1    H813897   5.183   5.719  16.215  1.0915  0.4566 -0.9277
  104CHL1   C1413898   5.235   5.916  16.157 -0.1372  0.2794 -0.5201
  104CHL1   H1413899   5.280   5.999  16.215 -2.0592  0.2688  1.1048
  104CHL1   C1513900   5.117   5.975  16.085 -0.4040  0.3540 -0.1361
  104CHL1  H15A13901   5.051   5.890  16.060 -1.8496  1.2545  0.4854
  104CHL1  H15B13902   5.068   6.048  16.153  0.6079 -0.6053  1.7064
  104CHL1   C1613903   5.176   6.028  15.949  0.4670  0.6175 -0.4142
  104CHL1  H16A13904   5.129   5.968  15.868 -0.7448  0.7759  0.1512
  104CHL1  H16B13905   5.152   6.135  15.930 -0.5894  0.0322 -2.6785
  104CHL1   C1713906   5.330   6.004  15.955 -0.4430 -0.1274  0.1492
  104CHL1   H1713907   5.362   6.095  16.010 -0.6868 -0.8889  1.5769
  104CHL1   C1313908   5.347   5.886  16.051 -0.7958  0.2862 -0.7741
  104CHL1   C1813909   5.314   5.755  15.971 -0.5517  0.7587  0.8900
  104CHL1  H18A13910   5.210   5.751  15.935 -0.7617 -0.6719  1.5588
  104CHL1  H18B13911   5.387   5.743  15.888 -0.7009 -0.7676  0.9437
  104CHL1  H18C13912   5.318   5.669  16.041  1.3559 -0.4777 -0.6337
  104CHL1   C1213913   5.482   5.873  16.123  0.1838 -0.7047  0.4084
  104CHL1  H12A13914   5.558   5.842  16.048  0.0136 -1.4140  0.5183
  104CHL1  H12B13915   5.509   5.972  16.165  2.1737 -0.1414 -1.9870
  104CHL1   C1113916   5.488   5.772  16.238 -0.0359  0.3227  0.2965
  104CHL1  H11A13917   5.457   5.671  16.201 -3.6985  2.3254 -2.8717
  104CHL1  H11B13918   5.592   5.777  16.276 -0.0516  2.2968  0.1583
  104CHL1    C913919   5.361   5.793  16.335  0.3359  0.5544  0.4660
  104CHL1    H913920   5.381   5.885  16.394  0.4486  1.0278 -0.2945
  104CHL1   C1013921   5.355   5.681  16.446  0.2282 -0.2805 -0.3559
  104CHL1   C1913922   5.343   5.545  16.390  0.9154  0.1462  0.1122
  104CHL1  H19A13923   5.270   5.538  16.307  0.4903  0.7514  0.4295
  104CHL1  H19B13924   5.441   5.509  16.349  0.3444 -0.1002 -1.0857
  104CHL1  H19C13925   5.294   5.467  16.451 -1.6014 -0.1200 -2.0452
  104CHL1    C113926   5.478   5.690  16.537  0.1705 -0.6194 -0.4166
  104CHL1   H1A13927   5.565   5.643  16.487  0.8060  0.0950 -0.0009
  104CHL1   H1B13928   5.506   5.796  16.557  2.6176 -1.1815 -0.6429
  104CHL1    C213929   5.476   5.600  16.657 -0.1063  0.1254 -0.0781
  104CHL1   H2A13930   5.574   5.618  16.707  0.3844 -0.3810 -0.8442
  104CHL1   H2B13931   5.474   5.492  16.632 -1.2372  0.0797  0.1894
  104CHL1   C2013932   5.413   6.006  15.827 -0.3242  0.0373 -0.2851
  104CHL1   H2013933   5.513   5.957  15.829 -1.2538 -2.0115 -0.7817
  104CHL1   C2113934   5.453   6.154  15.788  0.1930  0.7955 -0.6325
  104CHL1  H21A13935   5.367   6.216  15.754 -0.5150  0.0967 -0.1391
  104CHL1  H21B13936   5.526   6.134  15.706  1.6580 -1.5025  1.1356
  104CHL1  H21C13937   5.506   6.202  15.873 -0.0829  0.8715 -0.5013
  104CHL1   C2213938   5.334   5.941  15.708 -0.2776 -0.1472 -0.0102
  104CHL1  H22A13939   5.289   5.847  15.746 -1.4217 -0.5743 -2.2390
  104CHL1  H22B13940   5.255   6.015  15.681  0.4295  0.3969 -0.6319
  104CHL1   C2313941   5.423   5.903  15.594 -0.1477  0.1430  0.0064
  104CHL1  H23A13942   5.487   5.986  15.556  0.7483 -1.0182 -1.1191
  104CHL1  H23B13943   5.492   5.824  15.629  1.0465  0.9022 -0.5703
  104CHL1   C2413944   5.335   5.845  15.480 -0.0807  0.3507  0.4078
  104CHL1  H24A13945   5.268   5.770  15.527 -0.6511  1.0768  0.7741
  104CHL1  H24B13946   5.272   5.926  15.437  1.3796  0.9900 -0.6023
  104CHL1   C2513947   5.405   5.760  15.375  0.1244 -0.2490 -1.0037
  104CHL1   H2513948   5.488   5.822  15.335 -1.5344  1.8058 -1.4106
  104CHL1   C2613949   5.467   5.637  15.442 -0.1795  0.1274  0.5801
  104CHL1  H26A13950   5.499   5.561  15.369  1.4405  0.1414  1.2253
  104CHL1  H26B13951   5.562   5.669  15.489  0.6841 -2.8942  1.1044
  104CHL1  H26C13952   5.402   5.584  15.515 -0.0341 -0.6216  0.1776
  104CHL1   C2713953   5.332   5.719  15.249  0.4312 -0.1512 -0.1680
  104CHL1  H27A13954   5.251   5.650  15.280 -0.4526  0.5701 -0.8410
  104CHL1  H27B13955   5.293   5.807  15.193  0.5970  0.5184  0.7438
  104CHL1  H27C13956   5.400   5.660  15.183 -1.4546 -2.1274 -0.4631
  105CHL1    C313957   4.914   4.703  16.717  0.6317 -0.4842  0.0659
  105CHL1    H313958   4.981   4.792  16.715 -1.5693  1.2655  0.0517
  105CHL1    O313959   4.920   4.631  16.839 -0.3729 -0.1168  0.3062
  105CHL1   H3'13960   5.000   4.578  16.834 -0.5227 -0.3337  0.2077
  105CHL1    C413961   4.777   4.765  16.704 -0.4871 -0.5861 -0.0147
  105CHL1   H4A13962   4.700   4.685  16.700 -1.7509  0.6170 -1.2628
  105CHL1   H4B13963   4.745   4.823  16.794 -1.5570  2.1266 -1.9817
  105CHL1    C513964   4.765   4.843  16.570 -0.6967  0.4101  0.1684
  105CHL1    C613965   4.743   4.977  16.562  0.5069 -0.4094 -0.4033
  105CHL1    H613966   4.711   5.026  16.655 -1.3697  0.3780 -1.4099
  105CHL1    C713967   4.735   5.056  16.436 -0.1784 -0.1965  0.4072
  105CHL1   H7A13968   4.650   5.127  16.436 -0.9397 -1.0749 -0.5662
  105CHL1   H7B13969   4.826   5.118  16.421 -0.6375  0.0451 -1.6606
  105CHL1    C813970   4.728   4.971  16.305 -0.2717  0.4385 -0.6609
  105CHL1    H813971   4.624   4.932  16.306 -0.1368  0.0404 -1.4791
  105CHL1   C1413972   4.777   5.061  16.192  0.9426 -0.2760  0.1333
  105CHL1   H1413973   4.882   5.089  16.213  1.7630 -3.2120  0.5094
  105CHL1   C1513974   4.699   5.196  16.167  0.8636  0.1649  0.0927
  105CHL1  H15A13975   4.591   5.176  16.187  0.5974 -0.7733 -1.9675
  105CHL1  H15B13976   4.734   5.279  16.232 -1.0838  0.6662  0.5655
  105CHL1   C1613977   4.718   5.223  16.015 -0.1214  0.7257 -0.2182
  105CHL1  H16A13978   4.620   5.223  15.963 -0.2666  0.1051  0.0460
  105CHL1  H16B13979   4.764   5.322  15.995  0.7586  0.3137 -0.2808
  105CHL1   C1713980   4.804   5.098  15.963 -0.6229 -0.4729 -0.0798
  105CHL1   H1713981   4.912   5.122  15.971 -0.7463 -0.1189  0.5923
  105CHL1   C1313982   4.774   4.984  16.060 -0.3063 -0.2434  0.0931
  105CHL1   C1813983   4.634   4.918  16.026  0.1940  0.2936 -0.2182
  105CHL1  H18A13984   4.632   4.861  15.931  0.5279 -0.7470  0.3737
  105CHL1  H18B13985   4.592   4.857  16.110  0.0232  0.4585 -0.1831
  105CHL1  H18C13986   4.568   5.005  16.008  1.2404  1.4425  1.2629
  105CHL1   C1213987   4.878   4.876  16.070 -0.0110 -0.2559  0.0728
  105CHL1  H12A13988   4.888   4.813  15.980  3.7906 -1.4513  1.1253
  105CHL1  H12B13989   4.970   4.929  16.104 -0.9598 -0.1987  2.8487
  105CHL1   C1113990   4.846   4.778  16.185  0.2211  0.2213  0.0485
  105CHL1  H11A13991   4.766   4.703  16.167  1.0309 -1.2081  2.0639
  105CHL1  H11B13992   4.935   4.712  16.195 -0.2915 -0.2994  1.5383
  105CHL1    C913993   4.828   4.855  16.321 -0.5341 -0.1473  0.4502
  105CHL1    H913994   4.925   4.907  16.335 -1.5928  2.5201 -1.3421
  105CHL1   C1013995   4.809   4.764  16.442  0.2655 -0.4061  0.1139
  105CHL1   C1913996   4.682   4.674  16.423  0.5172  0.5575 -0.0875
  105CHL1  H19A13997   4.660   4.607  16.509 -0.0041  0.9542  0.1007
  105CHL1  H19B13998   4.592   4.738  16.406  0.8745  0.5949 -2.1400
  105CHL1  H19C13999   4.682   4.616  16.329 -0.4420 -0.7875  0.7039
  105CHL1    C114000   4.938   4.678  16.468 -0.1821  0.2554  0.0640
  105CHL1   H1A14001   4.953   4.589  16.402 -1.0414  0.2214 -0.1020
  105CHL1   H1B14002   5.033   4.735  16.464 -0.1399  0.1101 -1.5238
  105CHL1    C214003   4.938   4.608  16.602  0.1021 -0.2432 -0.0875
  105CHL1   H2A14004   5.039   4.565  16.614  0.8535  1.0268 -1.5239
  105CHL1   H2B14005   4.860   4.529  16.601 -0.4898  0.3323 -0.3364
  105CHL1   C2014006   4.781   5.076  15.816  0.5036  0.1138 -0.5354
  105CHL1   H2014007   4.674   5.052  15.798  0.1586  0.6322  0.6802
  105CHL1   C2114008   4.866   4.961  15.759 -0.6285  0.5573 -0.0614
  105CHL1  H21A14009   4.968   4.970  15.804 -0.0706 -2.1419 -0.5969
  105CHL1  H21B14010   4.867   4.972  15.649 -1.8791  0.2735 -0.1186
  105CHL1  H21C14011   4.822   4.861  15.780  2.4749 -1.0093 -0.3365
  105CHL1   C2214012   4.798   5.208  15.737 -0.0558 -0.4163 -0.1889
  105CHL1  H22A14013   4.724   5.285  15.768  0.3018  0.1181 -0.6316
  105CHL1  H22B14014   4.898   5.251  15.760  0.2728 -0.1584 -1.9629
  105CHL1   C2314015   4.800   5.213  15.579  0.2714  0.2162 -0.2033
  105CHL1  H23A14016   4.827   5.317  15.549 -1.8428  0.7035 -0.5412
  105CHL1  H23B14017   4.892   5.158  15.547  2.2274  1.4180  2.9178
  105CHL1   C2414018   4.672   5.174  15.509  0.4608  0.8015  0.2800
  105CHL1  H24A14019   4.644   5.068  15.526 -0.6831  1.4892  3.2311
  105CHL1  H24B14020   4.596   5.247  15.546  0.3656  0.3142  1.0527
  105CHL1   C2514021   4.682   5.201  15.360 -0.4521 -0.5534 -0.4354
  105CHL1   H2514022   4.711   5.308  15.355  1.5085 -1.0571 -0.4928
  105CHL1   C2614023   4.788   5.108  15.286  0.0646 -1.1365 -0.4305
  105CHL1  H26A14024   4.883   5.106  15.343  2.1603 -0.4728 -3.6866
  105CHL1  H26B14025   4.740   5.010  15.267 -0.3638 -1.1991  0.8496
  105CHL1  H26C14026   4.819   5.146  15.186  1.1097 -1.6429 -0.3094
  105CHL1   C2714027   4.552   5.205  15.282 -0.3983  0.0989 -0.0651
  105CHL1  H27A14028   4.495   5.297  15.307  0.6445  0.2388  1.9926
  105CHL1  H27B14029   4.568   5.194  15.172  2.5424 -5.0281  0.5484
  105CHL1  H27C14030   4.491   5.120  15.320 -1.6556  1.8251  2.0001
  106CHL1    C314031   1.865   3.398  16.822  0.5238 -0.1161 -0.9978
  106CHL1    H314032   1.975   3.403  16.808  0.9996  1.9298  2.3423
  106CHL1    O314033   1.820   3.424  16.955  0.0087  0.0199 -0.1555
  106CHL1   H3'14034   1.733   3.386  16.969 -0.1438  0.9724  1.7464
  106CHL1    C414035   1.803   3.503  16.734 -0.1784  0.8680 -0.2776
  106CHL1   H4A14036   1.692   3.495  16.740 -0.1229  0.4749  0.3179
  106CHL1   H4B14037   1.822   3.606  16.769 -0.8323  0.8480  0.1574
  106CHL1    C514038   1.855   3.471  16.593  0.3604  0.4099  0.0840
  106CHL1    C614039   1.932   3.556  16.531 -0.2996 -0.4185 -0.1769
  106CHL1    H614040   1.964   3.648  16.581  0.4482 -1.5106  1.4294
  106CHL1    C714041   1.978   3.527  16.397  0.6543  0.5230 -0.1096
  106CHL1   H7A14042   1.974   3.623  16.341 -0.8229  1.1991  1.1055
  106CHL1   H7B14043   2.082   3.489  16.409  1.2131  2.4181  1.5417
  106CHL1    C814044   1.889   3.417  16.325  0.1216 -0.0346 -0.3185
  106CHL1    H814045   1.792   3.457  16.287 -0.3175 -2.0171 -1.4150
  106CHL1   C1414046   1.954   3.389  16.187 -0.2853  0.5282  0.1770
  106CHL1   H1414047   2.054   3.349  16.215 -0.3934 -0.2088 -0.4647
  106CHL1   C1514048   1.974   3.502  16.090 -0.0173  0.4912  0.4029
  106CHL1  H15A14049   1.879   3.561  16.092 -0.2081  0.1746  0.8332
  106CHL1  H15B14050   2.053   3.569  16.130  1.6944 -1.2054 -0.0337
  106CHL1   C1614051   2.008   3.433  15.955 -0.0816 -0.0109 -1.1005
  106CHL1  H16A14052   1.938   3.478  15.881  0.5105 -1.3986 -2.5741
  106CHL1  H16B14053   2.113   3.454  15.927  0.2541 -0.2980 -0.0558
  106CHL1   C1714054   1.982   3.280  15.982 -0.3911  0.5942 -0.1738
  106CHL1   H1714055   2.083   3.239  16.005 -1.1476  0.6945  4.3116
  106CHL1   C1314056   1.899   3.269  16.105  1.2876 -0.5713 -0.4046
  106CHL1   C1814057   1.746   3.307  16.071 -0.3590 -0.2883  0.6142
  106CHL1  H18A14058   1.687   3.223  16.030 -1.6442  0.3005  1.1891
  106CHL1  H18B14059   1.690   3.333  16.163  0.2303  0.4180  0.7855
  106CHL1  H18C14060   1.740   3.392  15.999  2.3093 -0.6045 -0.0814
  106CHL1   C1214061   1.919   3.148  16.199 -0.0487 -0.1667 -0.3075
  106CHL1  H12A14062   1.882   3.054  16.153 -1.7009  0.6837 -0.8119
  106CHL1  H12B14063   2.023   3.131  16.234 -1.0107 -1.6379  2.0217
  106CHL1   C1114064   1.830   3.174  16.325 -1.0902 -0.2199 -0.8708
  106CHL1  H11A14065   1.722   3.185  16.300 -1.7924  1.8596  2.3372
  106CHL1  H11B14066   1.848   3.081  16.382 -0.4210  1.3031  1.5785
  106CHL1    C914067   1.879   3.293  16.408  0.6298  0.2310 -0.0705
  106CHL1    H914068   1.988   3.275  16.418  0.4503 -0.5774  0.5096
  106CHL1   C1014069   1.812   3.327  16.540 -0.3959  0.3663  0.5577
  106CHL1   C1914070   1.659   3.324  16.523  0.2901 -0.0840  0.4994
  106CHL1  H19A14071   1.608   3.237  16.476 -1.3014  1.4932 -0.8523
  106CHL1  H19B14072   1.611   3.329  16.622 -2.3851 -3.6093 -0.3904
  106CHL1  H19C14073   1.628   3.418  16.472  1.3388 -0.2615 -0.5241
  106CHL1    C114074   1.861   3.221  16.646  0.3039  0.7199  0.1811
  106CHL1   H1A14075   1.822   3.120  16.622 -1.7748  1.3756  0.6295
  106CHL1   H1B14076   1.972   3.225  16.641  0.3473 -0.8515 -0.9605
  106CHL1    C214077   1.817   3.256  16.785  0.0475 -0.5933 -0.1924
  106CHL1   H2A14078   1.858   3.183  16.858  1.2518 -0.3864 -0.6306
  106CHL1   H2B14079   1.708   3.238  16.799  0.1318  0.1502  1.8602
  106CHL1   C2014080   1.923   3.212  15.851 -0.0447  1.0707  0.6719
  106CHL1   H2014081   1.823   3.255  15.830 -1.2258 -2.1329 -0.7796
  106CHL1   C2114082   1.914   3.060  15.872 -0.2788 -0.4725  0.6904
  106CHL1  H21A14083   2.015   3.021  15.895 -0.3318 -0.9212  0.2053
  106CHL1  H21B14084   1.883   3.004  15.781  1.8171 -0.3608 -0.1465
  106CHL1  H21C14085   1.843   3.031  15.952 -0.5382 -0.7347  0.3715
  106CHL1   C2214086   2.014   3.235  15.727 -0.4577 -0.0432 -0.2678
  106CHL1  H22A14087   2.035   3.344  15.718  0.7214 -0.2813 -0.4617
  106CHL1  H22B14088   2.099   3.166  15.744 -0.7143 -0.3430 -0.2043
  106CHL1   C2314089   1.969   3.184  15.590 -0.2298 -1.0631  0.4343
  106CHL1  H23A14090   1.946   3.076  15.583 -0.1962 -0.9744 -2.6867
  106CHL1  H23B14091   1.881   3.240  15.554  0.2006 -0.1888  0.7021
  106CHL1   C2414092   2.081   3.215  15.491 -0.3082 -0.1943  0.1508
  106CHL1  H24A14093   2.100   3.325  15.490  2.8154 -0.6329  0.8275
  106CHL1  H24B14094   2.180   3.173  15.518 -0.3228 -0.0371  0.4589
  106CHL1   C2514095   2.048   3.177  15.343  0.3115 -0.3113  0.5388
  106CHL1   H2514096   1.953   3.225  15.309  0.8924 -0.2187 -1.0633
  106CHL1   C2614097   2.157   3.226  15.238 -0.7488  0.1213 -0.1667
  106CHL1  H26A14098   2.250   3.166  15.243 -0.1207  1.1558  0.9473
  106CHL1  H26B14099   2.118   3.213  15.134 -0.2580 -0.6106 -0.2686
  106CHL1  H26C14100   2.181   3.334  15.244  0.8885 -0.2440  0.1453
  106CHL1   C2714101   2.022   3.022  15.320 -0.5474 -0.2177 -0.3788
  106CHL1  H27A14102   1.943   2.989  15.391 -0.3327  0.1940  0.0578
  106CHL1  H27B14103   1.989   3.004  15.216 -1.7328  0.7051 -0.1838
  106CHL1  H27C14104   2.122   2.979  15.343  0.0745  1.1360 -0.4520
  107CHL1    C314105   3.691   6.936  16.755  0.1866 -0.9556  0.0929
  107CHL1    H314106   3.802   6.933  16.757  0.1754 -2.6081 -0.2175
  107CHL1    O314107   3.642   6.974  16.877  0.2820 -0.3891 -0.6261
  107CHL1   H3'14108   3.600   7.059  16.863  1.7568  0.2800 -1.1955
  107CHL1    C414109   3.651   7.042  16.651  0.8836 -0.2595 -0.6953
  107CHL1   H4A14110   3.545   7.071  16.659  1.1736  0.3556  1.5945
  107CHL1   H4B14111   3.710   7.133  16.679 -0.1800 -0.2795  1.8378
  107CHL1    C514112   3.680   6.999  16.509  1.0324 -0.2895 -0.7661
  107CHL1    C614113   3.755   7.075  16.425 -0.9310  0.0745 -0.5001
  107CHL1    H614114   3.783   7.175  16.460 -1.2376 -0.3203  0.9311
  107CHL1    C714115   3.772   7.041  16.280  0.3300 -0.2155 -0.8629
  107CHL1   H7A14116   3.787   7.130  16.215  2.2952  0.6013  0.6130
  107CHL1   H7B14117   3.867   6.983  16.275  0.0251 -0.9037  0.6370
  107CHL1    C814118   3.661   6.947  16.231 -0.1045 -0.1898  0.4744
  107CHL1    H814119   3.564   7.002  16.220  0.3293  0.3814 -0.6715
  107CHL1   C1414120   3.689   6.896  16.092 -0.2882  0.0658 -0.1914
  107CHL1   H1414121   3.778   6.831  16.106 -1.4390 -1.6206 -0.4070
  107CHL1   C1514122   3.729   7.000  15.993 -0.3984  0.3478 -0.9748
  107CHL1  H15A14123   3.665   7.090  16.001  0.3971  0.9068 -0.8454
  107CHL1  H15B14124   3.839   7.009  15.994 -0.3459 -0.2395 -0.7779
  107CHL1   C1614125   3.708   6.926  15.862 -0.2434  0.0823  0.8075
  107CHL1  H16A14126   3.620   6.972  15.813  1.2582  0.5714 -1.5821
  107CHL1  H16B14127   3.801   6.923  15.801  0.2948 -1.1461  1.6495
  107CHL1   C1714128   3.666   6.774  15.887 -0.4879 -0.1666  0.0817
  107CHL1   H1714129   3.758   6.713  15.901 -0.1085  0.1122 -1.0734
  107CHL1   C1314130   3.599   6.795  16.030  0.0324 -0.5745 -0.4969
  107CHL1   C1814131   3.455   6.858  16.018 -0.0380  0.9969 -0.2899
  107CHL1  H18A14132   3.445   6.959  15.973 -2.3557  1.5078  1.1687
  107CHL1  H18B14133   3.385   6.793  15.961  0.7029  2.2474 -2.7775
  107CHL1  H18C14134   3.400   6.866  16.115 -1.5131  0.0391 -1.0130
  107CHL1   C1214135   3.602   6.670  16.116 -0.0346  0.3024 -0.1793
  107CHL1  H12A14136   3.534   6.591  16.077 -0.5313  1.7265 -2.4011
  107CHL1  H12B14137   3.705   6.628  16.123 -0.1473  0.2013  1.2234
  107CHL1   C1114138   3.565   6.703  16.265  0.0775 -0.2630  0.4681
  107CHL1  H11A14139   3.458   6.733  16.258 -0.8745 -3.2544  0.6540
  107CHL1  H11B14140   3.571   6.619  16.338 -0.5074  0.4792  1.4069
  107CHL1    C914141   3.647   6.826  16.324 -0.2257 -0.7860 -0.8578
  107CHL1    H914142   3.749   6.782  16.329 -0.3185 -1.2151 -2.2713
  107CHL1   C1014143   3.614   6.869  16.468 -0.3637  0.6260 -0.3608
  107CHL1   C1914144   3.459   6.884  16.465  0.2616  0.2525 -0.8563
  107CHL1  H19A14145   3.424   6.915  16.566  0.2848  1.8391 -1.3034
  107CHL1  H19B14146   3.430   6.955  16.384 -0.0592 -0.6039 -1.5027
  107CHL1  H19C14147   3.407   6.791  16.432  1.3152 -1.2595  1.5021
  107CHL1    C114148   3.663   6.766  16.567  0.5900  0.3245 -0.1815
  107CHL1   H1A14149   3.608   6.670  16.557 -0.3908  0.6834  1.3474
  107CHL1   H1B14150   3.772   6.751  16.556  0.6818  0.3222  0.6382
  107CHL1    C214151   3.632   6.802  16.713  0.6845  0.4405 -0.1949
  107CHL1   H2A14152   3.678   6.734  16.788  0.5868  2.5778  1.9280
  107CHL1   H2B14153   3.522   6.802  16.727  0.6886  1.1124 -0.1183
  107CHL1   C2014154   3.587   6.720  15.768  0.3794  1.0222 -0.2563
  107CHL1   H2014155   3.477   6.731  15.781  0.0435 -1.9318  0.0228
  107CHL1   C2114156   3.609   6.572  15.767 -0.1201 -0.4390  0.7734
  107CHL1  H21A14157   3.547   6.526  15.687 -0.2638  0.8843  0.1048
  107CHL1  H21B14158   3.587   6.527  15.867  0.3847 -0.2938  0.9534
  107CHL1  H21C14159   3.712   6.545  15.737 -0.4017 -0.0836 -0.5493
  107CHL1   C2214160   3.623   6.778  15.619 -0.0602 -0.2763 -0.5638
  107CHL1  H22A14161   3.584   6.881  15.632 -2.0747 -1.0707  0.0725
  107CHL1  H22B14162   3.734   6.778  15.616  0.1220 -2.7892  1.9078
  107CHL1   C2314163   3.552   6.725  15.494  0.7092 -0.0931 -0.5333
  107CHL1  H23A14164   3.583   6.619  15.484 -0.6389 -0.4629 -0.9907
  107CHL1  H23B14165   3.442   6.717  15.505  0.2952  0.8383 -3.1716
  107CHL1   C2414166   3.591   6.797  15.373 -1.1850  0.2939 -0.0271
  107CHL1  H24A14167   3.539   6.895  15.369 -0.0844  1.0165  1.7637
  107CHL1  H24B14168   3.697   6.819  15.351 -0.5962 -1.9691  0.2727
  107CHL1   C2514169   3.540   6.723  15.249  0.1518  0.0220 -0.5127
  107CHL1   H2514170   3.443   6.676  15.276  1.2122 -2.6052 -0.9315
  107CHL1   C2614171   3.539   6.816  15.132 -0.1231 -0.0030 -0.5712
  107CHL1  H26A14172   3.490   6.775  15.041  1.8103  1.5668 -2.3961
  107CHL1  H26B14173   3.479   6.905  15.157 -0.1043  0.5014 -2.2469
  107CHL1  H26C14174   3.642   6.840  15.100  0.8936 -3.5109 -0.4137
  107CHL1   C2714175   3.615   6.599  15.212  0.0368  0.0958  0.1287
  107CHL1  H27A14176   3.545   6.540  15.150  0.7147 -0.5947 -0.0043
  107CHL1  H27B14177   3.711   6.620  15.160  0.2512 -1.2358 -0.0399
  107CHL1  H27C14178   3.627   6.540  15.305 -0.9619  2.5081  1.9050
  108CHL1    C314179   5.046   3.314  16.713  0.1761 -0.4503 -0.6296
  108CHL1    H314180   4.950   3.263  16.690  1.4060 -1.7450 -3.3857
  108CHL1    O314181   5.080   3.306  16.856  0.1602  0.2562  0.8775
  108CHL1   H3'14182   5.168   3.344  16.862 -0.0807  0.6377  3.7422
  108CHL1    C414183   5.157   3.247  16.647 -0.0001  0.1519  0.2372
  108CHL1   H4A14184   5.251   3.289  16.689  0.2872 -0.4628  0.2171
  108CHL1   H4B14185   5.153   3.139  16.675  2.2086 -0.4038 -1.3121
  108CHL1    C514186   5.149   3.271  16.494  0.4352  0.5330 -0.4051
  108CHL1    C614187   5.141   3.174  16.406 -0.7666 -0.2883 -0.2054
  108CHL1    H614188   5.141   3.068  16.438  0.3556 -0.0494  0.6424
  108CHL1    C714189   5.157   3.199  16.259  0.8369  0.1169 -0.2051
  108CHL1   H7A14190   5.232   3.131  16.214  0.2376 -0.9002  0.3070
  108CHL1   H7B14191   5.061   3.176  16.208  0.5976  1.6009 -0.4783
  108CHL1    C814192   5.198   3.342  16.216  0.5167  0.5741 -0.2611
  108CHL1    H814193   5.305   3.361  16.240  0.6404  0.8031 -0.9717
  108CHL1   C1414194   5.177   3.355  16.069 -0.0442  0.0112  0.9049
  108CHL1   H1414195   5.068   3.339  16.054  0.3413 -2.3360  0.1788
  108CHL1   C1514196   5.231   3.251  15.968  0.3455 -0.7903  0.2354
  108CHL1  H15A14197   5.338   3.237  15.997  0.4629 -1.3584 -0.4282
  108CHL1  H15B14198   5.189   3.149  15.978  0.8052 -1.1381 -1.0469
  108CHL1   C1614199   5.192   3.318  15.839 -0.5603  0.5091 -0.7915
  108CHL1  H16A14200   5.276   3.307  15.766  0.3258 -0.7717  0.3578
  108CHL1  H16B14201   5.107   3.260  15.799 -0.4500  1.3943 -2.3838
  108CHL1   C1714202   5.151   3.466  15.865 -0.5347  1.0845 -0.3122
  108CHL1   H1714203   5.041   3.467  15.849 -0.9693 -0.7826  2.0677
  108CHL1   C1314204   5.199   3.495  16.014 -0.3821  0.9660  0.0660
  108CHL1   C1814205   5.352   3.533  16.014  0.4243  0.2441 -0.4499
  108CHL1  H18A14206   5.416   3.459  15.961  0.3222 -0.2863  0.1598
  108CHL1  H18B14207   5.363   3.634  15.969  0.1068  1.0391  1.1791
  108CHL1  H18C14208   5.390   3.539  16.118  2.2212  0.9843 -1.1143
  108CHL1   C1214209   5.129   3.596  16.100  0.1956  0.4940  0.4666
  108CHL1  H12A14210   5.148   3.696  16.057 -0.0821 -0.5046 -2.1224
  108CHL1  H12B14211   5.019   3.580  16.090  0.3258 -0.1880  0.0292
  108CHL1   C1114212   5.163   3.582  16.250 -0.0583 -0.0688 -0.4136
  108CHL1  H11A14213   5.270   3.598  16.275 -0.0609 -1.6453  0.7799
  108CHL1  H11B14214   5.108   3.656  16.313  0.1109  0.3431 -0.7411
  108CHL1    C914215   5.126   3.446  16.296 -0.2663  0.5477 -0.3103
  108CHL1    H914216   5.017   3.433  16.283 -0.0339 -2.1998 -0.0487
  108CHL1   C1014217   5.149   3.420  16.449  0.1240 -0.2713 -0.4642
  108CHL1   C1914218   5.278   3.483  16.496 -0.3185 -0.1469  0.5407
  108CHL1  H19A14219   5.276   3.594  16.489  1.1383 -0.1965 -1.9520
  108CHL1  H19B14220   5.303   3.468  16.604 -2.8434  0.6598  1.3077
  108CHL1  H19C14221   5.362   3.459  16.427 -1.1370 -2.0753  0.1536
  108CHL1    C114222   5.032   3.487  16.530  0.3307  0.9637  0.3860
  108CHL1   H1A14223   5.019   3.596  16.512 -1.3332  1.0593  1.8949
  108CHL1   H1B14224   4.944   3.433  16.490  0.8898  0.9472 -0.8602
  108CHL1    C214225   5.040   3.460  16.681 -0.0636 -0.3293 -0.1939
  108CHL1   H2A14226   4.952   3.507  16.732  0.2509 -1.9210  1.9390
  108CHL1   H2B14227   5.132   3.509  16.718  0.0879 -0.9673  0.2850
  108CHL1   C2014228   5.196   3.570  15.750  0.4276  0.6186  0.2008
  108CHL1   H2014229   5.307   3.581  15.751  0.3130  2.0581 -0.5117
  108CHL1   C2114230   5.137   3.713  15.761 -0.5339  0.2301  0.2590
  108CHL1  H21A14231   5.192   3.762  15.844  0.9753 -0.9171 -0.0368
  108CHL1  H21B14232   5.026   3.712  15.774 -0.6202 -0.7485 -0.4422
  108CHL1  H21C14233   5.170   3.774  15.675  1.1607  1.1164  1.4758
  108CHL1   C2214234   5.165   3.511  15.607  0.2249 -0.4461 -0.2669
  108CHL1  H22A14235   5.187   3.600  15.544  0.8043  0.7574  1.5547
  108CHL1  H22B14236   5.249   3.442  15.584 -0.1166 -0.8123 -0.4186
  108CHL1   C2314237   5.033   3.458  15.580 -0.8973 -0.4452  0.2469
  108CHL1  H23A14238   5.002   3.374  15.646  0.1194 -0.8366  0.2383
  108CHL1  H23B14239   4.960   3.542  15.585 -1.2750 -0.5408 -2.3962
  108CHL1   C2414240   5.030   3.411  15.434 -0.8438 -0.6096  0.3806
  108CHL1  H24A14241   5.062   3.491  15.363  1.1917 -2.3801 -0.7997
  108CHL1  H24B14242   5.112   3.338  15.416 -0.2030  0.1352  0.1731
  108CHL1   C2514243   4.897   3.352  15.399  0.2422  0.7457 -0.3648
  108CHL1   H2514244   4.869   3.289  15.486  0.5867  0.4239 -0.4839
  108CHL1   C2614245   4.788   3.463  15.375 -0.2756  0.0420 -0.6740
  108CHL1  H26A14246   4.700   3.413  15.329  0.1920 -0.7689 -0.7098
  108CHL1  H26B14247   4.758   3.516  15.467  1.0844  2.3573 -1.4700
  108CHL1  H26C14248   4.834   3.529  15.298 -1.1494  0.0112 -1.2365
  108CHL1   C2714249   4.900   3.270  15.272 -0.2057 -0.0656  0.0825
  108CHL1  H27A14250   4.977   3.189  15.277  0.2556  0.3132 -0.6870
  108CHL1  H27B14251   4.798   3.232  15.250 -0.0411  0.1502 -1.0997
  108CHL1  H27C14252   4.919   3.345  15.193 -5.5344  1.9838  0.3537
  109CHL1    C314253   3.077   6.661  16.590 -0.0020 -0.0189 -0.6932
  109CHL1    H314254   3.057   6.757  16.538 -0.8923 -0.5800 -1.4046
  109CHL1    O314255   3.057   6.689  16.730 -0.5502 -0.5711  0.4032
  109CHL1   H3'14256   3.083   6.609  16.775  0.2461  0.6015  2.1454
  109CHL1    C414257   2.976   6.549  16.564 -0.3335  0.9208 -0.2111
  109CHL1   H4A14258   3.006   6.458  16.620 -0.3840  1.7844  1.2720
  109CHL1   H4B14259   2.873   6.584  16.586 -1.0478 -0.5083 -1.1898
  109CHL1    C514260   2.988   6.520  16.418 -1.3358 -0.1117  0.8082
  109CHL1    C614261   2.886   6.542  16.339 -0.2572 -0.1009  0.1749
  109CHL1    H614262   2.789   6.572  16.381  0.7688  4.6274 -0.2172
  109CHL1    C714263   2.888   6.490  16.193 -0.9803 -0.5008  0.2473
  109CHL1   H7A14264   2.795   6.431  16.183 -1.1084 -0.4111  0.8247
  109CHL1   H7B14265   2.885   6.581  16.129 -0.8585  0.4676  1.5707
  109CHL1    C814266   3.009   6.396  16.155 -0.1618 -0.3058  0.2938
  109CHL1    H814267   3.001   6.292  16.194  0.4244 -1.0657 -1.5273
  109CHL1   C1414268   3.018   6.387  16.007 -0.4590  0.0976  0.2760
  109CHL1   H1414269   3.027   6.493  15.974  2.1640 -0.2692 -0.4008
  109CHL1   C1514270   2.900   6.332  15.922 -0.2380  0.3007  0.3798
  109CHL1  H15A14271   2.867   6.238  15.972 -0.4050 -0.7980 -1.6600
  109CHL1  H15B14272   2.817   6.405  15.924  0.0219  0.6096 -0.0384
  109CHL1   C1614273   2.968   6.303  15.788 -0.3869 -0.1275 -0.5579
  109CHL1  H16A14274   2.956   6.196  15.763 -0.0124 -0.5946  1.1211
  109CHL1  H16B14275   2.940   6.370  15.704  2.0205 -1.0496 -2.1752
  109CHL1   C1714276   3.124   6.310  15.810  0.8620  0.3282  0.3741
  109CHL1   H1714277   3.153   6.411  15.772  1.1041  0.1290  0.0325
  109CHL1   C1314278   3.152   6.309  15.960  1.1560  0.0097 -0.5564
  109CHL1   C1814279   3.154   6.161  15.997  0.5405  0.5768  0.3697
  109CHL1  H18A14280   3.085   6.095  15.940 -0.6469  0.9765  1.2895
  109CHL1  H18B14281   3.255   6.117  15.987  0.7192  1.0726 -0.0915
  109CHL1  H18C14282   3.135   6.142  16.105 -0.7761 -4.2145 -0.4999
  109CHL1   C1214283   3.271   6.385  16.013 -0.4055 -0.5280  0.1349
  109CHL1  H12A14284   3.371   6.349  15.980 -0.7074 -1.7653  0.5103
  109CHL1  H12B14285   3.272   6.486  15.967 -0.0001  0.2656  1.8080
  109CHL1   C1114286   3.270   6.395  16.164 -0.1017  0.0005 -0.0831
  109CHL1  H11A14287   3.276   6.288  16.194  0.2576  0.5337  1.8692
  109CHL1  H11B14288   3.359   6.452  16.197 -1.1177  2.0812 -0.7523
  109CHL1    C914289   3.141   6.461  16.213  0.9466 -0.0969 -0.5121
  109CHL1    H914290   3.134   6.565  16.174  2.5735  0.2426  0.0454
  109CHL1   C1014291   3.131   6.477  16.371  0.3575  0.5548  0.4088
  109CHL1   C1914292   3.166   6.337  16.425  0.5796  0.2926 -0.4576
  109CHL1  H19A14293   3.272   6.307  16.418  0.1352 -2.4141  2.1961
  109CHL1  H19B14294   3.149   6.328  16.534  1.1448 -0.0502 -0.3929
  109CHL1  H19C14295   3.102   6.262  16.374  0.3536  1.0766 -1.3603
  109CHL1    C114296   3.238   6.581  16.414  0.8158 -0.0531  0.6926
  109CHL1   H1A14297   3.329   6.524  16.386 -1.6753 -3.1477 -1.8885
  109CHL1   H1B14298   3.215   6.674  16.358 -1.3200  0.2882  2.0492
  109CHL1    C214299   3.221   6.617  16.563  0.6421  0.0914 -0.0656
  109CHL1   H2A14300   3.288   6.696  16.603  0.4930  0.4335 -0.4866
  109CHL1   H2B14301   3.245   6.522  16.615  0.5469 -0.3650 -0.8401
  109CHL1   C2014302   3.207   6.213  15.732  0.1334 -0.1494  0.4637
  109CHL1   H2014303   3.176   6.106  15.743 -0.5763 -0.1664 -1.4597
  109CHL1   C2114304   3.356   6.232  15.741  0.0605  0.3786 -0.2355
  109CHL1  H21A14305   3.403   6.162  15.669 -0.5390 -0.0927 -0.1777
  109CHL1  H21B14306   3.394   6.202  15.841  2.6868 -0.1196 -1.2986
  109CHL1  H21C14307   3.388   6.337  15.723 -1.2489  0.9611  0.6867
  109CHL1   C2214308   3.165   6.227  15.578  0.3493  0.2836  0.7786
  109CHL1  H22A14309   3.062   6.188  15.567  0.0868  1.0249  0.5646
  109CHL1  H22B14310   3.164   6.333  15.544  0.0062  0.0039 -0.1119
  109CHL1   C2314311   3.241   6.141  15.468  0.3895  0.0966  0.2959
  109CHL1  H23A14312   3.345   6.179  15.459 -0.2060  1.5595 -0.8121
  109CHL1  H23B14313   3.251   6.034  15.497  0.6654 -0.2479 -1.0287
  109CHL1   C2414314   3.172   6.145  15.328  1.0580 -0.3408  0.1080
  109CHL1  H24A14315   3.200   6.059  15.264  0.0727  1.1812 -2.5007
  109CHL1  H24B14316   3.063   6.145  15.347  0.7806  1.5289 -1.2583
  109CHL1   C2514317   3.209   6.277  15.249  0.1783  0.2936  0.1972
  109CHL1   H2514318   3.196   6.360  15.321  1.1662  0.3222  0.3608
  109CHL1   C2614319   3.356   6.286  15.200 -0.0482 -0.2169  0.1090
  109CHL1  H26A14320   3.378   6.201  15.132 -1.5265  0.6160 -1.4734
  109CHL1  H26B14321   3.381   6.382  15.150  0.0920 -1.4670 -2.3734
  109CHL1  H26C14322   3.423   6.271  15.288  1.4359 -0.4021 -1.0111
  109CHL1   C2714323   3.114   6.299  15.137  0.8783 -0.3915  0.3732
  109CHL1  H27A14324   3.005   6.308  15.156  0.8513  0.6695 -0.1981
  109CHL1  H27B14325   3.148   6.382  15.071 -0.7035  0.2571  0.3211
  109CHL1  H27C14326   3.127   6.215  15.065 -1.9860 -0.4980 -0.1357
  110CHL1    C314327   1.080   5.581  16.652  0.2202  0.9702 -0.0472
  110CHL1    H314328   1.013   5.492  16.657  0.1211  0.9571 -1.1768
  110CHL1    O314329   1.073   5.642  16.783 -0.1274  0.0665  0.0865
  110CHL1   H3'14330   1.101   5.733  16.776 -0.5867  0.2597  0.7539
  110CHL1    C414331   1.231   5.539  16.638  0.0066 -0.0074  0.3372
  110CHL1   H4A14332   1.295   5.625  16.667 -0.7669  0.6747  0.0427
  110CHL1   H4B14333   1.230   5.464  16.720  4.1086  0.0341  0.6031
  110CHL1    C514334   1.261   5.482  16.498 -0.3327  0.2404  0.4966
  110CHL1    C614335   1.321   5.360  16.478  0.3752 -0.6441  0.0484
  110CHL1    H614336   1.359   5.302  16.564  1.3098  1.6753  1.2912
  110CHL1    C714337   1.364   5.310  16.343  0.4964 -0.6397  0.2097
  110CHL1   H7A14338   1.471   5.284  16.355  0.1568 -1.4414  1.7304
  110CHL1   H7B14339   1.301   5.219  16.333  0.7627 -1.0496  1.9144
  110CHL1    C814340   1.352   5.416  16.229  0.3387 -0.3237 -0.1392
  110CHL1    H814341   1.431   5.493  16.241 -1.5224  1.9397 -1.5034
  110CHL1   C1414342   1.368   5.354  16.090 -0.0753 -0.4380  0.9952
  110CHL1   H1414343   1.285   5.280  16.077 -0.6325  0.7145 -3.8672
  110CHL1   C1514344   1.501   5.286  16.055 -0.0917  0.3831  0.1401
  110CHL1  H15A14345   1.587   5.350  16.084 -0.0006 -0.6501  2.3584
  110CHL1  H15B14346   1.524   5.188  16.102 -0.0680  0.0773 -0.4911
  110CHL1   C1614347   1.490   5.281  15.908  0.3754 -0.3639 -0.0032
  110CHL1  H16A14348   1.582   5.323  15.863 -0.6258  1.8336 -0.1727
  110CHL1  H16B14349   1.473   5.174  15.882  1.3380 -1.0478  2.0329
  110CHL1   C1714350   1.362   5.357  15.860  0.3834  0.0494  0.1648
  110CHL1   H1714351   1.282   5.280  15.858  0.5935 -0.1743 -2.1134
  110CHL1   C1314352   1.341   5.456  15.973 -0.1552 -0.2633  0.2602
  110CHL1   C1814353   1.452   5.558  15.979 -1.1163  0.5076 -0.2048
  110CHL1  H18A14354   1.551   5.534  15.935 -0.9583 -1.4332  1.1252
  110CHL1  H18B14355   1.424   5.654  15.929  1.0878  1.7077  0.7620
  110CHL1  H18C14356   1.465   5.600  16.081  0.0393  0.7393 -0.4412
  110CHL1   C1214357   1.203   5.508  15.985  0.9462 -0.4298  0.6781
  110CHL1  H12A14358   1.170   5.578  15.906 -1.7907  1.5254  3.3268
  110CHL1  H12B14359   1.125   5.430  15.973 -0.3620  0.9834 -0.4612
  110CHL1   C1114360   1.182   5.588  16.116  0.1773 -0.0985 -0.1471
  110CHL1  H11A14361   1.251   5.674  16.108 -0.6894  0.9869  2.7582
  110CHL1  H11B14362   1.084   5.639  16.118  1.0203  1.5721  0.2692
  110CHL1    C914363   1.219   5.499  16.242 -0.2950  0.6350  0.2623
  110CHL1    H914364   1.137   5.424  16.238 -0.2365  0.6139 -0.8063
  110CHL1   C1014365   1.221   5.575  16.382  0.5283 -0.1543 -0.4624
  110CHL1   C1914366   1.307   5.705  16.388 -0.1543  0.9359  0.7331
  110CHL1  H19A14367   1.282   5.764  16.298 -2.2469 -0.4683  0.3103
  110CHL1  H19B14368   1.284   5.760  16.482 -0.9378 -0.4014  1.3602
  110CHL1  H19C14369   1.413   5.674  16.383 -0.7014 -0.8170 -1.8071
  110CHL1    C114370   1.069   5.618  16.411  0.9327  0.5903 -0.0683
  110CHL1   H1A14371   1.045   5.689  16.329 -2.5342 -2.7052 -2.2038
  110CHL1   H1B14372   0.994   5.537  16.402 -0.2559  1.4328  1.7429
  110CHL1    C214373   1.040   5.676  16.544 -0.1682  0.5876 -0.0412
  110CHL1   H2A14374   0.930   5.689  16.542 -0.8836 -3.6616  0.9393
  110CHL1   H2B14375   1.078   5.779  16.555 -2.2317  1.8017 -3.0169
  110CHL1   C2014376   1.383   5.424  15.724  0.0139 -0.2741 -0.5295
  110CHL1   H2014377   1.463   5.500  15.734 -0.9313  0.5075  1.6854
  110CHL1   C2114378   1.255   5.489  15.667  0.3578  0.2971  0.1765
  110CHL1  H21A14379   1.159   5.447  15.702  1.5857 -2.9522 -0.0005
  110CHL1  H21B14380   1.264   5.499  15.557  0.1273 -0.2073  0.1118
  110CHL1  H21C14381   1.241   5.592  15.707 -3.3892 -0.0937  0.1546
  110CHL1   C2214382   1.447   5.334  15.617 -0.1029  0.7393 -0.2686
  110CHL1  H22A14383   1.465   5.390  15.523  0.6170  2.3705  0.8024
  110CHL1  H22B14384   1.550   5.298  15.642  0.3016  1.3010 -1.0851
  110CHL1   C2314385   1.363   5.210  15.572  0.3318 -0.2437 -0.3635
  110CHL1  H23A14386   1.354   5.150  15.665 -1.1353 -0.6870 -0.7572
  110CHL1  H23B14387   1.266   5.248  15.532  0.3568 -1.3635 -1.5562
  110CHL1   C2414388   1.433   5.124  15.459  0.7251 -0.3691  0.0026
  110CHL1  H24A14389   1.462   5.192  15.376 -0.0643  0.6422  0.5301
  110CHL1  H24B14390   1.529   5.094  15.506  0.8080 -0.3896 -0.1782
  110CHL1   C2514391   1.367   4.998  15.402  0.1354  0.0517  0.3741
  110CHL1   H2514392   1.269   5.036  15.366  1.1635  0.9936 -1.6233
  110CHL1   C2614393   1.445   4.943  15.280 -0.6118 -0.5388 -0.2693
  110CHL1  H26A14394   1.376   4.888  15.212 -0.8584 -1.0762  0.3996
  110CHL1  H26B14395   1.493   5.026  15.224 -1.5730 -0.7987 -1.5236
  110CHL1  H26C14396   1.522   4.870  15.314 -0.3233 -0.6799 -1.2039
  110CHL1   C2714397   1.365   4.883  15.510 -0.5524 -0.2998  0.2019
  110CHL1  H27A14398   1.325   4.916  15.608  0.3288  1.4916 -0.0100
  110CHL1  H27B14399   1.311   4.794  15.469 -0.3370  0.0094 -0.7699
  110CHL1  H27C14400   1.468   4.856  15.539 -1.0878 -0.6886  1.8488
  111CHL1    C314401   3.070   0.945  16.712  0.1517 -0.3893 -0.8573
  111CHL1    H314402   3.139   0.870  16.668 -1.3677 -0.8641 -2.5161
  111CHL1    O314403   3.089   0.959  16.848 -0.1917 -0.2928  0.0069
  111CHL1   H3'14404   3.081   1.053  16.863 -1.8022 -0.5710  1.1331
  111CHL1    C414405   3.103   1.082  16.655  1.2494  0.2148  0.6239
  111CHL1   H4A14406   3.038   1.165  16.688  0.6093 -0.0689  0.0948
  111CHL1   H4B14407   3.208   1.110  16.679  1.4412 -0.7768  0.9618
  111CHL1    C514408   3.079   1.070  16.501  0.2784 -0.1564  0.1611
  111CHL1    C614409   3.171   1.117  16.412 -0.5505  0.1850  0.1107
  111CHL1    H614410   3.268   1.152  16.453 -0.0341 -1.0915  0.0453
  111CHL1    C714411   3.150   1.128  16.267 -0.3367  0.0455  0.0529
  111CHL1   H7A14412   3.180   1.231  16.237  2.4004 -0.3815  1.1094
  111CHL1   H7B14413   3.222   1.061  16.215 -1.4704 -1.2936  0.1455
  111CHL1    C814414   3.001   1.102  16.229  1.0560 -0.0878  0.1262
  111CHL1    H814415   2.948   1.196  16.254  0.2663 -0.2336 -0.9181
  111CHL1   C1414416   2.992   1.084  16.082  0.5048  0.1475 -0.6284
  111CHL1   H1414417   3.054   0.993  16.068  0.4516  0.1301 -0.7512
  111CHL1   C1514418   3.062   1.179  15.981 -0.2932 -0.0242 -0.2280
  111CHL1  H15A14419   3.048   1.288  16.002  1.9948  0.1408  0.7950
  111CHL1  H15B14420   3.170   1.153  15.976 -0.5972 -1.6831  0.9148
  111CHL1   C1614421   2.988   1.153  15.848 -0.4132  0.2413 -0.4527
  111CHL1  H16A14422   2.931   1.242  15.816  1.6033  2.1325  0.9323
  111CHL1  H16B14423   3.057   1.127  15.765 -0.6535  0.6157 -0.7696
  111CHL1   C1714424   2.892   1.029  15.878  0.1733  0.0864  0.4954
  111CHL1   H1714425   2.964   0.945  15.871 -1.0549 -1.1435  1.8614
  111CHL1   C1314426   2.854   1.052  16.028  0.4093  0.0858  0.3127
  111CHL1   C1814427   2.760   1.173  16.024 -0.0542 -0.3801 -0.4368
  111CHL1  H18A14428   2.654   1.141  16.019  0.1072 -1.2965  1.1478
  111CHL1  H18B14429   2.771   1.221  16.124 -1.6207 -1.0764  0.1053
  111CHL1  H18C14430   2.795   1.260  15.964  2.0821 -0.8631  0.0389
  111CHL1   C1214431   2.786   0.935  16.101 -0.0034 -0.0123  0.3976
  111CHL1  H12A14432   2.682   0.926  16.064 -0.5456  0.3554  1.7917
  111CHL1  H12B14433   2.827   0.836  16.073 -0.0609  0.1412 -0.2490
  111CHL1   C1114434   2.787   0.952  16.255 -0.0898 -0.8202 -0.3980
  111CHL1  H11A14435   2.717   1.035  16.275 -0.7272 -1.2706 -0.7152
  111CHL1  H11B14436   2.744   0.869  16.316  2.0934 -0.2834  2.0383
  111CHL1    C914437   2.930   0.990  16.310  0.6559 -0.5751  0.2864
  111CHL1    H914438   2.990   0.896  16.307  3.6981  1.2634 -0.4665
  111CHL1   C1014439   2.936   1.020  16.463 -0.6356 -0.2041  0.1397
  111CHL1   C1914440   2.825   1.121  16.506  0.3218 -0.2433  0.2054
  111CHL1  H19A14441   2.830   1.212  16.441  1.0401  1.1264  2.0718
  111CHL1  H19B14442   2.725   1.075  16.492  0.7686 -0.4811 -2.8157
  111CHL1  H19C14443   2.846   1.153  16.611  0.7963  1.4025 -0.3603
  111CHL1    C114444   2.905   0.885  16.538  0.1918 -0.0809  0.9731
  111CHL1   H1A14445   2.800   0.857  16.518  1.3248 -2.7517 -2.0025
  111CHL1   H1B14446   2.968   0.807  16.491 -0.9507 -0.4638  0.0544
  111CHL1    C214447   2.933   0.884  16.683 -0.7109  0.2103  0.3723
  111CHL1   H2A14448   2.946   0.777  16.709  1.0483  0.1111 -0.7505
  111CHL1   H2B14449   2.848   0.937  16.732 -1.6434 -0.1828 -0.7734
  111CHL1   C2014450   2.778   1.008  15.782  0.4832  0.1165  0.6174
  111CHL1   H2014451   2.684   1.047  15.827  0.6867  1.1319  0.1884
  111CHL1   C2114452   2.755   0.854  15.767 -0.2499 -0.2498  0.2260
  111CHL1  H21A14453   2.775   0.798  15.860  1.0890  0.3347  0.3106
  111CHL1  H21B14454   2.824   0.806  15.694 -2.5468 -0.2613 -2.0894
  111CHL1  H21C14455   2.655   0.828  15.728  0.6465 -0.1134 -2.4144
  111CHL1   C2214456   2.797   1.080  15.644 -0.7779 -0.5682  0.0059
  111CHL1  H22A14457   2.806   1.190  15.651 -0.3004 -0.5861 -0.2957
  111CHL1  H22B14458   2.891   1.033  15.607 -0.8636 -0.1971 -0.6929
  111CHL1   C2314459   2.689   1.044  15.544  0.1995  0.0750  0.0043
  111CHL1  H23A14460   2.724   1.064  15.440  0.8472 -1.2256 -0.0453
  111CHL1  H23B14461   2.667   0.936  15.529  0.1668  0.1090 -0.2040
  111CHL1   C2414462   2.555   1.120  15.556  1.1920 -0.3905  0.6814
  111CHL1  H24A14463   2.523   1.087  15.657  1.3415 -3.0940 -0.0918
  111CHL1  H24B14464   2.565   1.230  15.541  0.2645 -0.1137  1.9774
  111CHL1   C2514465   2.437   1.057  15.484  0.1440 -0.1688  0.8136
  111CHL1   H2514466   2.450   0.949  15.508  2.6637 -0.0074  0.3450
  111CHL1   C2614467   2.303   1.122  15.539 -0.5990 -0.4369 -0.2352
  111CHL1  H26A14468   2.211   1.074  15.498 -2.2812  1.2486  1.3316
  111CHL1  H26B14469   2.296   1.114  15.650  0.7919 -0.2523 -0.1202
  111CHL1  H26C14470   2.317   1.230  15.518  2.6358 -0.6318  0.5238
  111CHL1   C2714471   2.451   1.078  15.333  0.1739  0.2427 -0.9544
  111CHL1  H27A14472   2.373   1.024  15.275 -0.6129  2.1187 -1.7255
  111CHL1  H27B14473   2.433   1.184  15.302  0.6313  0.2950 -1.0490
  111CHL1  H27C14474   2.554   1.055  15.298  0.9044  1.1788  0.4928
  112CHL1    C314475   4.361   0.930  16.777  1.1485 -0.1399 -0.0745
  112CHL1    H314476   4.289   0.859  16.733  0.1177  1.2248 -0.6816
  112CHL1    O314477   4.323   0.967  16.907 -0.8821 -0.1449  0.0778
  112CHL1   H3'14478   4.347   0.894  16.965  0.3995  0.1503 -0.0422
  112CHL1    C414479   4.499   0.859  16.762  0.6404 -0.0944 -0.2664
  112CHL1   H4A14480   4.564   0.938  16.805  1.0184  0.3398 -1.6050
  112CHL1   H4B14481   4.492   0.767  16.826 -2.1266  0.7243  0.7879
  112CHL1    C514482   4.546   0.840  16.619  0.6351  0.2203  0.2682
  112CHL1    C614483   4.573   0.719  16.572 -0.7936  0.5235  0.5680
  112CHL1    H614484   4.584   0.636  16.644 -1.0064 -0.8599 -0.9325
  112CHL1    C714485   4.616   0.687  16.435 -0.5568  0.2114  0.0562
  112CHL1   H7A14486   4.692   0.606  16.438 -0.6758  0.0699 -0.5885
  112CHL1   H7B14487   4.532   0.666  16.365 -0.6038  1.8497 -0.4112
  112CHL1    C814488   4.676   0.818  16.358 -0.4542  0.4672  0.3024
  112CHL1    H814489   4.774   0.842  16.404 -0.1498 -0.9671  0.4495
  112CHL1   C1414490   4.699   0.790  16.218 -0.1425 -0.2675  0.9463
  112CHL1   H1414491   4.605   0.752  16.173  0.3041  0.8443 -1.0690
  112CHL1   C1514492   4.804   0.680  16.167 -0.1725 -0.1599 -0.7321
  112CHL1  H15A14493   4.883   0.678  16.245  0.2095 -0.5617 -1.1219
  112CHL1  H15B14494   4.744   0.587  16.157 -0.6192 -0.3320  2.4455
  112CHL1   C1614495   4.868   0.724  16.039  0.7566 -0.8174  0.4336
  112CHL1  H16A14496   4.974   0.751  16.056  0.1519  2.0419  0.3558
  112CHL1  H16B14497   4.876   0.656  15.952  1.5584  0.4155 -0.5014
  112CHL1   C1714498   4.783   0.849  15.997  0.2592 -0.0356 -0.5575
  112CHL1   H1714499   4.688   0.817  15.949  1.5389 -0.4880 -2.9438
  112CHL1   C1314500   4.742   0.915  16.135 -0.0525  0.2814 -0.8166
  112CHL1   C1814501   4.876   0.979  16.191  0.1458 -0.3214  0.2307
  112CHL1  H18A14502   4.912   1.069  16.137  0.3729  2.0617  4.0131
  112CHL1  H18B14503   4.867   1.008  16.298 -1.0545 -0.1477  0.0991
  112CHL1  H18C14504   4.955   0.902  16.201  0.0861 -0.7446 -2.0829
  112CHL1   C1214505   4.621   1.009  16.130  0.4106 -0.6833  0.2290
  112CHL1  H12A14506   4.649   1.098  16.070  0.9107 -0.1111  1.2705
  112CHL1  H12B14507   4.538   0.958  16.077 -0.0480  1.2088 -0.9584
  112CHL1   C1114508   4.592   1.057  16.272  0.1722  0.2184 -0.2110
  112CHL1  H11A14509   4.674   1.128  16.298  0.7738  0.0938 -1.7066
  112CHL1  H11B14510   4.504   1.125  16.275 -0.3147 -0.3667 -1.0730
  112CHL1    C914511   4.574   0.934  16.375 -0.4011  0.3290  0.1471
  112CHL1    H914512   4.482   0.892  16.329  0.5316 -1.8545  0.1788
  112CHL1   C1014513   4.546   0.968  16.526 -0.0132  0.3740 -0.0022
  112CHL1   C1914514   4.659   1.073  16.566 -0.0985  0.5174 -0.0921
  112CHL1  H19A14515   4.648   1.157  16.494 -0.9698 -0.7539 -1.5259
  112CHL1  H19B14516   4.669   1.110  16.670  0.7917 -0.2568  0.1131
  112CHL1  H19C14517   4.758   1.031  16.539  0.4400  1.4021  0.4898
  112CHL1    C114518   4.408   1.028  16.545 -0.3045 -0.4172  0.5132
  112CHL1   H1A14519   4.388   1.109  16.472  0.0023 -2.1380 -1.5688
  112CHL1   H1B14520   4.339   0.953  16.503 -1.3895  1.0325 -0.3940
  112CHL1    C214521   4.353   1.059  16.685  0.0890  0.8904  0.4204
  112CHL1   H2A14522   4.245   1.084  16.681 -0.0468  0.3138  0.4602
  112CHL1   H2B14523   4.415   1.139  16.730 -3.3042  3.1543  1.4281
  112CHL1   C2014524   4.866   0.928  15.894  0.0837  0.3245 -0.3832
  112CHL1   H2014525   4.950   0.974  15.951  0.2152  1.8723 -1.7583
  112CHL1   C2114526   4.787   1.043  15.824  0.4315 -0.7057 -0.9743
  112CHL1  H21A14527   4.745   1.118  15.895 -2.8275 -0.9542 -2.4224
  112CHL1  H21B14528   4.709   1.007  15.754  0.3093 -1.6394 -0.3759
  112CHL1  H21C14529   4.856   1.107  15.765  0.8975  0.1100  0.4154
  112CHL1   C2214530   4.951   0.849  15.788 -0.1592  0.1191  0.3490
  112CHL1  H22A14531   4.995   0.921  15.716  1.5141 -0.9235  0.2877
  112CHL1  H22B14532   5.034   0.790  15.832  1.2505  1.0762 -0.9244
  112CHL1   C2314533   4.861   0.770  15.698  0.3926  0.2202  0.3161
  112CHL1  H23A14534   4.787   0.702  15.745  1.3156  0.0870  1.6362
  112CHL1  H23B14535   4.808   0.849  15.642  0.1777  1.1843  1.8315
  112CHL1   C2414536   4.940   0.679  15.600 -0.4200  0.5880 -0.1851
  112CHL1  H24A14537   4.986   0.747  15.526 -1.3679  0.6378 -0.7520
  112CHL1  H24B14538   5.019   0.619  15.650 -1.0674  0.0033  0.1601
  112CHL1   C2514539   4.849   0.587  15.510 -0.3692  0.5913 -0.3674
  112CHL1   H2514540   4.791   0.518  15.574  1.1055 -1.0477 -0.7073
  112CHL1   C2614541   4.755   0.670  15.427  0.5038 -0.3229  0.4667
  112CHL1  H26A14542   4.794   0.753  15.364 -2.9838  0.2840 -1.1314
  112CHL1  H26B14543   4.711   0.599  15.354 -0.6994  1.0166 -0.1680
  112CHL1  H26C14544   4.680   0.705  15.501 -0.4262 -0.6671 -0.2909
  112CHL1   C2714545   4.917   0.491  15.413 -0.3254 -0.7424 -0.4101
  112CHL1  H27A14546   4.981   0.557  15.351 -0.2015 -0.1846  0.3014
  112CHL1  H27B14547   4.983   0.422  15.471 -0.9658 -1.3375 -0.3709
  112CHL1  H27C14548   4.839   0.427  15.366  0.1645 -0.9365 -0.9785
  113CHL1    C314549   0.269   5.617  16.719 -0.6596  0.1793 -0.1713
  113CHL1    H314550   0.183   5.622  16.648 -0.3899  1.5192 -0.4432
  113CHL1    O314551   0.225   5.637  16.849  0.6023 -0.3651  0.0295
  113CHL1   H3'14552   0.253   5.555  16.890 -2.2244 -1.3715  0.1284
  113CHL1    C414553   0.348   5.478  16.713 -0.4830  0.0991  0.7929
  113CHL1   H4A14554   0.436   5.472  16.781 -0.8078 -0.3338  1.1836
  113CHL1   H4B14555   0.275   5.396  16.728 -1.8037  0.9889 -0.5112
  113CHL1    C514556   0.396   5.468  16.569  0.3478 -0.0560 -0.5461
  113CHL1    C614557   0.362   5.358  16.497 -0.1013  0.7422  0.7381
  113CHL1    H614558   0.318   5.270  16.547  1.9584  1.4495  4.1405
  113CHL1    C714559   0.426   5.326  16.366 -0.2072 -0.1677 -0.1814
  113CHL1   H7A14560   0.456   5.220  16.362  0.7273 -0.1178  2.9018
  113CHL1   H7B14561   0.346   5.342  16.291 -0.9410  1.7996  0.9299
  113CHL1    C814562   0.543   5.418  16.333 -0.3134  0.3121  0.5462
  113CHL1    H814563   0.634   5.381  16.385  0.1559 -0.2315 -0.6216
  113CHL1   C1414564   0.562   5.400  16.179 -0.3101  0.0460  0.1975
  113CHL1   H1414565   0.477   5.452  16.129  0.3438 -0.2299 -1.2495
  113CHL1   C1514566   0.568   5.259  16.111 -0.4102  0.2177  0.1330
  113CHL1  H15A14567   0.613   5.186  16.182  0.5195 -0.8492 -1.4983
  113CHL1  H15B14568   0.462   5.238  16.084  0.0651 -1.8785 -0.2739
  113CHL1   C1614569   0.643   5.289  15.979 -0.0842  0.1676 -0.2986
  113CHL1  H16A14570   0.728   5.219  15.964  0.3463  0.0531  2.1759
  113CHL1  H16B14571   0.592   5.286  15.881  1.2173  1.2797 -1.0353
  113CHL1   C1714572   0.684   5.446  15.985 -0.5450 -0.3480 -0.2368
  113CHL1   H1714573   0.601   5.497  15.931  0.0391 -0.7531 -1.5630
  113CHL1   C1314574   0.686   5.480  16.136  0.0161  0.3872  0.8128
  113CHL1   C1814575   0.814   5.424  16.189 -0.3778  0.3933  0.1610
  113CHL1  H18A14576   0.830   5.318  16.160 -1.4844  0.3672 -0.3902
  113CHL1  H18B14577   0.897   5.490  16.155  0.7513 -1.5571 -1.0708
  113CHL1  H18C14578   0.811   5.414  16.299 -1.4449 -2.5731 -0.0647
  113CHL1   C1214579   0.667   5.628  16.167 -1.0960 -0.1273 -0.0782
  113CHL1  H12A14580   0.765   5.675  16.145 -1.3297 -0.3627 -1.7574
  113CHL1  H12B14581   0.581   5.674  16.113  0.1076  0.8022 -1.2460
  113CHL1   C1114582   0.635   5.652  16.316  0.0974 -0.4218  0.3507
  113CHL1  H11A14583   0.722   5.638  16.384  1.1517  1.5083 -0.5211
  113CHL1  H11B14584   0.619   5.760  16.335 -0.0252 -0.5494  1.0089
  113CHL1    C914585   0.522   5.568  16.373 -0.2721 -0.8927  0.1896
  113CHL1    H914586   0.437   5.594  16.307  0.2392  0.3907  0.0077
  113CHL1   C1014587   0.487   5.583  16.520 -0.9387  0.2748  1.2335
  113CHL1   C1914588   0.617   5.573  16.605  1.1817  0.0401  0.3863
  113CHL1  H19A14589   0.663   5.472  16.600 -0.5004 -0.7075 -1.0999
  113CHL1  H19B14590   0.692   5.653  16.585  1.2553 -0.1291 -0.0340
  113CHL1  H19C14591   0.594   5.600  16.710  1.2052  1.2544  0.1042
  113CHL1    C114592   0.422   5.720  16.543 -0.6616  0.3962  0.3107
  113CHL1   H1A14593   0.504   5.791  16.520  1.4617 -2.3358 -1.2723
  113CHL1   H1B14594   0.335   5.738  16.477 -0.5923  1.0499  0.3897
  113CHL1    C214595   0.361   5.738  16.680 -0.0284 -0.7152  0.2191
  113CHL1   H2A14596   0.298   5.829  16.669  0.3283 -0.2294  1.8551
  113CHL1   H2B14597   0.443   5.752  16.754 -0.9150  0.7174  0.9640
  113CHL1   C2014598   0.809   5.475  15.905  0.1421  0.8081 -0.5457
  113CHL1   H2014599   0.888   5.411  15.951 -1.3230 -0.4298  0.3399
  113CHL1   C2114600   0.850   5.625  15.893 -0.1520  0.5520  0.2046
  113CHL1  H21A14601   0.884   5.662  15.992  1.6533  1.7642 -0.8211
  113CHL1  H21B14602   0.762   5.682  15.856 -0.7819  0.8676  2.0848
  113CHL1  H21C14603   0.934   5.634  15.821 -0.0743  0.1458  0.2434
  113CHL1   C2214604   0.799   5.414  15.760  0.3747  0.0214 -0.0202
  113CHL1  H22A14605   0.890   5.442  15.702  0.4932  2.2734  1.1485
  113CHL1  H22B14606   0.796   5.304  15.776  0.1890  0.0277 -0.0181
  113CHL1   C2314607   0.682   5.464  15.678  0.2987  0.1252  0.4806
  113CHL1  H23A14608   0.581   5.444  15.721 -0.2343 -1.9947 -1.5463
  113CHL1  H23B14609   0.676   5.574  15.671 -1.0223  0.1251  1.0965
  113CHL1   C2414610   0.686   5.407  15.539 -1.1577  0.6153  0.5908
  113CHL1  H24A14611   0.782   5.444  15.496 -2.0852  2.1594 -0.2054
  113CHL1  H24B14612   0.698   5.297  15.534  0.4779  0.7886 -0.0276
  113CHL1   C2514613   0.571   5.447  15.443 -0.0790  0.1481 -0.0554
  113CHL1   H2514614   0.551   5.553  15.469 -1.4159  0.5402 -2.4430
  113CHL1   C2614615   0.618   5.462  15.299  0.1262  1.0413 -0.2490
  113CHL1  H26A14616   0.540   5.485  15.224 -0.4754 -0.3909 -0.0944
  113CHL1  H26B14617   0.698   5.539  15.302  0.9650  0.2011 -0.5780
  113CHL1  H26C14618   0.669   5.366  15.275 -2.7518 -0.7087  0.1693
  113CHL1   C2714619   0.445   5.369  15.473  0.5632 -0.2672  0.4833
  113CHL1  H27A14620   0.430   5.356  15.582 -0.7081  3.9352  0.9537
  113CHL1  H27B14621   0.355   5.408  15.420  2.2022  0.4616 -1.9618
  113CHL1  H27C14622   0.454   5.268  15.426 -1.8656  0.6047 -2.1260
  114CHL1    C314623   5.327   0.367  16.728 -0.9327  0.3470 -0.1571
  114CHL1    H314624   5.434   0.337  16.717 -1.7101 -2.1397 -1.6122
  114CHL1    O314625   5.294   0.371  16.867 -1.1157  0.3985  0.1192
  114CHL1   H3'14626   5.300   0.279  16.893  0.0413  0.2873 -0.4700
  114CHL1    C414627   5.310   0.507  16.663 -0.3033 -0.4796  0.2666
  114CHL1   H4A14628   5.206   0.546  16.675 -0.5515 -0.8846 -0.4895
  114CHL1   H4B14629   5.375   0.578  16.718 -2.4971 -0.2366  2.7314
  114CHL1    C514630   5.341   0.510  16.517  0.2302  0.3917  0.1062
  114CHL1    C614631   5.419   0.604  16.469  0.0408 -0.1374  0.7892
  114CHL1    H614632   5.461   0.692  16.519 -0.4357  0.0456  0.8791
  114CHL1    C714633   5.448   0.606  16.323  0.0067  0.3056 -0.2604
  114CHL1   H7A14634   5.443   0.711  16.290 -2.7847  0.2442 -0.2887
  114CHL1   H7B14635   5.544   0.552  16.312 -0.3626 -0.2471 -0.8465
  114CHL1    C814636   5.345   0.528  16.228 -0.6732  0.7843 -0.7455
  114CHL1    H814637   5.253   0.590  16.237 -0.3523  1.1097  0.4735
  114CHL1   C1414638   5.392   0.506  16.085 -0.3283  0.2564  0.4371
  114CHL1   H1414639   5.485   0.447  16.089 -0.6492 -0.1768  1.7401
  114CHL1   C1514640   5.430   0.631  16.010 -0.0789 -0.2656  0.3712
  114CHL1  H15A14641   5.353   0.710  16.010 -1.3130 -1.4355  1.1373
  114CHL1  H15B14642   5.530   0.667  16.043  0.2809 -0.4980 -0.4361
  114CHL1   C1614643   5.446   0.586  15.861  0.1564  0.0710  0.4679
  114CHL1  H16A14644   5.399   0.657  15.790  3.9842 -0.1344 -2.6200
  114CHL1  H16B14645   5.553   0.570  15.834  0.1291  0.1282  0.3322
  114CHL1   C1714646   5.377   0.443  15.859 -0.4286 -0.3220 -0.3262
  114CHL1   H1714647   5.466   0.376  15.865 -0.7199 -0.6228  0.7665
  114CHL1   C1314648   5.301   0.428  15.991 -0.0454 -0.3951  0.0840
  114CHL1   C1814649   5.166   0.505  15.984 -0.3653  0.2934 -0.0055
  114CHL1  H18A14650   5.088   0.453  15.926  0.7493 -0.0349 -1.2446
  114CHL1  H18B14651   5.129   0.527  16.087  1.1259 -0.1861  0.6569
  114CHL1  H18C14652   5.178   0.609  15.945 -2.9733  1.0132  0.8934
  114CHL1   C1214653   5.278   0.287  16.052  0.3248 -0.2476  0.4576
  114CHL1  H12A14654   5.225   0.217  15.984  1.2974  0.7824 -1.4486
  114CHL1  H12B14655   5.384   0.253  16.060  0.6321  0.2365 -1.1369
  114CHL1   C1114656   5.231   0.298  16.192  0.0908  0.0990 -0.0341
  114CHL1  H11A14657   5.124   0.328  16.190 -0.1370 -0.6590  0.4924
  114CHL1  H11B14658   5.236   0.195  16.232 -0.3328  0.5208  1.1212
  114CHL1    C914659   5.316   0.388  16.286 -0.1214  0.5495 -0.2680
  114CHL1    H914660   5.411   0.331  16.295 -1.4503 -1.6354  0.7293
  114CHL1   C1014661   5.275   0.390  16.438 -0.3559 -0.2084  0.1240
  114CHL1   C1914662   5.121   0.408  16.432 -0.3391 -0.0621  0.4213
  114CHL1  H19A14663   5.071   0.433  16.528 -2.3839 -0.5505 -0.4653
  114CHL1  H19B14664   5.088   0.494  16.370  0.6760 -1.2325 -1.8622
  114CHL1  H19C14665   5.063   0.320  16.399 -1.9841  1.3428 -0.6471
  114CHL1    C114666   5.297   0.256  16.509 -0.9358  0.1114 -0.5096
  114CHL1   H1A14667   5.246   0.181  16.445 -0.2480 -0.8997  0.1015
  114CHL1   H1B14668   5.406   0.235  16.514 -1.2490 -1.2131  2.0839
  114CHL1    C214669   5.249   0.257  16.652  0.0175  0.0241  0.3383
  114CHL1   H2A14670   5.270   0.160  16.702  0.4090  0.9504  2.0404
  114CHL1   H2B14671   5.140   0.272  16.661 -0.0346  0.8153 -1.2606
  114CHL1   C2014672   5.313   0.412  15.720 -0.6420  0.2433 -0.5956
  114CHL1   H2014673   5.240   0.493  15.696 -0.5454  0.4508 -0.1950
  114CHL1   C2114674   5.234   0.278  15.732 -0.0484  0.6420  0.4757
  114CHL1  H21A14675   5.183   0.262  15.635 -0.5399 -1.3233  1.0265
  114CHL1  H21B14676   5.156   0.289  15.811 -0.3290 -1.8779  0.6309
  114CHL1  H21C14677   5.298   0.195  15.767  1.8950  1.5971 -0.6239
  114CHL1   C2214678   5.425   0.408  15.612 -0.1670  0.1905 -0.0934
  114CHL1  H22A14679   5.485   0.501  15.625  0.5861 -0.6355  3.4837
  114CHL1  H22B14680   5.500   0.330  15.637 -0.7818 -0.1656  0.6724
  114CHL1   C2314681   5.373   0.384  15.467  0.1518  0.5303  0.2391
  114CHL1  H23A14682   5.303   0.298  15.476 -1.7821  2.1009  0.8904
  114CHL1  H23B14683   5.318   0.479  15.448  1.3120  1.1885  0.1320
  114CHL1   C2414684   5.481   0.357  15.370 -0.4322  0.4660  0.0995
  114CHL1  H24A14685   5.564   0.431  15.370 -1.1587  1.2865 -0.0400
  114CHL1  H24B14686   5.526   0.260  15.402 -0.0992  0.7858  0.6154
  114CHL1   C2514687   5.438   0.348  15.226  0.2830 -0.3167 -0.0276
  114CHL1   H2514688   5.352   0.278  15.225  0.9449 -1.1474 -0.4811
  114CHL1   C2614689   5.384   0.482  15.170 -0.1875 -1.1016  0.5046
  114CHL1  H26A14690   5.474   0.547  15.158 -0.8207 -0.5880 -2.1452
  114CHL1  H26B14691   5.340   0.453  15.072 -1.2427 -0.7609  0.8694
  114CHL1  H26C14692   5.309   0.536  15.231  0.9061  3.9670 -2.1260
  114CHL1   C2714693   5.549   0.296  15.134  0.4916 -0.3206  0.1164
  114CHL1  H27A14694   5.623   0.379  15.127  2.0014 -1.1899  3.5603
  114CHL1  H27B14695   5.599   0.209  15.182  0.3278 -0.5394 -0.1086
  114CHL1  H27C14696   5.507   0.271  15.034  0.5970 -0.6011  0.1422
  115CHL1    C314697   1.873   1.054  16.583 -0.0845  0.5089 -0.1865
  115CHL1    H314698   1.903   0.947  16.576 -1.1418 -0.2284  3.9985
  115CHL1    O314699   1.887   1.072  16.726 -0.4768 -0.1967  0.1373
  115CHL1   H3'14700   1.869   1.165  16.740  1.4919  0.1900  0.3795
  115CHL1    C414701   1.964   1.147  16.491  0.1295 -0.6876  0.3727
  115CHL1   H4A14702   1.920   1.243  16.528  0.4477 -0.9121  1.3730
  115CHL1   H4B14703   2.065   1.144  16.538 -0.3098  1.0545  1.5415
  115CHL1    C514704   1.951   1.125  16.343  0.5042 -0.3478 -0.8587
  115CHL1    C614705   2.052   1.093  16.265 -0.0885  0.0537 -0.2348
  115CHL1    H614706   2.151   1.086  16.311 -0.2246 -0.5281 -0.0272
  115CHL1    C714707   2.054   1.054  16.122  0.1574  0.0954  0.6126
  115CHL1   H7A14708   2.141   1.102  16.072  1.2993 -1.8235  0.6467
  115CHL1   H7B14709   2.062   0.944  16.105  1.1769  0.3369 -0.6547
  115CHL1    C814710   1.924   1.102  16.064  0.2032  0.1548 -0.3790
  115CHL1    H814711   1.928   1.213  16.053  1.3733  0.1865  0.2400
  115CHL1   C1414712   1.897   1.038  15.932 -0.3657  0.4579  0.3046
  115CHL1   H1414713   1.903   0.929  15.950  0.1363  0.4552  0.1361
  115CHL1   C1514714   2.001   1.074  15.830 -0.8200 -0.7352  0.5016
  115CHL1  H15A14715   2.037   1.180  15.833  0.0067 -1.0373  1.9897
  115CHL1  H15B14716   2.095   1.017  15.848 -1.4712 -1.9264  0.2432
  115CHL1   C1614717   1.943   1.029  15.696  0.4586  0.0881  0.0913
  115CHL1  H16A14718   1.957   1.102  15.613  0.1776  0.7481  0.6246
  115CHL1  H16B14719   1.983   0.929  15.667 -2.9598 -1.1700 -0.7728
  115CHL1   C1714720   1.793   0.996  15.724 -0.4676  0.3319  0.2851
  115CHL1   H1714721   1.785   0.890  15.756 -1.5853 -0.4896 -2.4451
  115CHL1   C1314722   1.769   1.067  15.860 -0.4530 -0.3773 -1.2936
  115CHL1   C1814723   1.757   1.221  15.831  1.0532  0.1084 -0.0264
  115CHL1  H18A14724   1.850   1.265  15.791  1.1417  1.2083  1.3480
  115CHL1  H18B14725   1.670   1.242  15.764  1.4009  0.2088 -0.4475
  115CHL1  H18C14726   1.743   1.280  15.924  0.7001 -1.0236  0.6572
  115CHL1   C1214727   1.648   1.019  15.946 -0.9792 -0.6050 -0.1956
  115CHL1  H12A14728   1.549   1.045  15.904 -1.7556 -0.6472  1.5260
  115CHL1  H12B14729   1.655   0.908  15.946 -0.1747 -0.5601  0.2757
  115CHL1   C1114730   1.665   1.078  16.086  0.2625 -0.3959 -0.6422
  115CHL1  H11A14731   1.637   1.185  16.084  1.5201 -0.0516 -2.5621
  115CHL1  H11B14732   1.588   1.026  16.147 -0.4468  2.4784  1.0683
  115CHL1    C914733   1.801   1.061  16.155 -0.4762 -0.0453  0.3693
  115CHL1    H914734   1.818   0.954  16.176  1.8343  0.1350 -0.3235
  115CHL1   C1014735   1.808   1.120  16.294 -0.2895 -0.0157 -0.1930
  115CHL1   C1914736   1.760   1.261  16.299 -0.1628 -0.3738  0.0960
  115CHL1  H19A14737   1.650   1.264  16.286 -0.5446 -0.1556  2.6970
  115CHL1  H19B14738   1.787   1.318  16.391  0.2775  0.8643 -0.7831
  115CHL1  H19C14739   1.802   1.311  16.210  0.6263 -0.3305  0.4753
  115CHL1    C114740   1.722   1.034  16.387 -0.3483  0.0657  0.1151
  115CHL1   H1A14741   1.615   1.053  16.365  0.0335  0.7501 -1.2259
  115CHL1   H1B14742   1.745   0.925  16.384  3.6108  0.6704  1.7467
  115CHL1    C214743   1.733   1.067  16.536 -0.4788  0.2957 -0.8671
  115CHL1   H2A14744   1.665   1.001  16.594 -0.2929  0.0717 -0.8989
  115CHL1   H2B14745   1.708   1.173  16.554  0.8702  0.7644 -1.6140
  115CHL1   C2014746   1.698   1.004  15.610  0.0747  0.0314 -0.3011
  115CHL1   H2014747   1.598   1.022  15.656 -0.2911 -2.1022 -0.1671
  115CHL1   C2114748   1.695   0.867  15.542 -0.4754  0.0921  0.2799
  115CHL1  H21A14749   1.637   0.857  15.448 -0.6458  1.2785  0.2443
  115CHL1  H21B14750   1.659   0.791  15.614 -1.1091 -0.1934 -0.3279
  115CHL1  H21C14751   1.799   0.835  15.522 -0.1524  0.8627  0.6708
  115CHL1   C2214752   1.724   1.115  15.508  0.0081 -0.3245  0.0742
  115CHL1  H22A14753   1.731   1.218  15.548 -0.0722 -0.7276  1.1391
  115CHL1  H22B14754   1.823   1.090  15.464  0.3186  1.5049 -0.3623
  115CHL1   C2314755   1.610   1.132  15.401 -0.0031  0.3310 -0.2281
  115CHL1  H23A14756   1.589   1.040  15.342 -2.3188  0.8712 -0.2983
  115CHL1  H23B14757   1.526   1.162  15.467 -0.3013 -1.3955  0.2313
  115CHL1   C2414758   1.650   1.241  15.299  0.2132 -0.1792  0.4983
  115CHL1  H24A14759   1.678   1.330  15.360 -1.5349 -0.3120  1.5456
  115CHL1  H24B14760   1.735   1.210  15.234  0.9324  1.9470  0.3295
  115CHL1   C2514761   1.536   1.282  15.207 -0.0495 -0.1390  0.1794
  115CHL1   H2514762   1.444   1.303  15.266  0.3388  0.7580  0.4812
  115CHL1   C2614763   1.587   1.404  15.125 -0.3418  0.2880  0.6181
  115CHL1  H26A14764   1.684   1.383  15.074 -1.0470 -0.5232 -0.4443
  115CHL1  H26B14765   1.516   1.430  15.043  1.1397  0.9117 -0.5045
  115CHL1  H26C14766   1.598   1.491  15.193  4.1202 -0.5614  1.2970
  115CHL1   C2714767   1.507   1.175  15.108 -0.1098 -0.7836  0.2179
  115CHL1  H27A14768   1.600   1.129  15.068  0.6276 -0.0620  1.0588
  115CHL1  H27B14769   1.451   1.090  15.152  0.3417 -0.5869  1.1817
  115CHL1  H27C14770   1.449   1.215  15.022 -0.8516 -1.3287  0.4522
  116CHL1    C314771   2.409   1.454  16.696  0.2279 -0.0015 -0.4022
  116CHL1    H314772   2.368   1.557  16.692  0.3786  0.3696  3.6664
  116CHL1    O314773   2.420   1.439  16.832  0.0491 -0.0790 -0.1213
  116CHL1   H3'14774   2.470   1.358  16.845  1.8212  0.6444 -1.8226
  116CHL1    C414775   2.321   1.355  16.640 -0.1417  0.1283  0.1731
  116CHL1   H4A14776   2.363   1.252  16.644  1.5218  0.7868  1.5004
  116CHL1   H4B14777   2.222   1.355  16.690  0.7947 -4.1807  2.5016
  116CHL1    C514778   2.310   1.384  16.493  0.2619  0.1040 -0.8253
  116CHL1    C614779   2.189   1.422  16.445  0.4442 -0.2383  0.4791
  116CHL1    H614780   2.105   1.425  16.516 -1.4095  0.5144 -1.6300
  116CHL1    C714781   2.160   1.453  16.302 -0.6865 -0.4773  0.4524
  116CHL1   H7A14782   2.064   1.404  16.275 -0.5649 -0.1286 -0.6731
  116CHL1   H7B14783   2.151   1.560  16.272  0.8071 -1.1797 -2.9962
  116CHL1    C814784   2.275   1.405  16.211 -0.8025  0.9013 -0.5347
  116CHL1    H814785   2.273   1.294  16.209 -0.4450  0.8981 -1.4891
  116CHL1   C1414786   2.259   1.472  16.071  0.0863 -0.2382  0.5477
  116CHL1   H1414787   2.273   1.582  16.078  1.6054 -0.2553 -1.3975
  116CHL1   C1514788   2.121   1.465  16.005 -0.5273  0.2844  0.3859
  116CHL1  H15A14789   2.082   1.364  16.032 -1.1622  0.3204 -0.3874
  116CHL1  H15B14790   2.041   1.536  16.036 -0.6441 -0.8035  2.7745
  116CHL1   C1614791   2.146   1.488  15.854 -0.4352  0.0462 -0.3507
  116CHL1  H16A14792   2.115   1.401  15.792 -0.2139 -0.4164  0.1741
  116CHL1  H16B14793   2.082   1.573  15.823 -0.6946 -0.6535 -1.8459
  116CHL1   C1714794   2.298   1.507  15.846 -0.5737 -0.4218  0.5783
  116CHL1   H1714795   2.322   1.614  15.862 -0.1292 -0.4585  0.1883
  116CHL1   C1314796   2.361   1.436  15.965 -0.2447  0.1172  0.0783
  116CHL1   C1814797   2.352   1.283  15.947  0.6540  0.4035  0.4368
  116CHL1  H18A14798   2.361   1.222  16.039 -0.0633 -1.3265 -0.5878
  116CHL1  H18B14799   2.257   1.255  15.897  1.5877  0.7269 -1.5949
  116CHL1  H18C14800   2.425   1.231  15.882 -1.6594 -0.6948 -1.4383
  116CHL1   C1214801   2.501   1.474  16.023 -0.8430 -0.2402  0.1640
  116CHL1  H12A14802   2.581   1.437  15.955 -0.2586  2.3004 -0.6217
  116CHL1  H12B14803   2.499   1.585  16.016  4.4574  0.2030  1.4535
  116CHL1   C1114804   2.523   1.417  16.158 -0.1356  0.2017 -0.6069
  116CHL1  H11A14805   2.531   1.307  16.145  0.2086 -0.0841  1.5806
  116CHL1  H11B14806   2.619   1.458  16.196 -0.7796  0.7783  0.4492
  116CHL1    C914807   2.406   1.440  16.263  0.1289  0.0250 -0.2622
  116CHL1    H914808   2.404   1.550  16.281 -1.1675 -0.2424  1.5476
  116CHL1   C1014809   2.441   1.383  16.408  0.4666 -0.2686  0.8858
  116CHL1   C1914810   2.485   1.239  16.403 -0.8719 -0.1526  0.6126
  116CHL1  H19A14811   2.511   1.178  16.492  2.9459 -1.8268 -1.4347
  116CHL1  H19B14812   2.415   1.186  16.335  0.8210 -0.1347 -1.2190
  116CHL1  H19C14813   2.586   1.240  16.358 -0.4882 -1.3822  1.3932
  116CHL1    C114814   2.542   1.468  16.490 -0.0390  0.1002  0.2320
  116CHL1   H1A14815   2.642   1.465  16.440 -0.7858  0.6632 -1.3620
  116CHL1   H1B14816   2.508   1.573  16.472 -1.9766 -0.8396 -2.1698
  116CHL1    C214817   2.547   1.448  16.636  0.1423 -0.1060 -0.0556
  116CHL1   H2A14818   2.611   1.525  16.686 -0.7643  0.6738 -0.0613
  116CHL1   H2B14819   2.597   1.352  16.660 -0.2327 -0.1108  0.7535
  116CHL1   C2014820   2.355   1.463  15.702 -1.2852 -0.3058  0.6372
  116CHL1   H2014821   2.317   1.362  15.676  0.8847 -0.9673 -0.1956
  116CHL1   C2114822   2.509   1.452  15.698  0.1263 -0.9036  0.6827
  116CHL1  H21A14823   2.535   1.451  15.590 -0.7623  2.1100  0.3363
  116CHL1  H21B14824   2.549   1.368  15.758  0.9881 -0.8850  0.1620
  116CHL1  H21C14825   2.550   1.544  15.746  0.7795 -2.6731  3.7221
  116CHL1   C2214826   2.289   1.557  15.594  0.4485 -0.5869 -0.2262
  116CHL1  H22A14827   2.180   1.535  15.597  0.6839 -1.6785  1.2279
  116CHL1  H22B14828   2.309   1.664  15.617  0.7005 -1.0415  1.8641
  116CHL1   C2314829   2.340   1.518  15.450  0.2093  0.0586 -0.2847
  116CHL1  H23A14830   2.449   1.541  15.445  0.1788  0.0044 -2.1968
  116CHL1  H23B14831   2.338   1.410  15.427  1.4031 -0.3623  1.4149
  116CHL1   C2414832   2.265   1.594  15.344 -0.1481 -0.1335 -0.3334
  116CHL1  H24A14833   2.156   1.592  15.368 -0.1039  1.8719  0.1854
  116CHL1  H24B14834   2.295   1.701  15.351 -0.9708  0.2492 -2.1724
  116CHL1   C2514835   2.285   1.560  15.199  0.0704 -0.4373  0.7631
  116CHL1   H2514836   2.391   1.553  15.166 -0.2500  0.8731 -0.6371
  116CHL1   C2614837   2.229   1.425  15.151  0.2638  0.0765 -0.2552
  116CHL1  H26A14838   2.119   1.442  15.150 -0.5782 -4.0666  1.5499
  116CHL1  H26B14839   2.261   1.414  15.045  1.0852 -0.0938  0.0094
  116CHL1  H26C14840   2.254   1.344  15.222 -0.6654  1.1357  1.3629
  116CHL1   C2714841   2.214   1.683  15.121  0.6377 -0.3681  0.9735
  116CHL1  H27A14842   2.219   1.669  15.011  2.7700 -0.7904  1.0858
  116CHL1  H27B14843   2.112   1.691  15.164  0.6025 -1.5833  1.1303
  116CHL1  H27C14844   2.272   1.776  15.144  1.0503  0.0228 -1.4036
  117CHL1    C314845   5.060   1.305  16.663 -0.7565  0.3307  0.4178
  117CHL1    H314846   5.110   1.207  16.648 -3.8094 -1.2029 -0.4014
  117CHL1    O314847   5.067   1.329  16.800  0.0644 -0.1102  0.3188
  117CHL1   H3'14848   5.149   1.305  16.843 -0.8941 -1.8919  1.2822
  117CHL1    C414849   5.143   1.404  16.593 -0.1452  0.0193  0.3181
  117CHL1   H4A14850   5.106   1.504  16.625  1.4994  0.5574  0.6218
  117CHL1   H4B14851   5.246   1.392  16.632  1.2569  2.3020 -2.3500
  117CHL1    C514852   5.140   1.409  16.446 -0.2070 -0.2504 -0.0743
  117CHL1    C614853   5.251   1.419  16.376 -0.3266  0.6473  0.2023
  117CHL1    H614854   5.349   1.429  16.425 -0.1799  1.1667 -0.1811
  117CHL1    C714855   5.264   1.425  16.223  0.5131 -0.0517 -0.3040
  117CHL1   H7A14856   5.341   1.498  16.190 -0.1916  0.7376 -0.2405
  117CHL1   H7B14857   5.299   1.324  16.194 -2.2014 -1.0760 -0.3585
  117CHL1    C814858   5.127   1.459  16.151  0.1965 -0.2441 -0.2361
  117CHL1    H814859   5.110   1.569  16.149 -1.4127 -0.4543  0.5124
  117CHL1   C1414860   5.118   1.424  16.006  0.3701  0.1130  0.1301
  117CHL1   H1414861   5.124   1.313  16.006  0.2549  0.1079  0.3663
  117CHL1   C1514862   5.240   1.471  15.927 -0.0057 -0.0693  0.2743
  117CHL1  H15A14863   5.275   1.574  15.951  2.3370 -0.4219 -1.3244
  117CHL1  H15B14864   5.323   1.401  15.948 -0.3013 -0.2733  0.7940
  117CHL1   C1614865   5.187   1.470  15.781 -0.1120 -0.3900 -0.1789
  117CHL1  H16A14866   5.193   1.574  15.743  0.4561  0.3357  1.7547
  117CHL1  H16B14867   5.250   1.405  15.716 -0.7133  0.1418 -1.3271
  117CHL1   C1714868   5.035   1.422  15.794  0.5384 -0.4079  0.1290
  117CHL1   H1714869   5.028   1.311  15.792 -0.5555 -0.3328 -1.2508
  117CHL1   C1314870   4.995   1.467  15.934 -0.0615  0.7273 -0.4395
  117CHL1   C1814871   4.980   1.625  15.924 -0.2873  0.6312  0.0971
  117CHL1  H18A14872   4.977   1.659  16.030  0.5482 -0.9772  0.6550
  117CHL1  H18B14873   5.063   1.682  15.878 -1.3224  3.7712  1.8088
  117CHL1  H18C14874   4.890   1.649  15.863  1.1158  0.9411 -1.9306
  117CHL1   C1214875   4.871   1.402  16.009  0.0721 -0.1223  0.1599
  117CHL1  H12A14876   4.776   1.441  15.968  0.4310  0.8199  0.2007
  117CHL1  H12B14877   4.875   1.294  15.986 -0.7945 -0.6915  2.3888
  117CHL1   C1114878   4.875   1.422  16.159  0.2211 -0.4834 -0.3284
  117CHL1  H11A14879   4.821   1.515  16.186 -0.2390 -0.6812 -0.5513
  117CHL1  H11B14880   4.814   1.348  16.215  0.5123 -0.7557 -0.3715
  117CHL1    C914881   5.012   1.396  16.228  0.6412  0.3291  0.3371
  117CHL1    H914882   5.028   1.290  16.199  0.1527  1.1902 -3.6141
  117CHL1   C1014883   5.005   1.417  16.380 -0.6084  0.1957 -0.1718
  117CHL1   C1914884   4.955   1.559  16.414  0.5467  0.4276  0.6280
  117CHL1  H19A14885   4.962   1.586  16.522 -2.3602 -2.6214  1.7583
  117CHL1  H19B14886   5.009   1.629  16.348  1.2475  0.7146  1.4819
  117CHL1  H19C14887   4.846   1.549  16.394  0.9768  0.5009 -2.0646
  117CHL1    C114888   4.930   1.304  16.449 -0.3948 -0.5408  0.3547
  117CHL1   H1A14889   4.822   1.309  16.422  0.0551 -1.1849 -1.7863
  117CHL1   H1B14890   4.967   1.201  16.428 -0.0024 -0.4249  0.4820
  117CHL1    C214891   4.925   1.305  16.602  0.2348 -0.3905  0.5297
  117CHL1   H2A14892   4.870   1.221  16.651  2.1090 -1.8068  0.3180
  117CHL1   H2B14893   4.868   1.394  16.636 -2.9553 -1.4848 -1.5435
  117CHL1   C2014894   4.954   1.473  15.672 -0.2785 -0.7491 -0.0098
  117CHL1   H2014895   4.929   1.581  15.679 -0.0776 -0.6590 -0.6097
  117CHL1   C2114896   4.817   1.399  15.683 -0.4805 -0.7686  0.8152
  117CHL1  H21A14897   4.827   1.292  15.657 -1.1256 -0.0751 -2.8244
  117CHL1  H21B14898   4.756   1.433  15.597  0.5533 -1.1484 -0.0957
  117CHL1  H21C14899   4.758   1.411  15.777 -0.1313  3.1625  0.7245
  117CHL1   C2214900   5.019   1.451  15.532  0.0848 -0.6168 -0.5797
  117CHL1  H22A14901   5.109   1.515  15.520 -0.0866  0.0456  1.3285
  117CHL1  H22B14902   5.057   1.348  15.520  1.8666  0.0217 -0.7781
  117CHL1   C2314903   4.932   1.490  15.413 -0.7920 -0.1067 -0.2941
  117CHL1  H23A14904   4.859   1.409  15.391 -1.0653 -0.6175  2.2323
  117CHL1  H23B14905   4.883   1.589  15.423  0.7447  0.5130  1.8792
  117CHL1   C2414906   5.022   1.503  15.285 -0.1812  0.3299 -0.2146
  117CHL1  H24A14907   5.112   1.566  15.302  2.4000 -2.6107 -1.8157
  117CHL1  H24B14908   5.064   1.403  15.262 -0.3274  0.0576  0.6859
  117CHL1   C2514909   4.939   1.552  15.169  0.6543 -0.0167 -0.1934
  117CHL1   H2514910   4.840   1.501  15.167  0.8058 -0.3185 -0.0210
  117CHL1   C2614911   4.933   1.702  15.173  0.3135 -1.1509  0.6434
  117CHL1  H26A14912   4.875   1.733  15.262 -0.1930  0.0371 -0.0658
  117CHL1  H26B14913   5.038   1.738  15.183  0.4694 -1.0121 -1.1527
  117CHL1  H26C14914   4.889   1.738  15.077  1.2422 -0.7971  0.3359
  117CHL1   C2714915   5.010   1.508  15.043  0.2313  0.2529  1.0030
  117CHL1  H27A14916   5.020   1.398  15.049 -0.7775 -0.1416 -2.3974
  117CHL1  H27B14917   4.956   1.530  14.948  0.3458 -1.4372  0.5203
  117CHL1  H27C14918   5.115   1.543  15.031  0.0137  0.3896 -0.7801
  118CHL1    C314919   6.535   2.040  16.612 -0.1620  0.2061  0.2769
  118CHL1    H314920   6.433   2.085  16.609 -1.2246 -2.0191  0.8283
  118CHL1    O314921   6.587   2.084  16.735 -0.4863 -0.3258 -0.5494
  118CHL1   H3'14922   6.602   2.003  16.785 -2.4371  0.0547  0.7598
  118CHL1    C414923   6.531   1.891  16.624  0.7112 -0.7618 -0.2442
  118CHL1   H4A14924   6.633   1.848  16.635  0.4556 -1.7714 -1.5053
  118CHL1   H4B14925   6.468   1.870  16.714  0.5850  0.6260  0.0033
  118CHL1    C514926   6.478   1.832  16.492  0.5198  0.2068  0.5088
  118CHL1    C614927   6.369   1.749  16.486  0.4628  0.4451 -0.0292
  118CHL1    H614928   6.322   1.728  16.584  0.3484  1.2920  0.1095
  118CHL1    C714929   6.308   1.682  16.366  0.4383  0.0769 -0.2269
  118CHL1   H7A14930   6.296   1.576  16.396  0.3928  0.2679  0.4659
  118CHL1   H7B14931   6.209   1.727  16.345 -0.0082 -0.4060  0.7577
  118CHL1    C814932   6.400   1.712  16.237  0.2403  0.1954  0.1201
  118CHL1    H814933   6.478   1.634  16.248 -0.0273 -0.2792 -1.1219
  118CHL1   C1414934   6.330   1.676  16.106 -0.5730 -0.2341 -0.3014
  118CHL1   H1414935   6.250   1.753  16.091  0.6038  1.2092  0.5822
  118CHL1   C1514936   6.266   1.540  16.100 -0.3630 -0.7243  0.1677
  118CHL1  H15A14937   6.339   1.466  16.141  0.9476 -0.8724 -2.2941
  118CHL1  H15B14938   6.176   1.536  16.166 -0.2182 -0.7547  0.3650
  118CHL1   C1614939   6.226   1.528  15.948 -0.3284 -0.3919 -0.5872
  118CHL1  H16A14940   6.257   1.427  15.912  0.3502 -0.5955  0.4808
  118CHL1  H16B14941   6.119   1.553  15.939  0.2966  2.8603 -0.3408
  118CHL1   C1714942   6.312   1.636  15.877 -0.4427 -0.0305 -0.0410
  118CHL1   H1714943   6.243   1.722  15.857 -0.2700 -0.0912 -0.9140
  118CHL1   C1314944   6.408   1.684  15.977 -0.0898  0.4013 -0.4512
  118CHL1   C1814945   6.537   1.589  15.985  0.1534 -0.0279 -0.4167
  118CHL1  H18A14946   6.601   1.611  15.898 -0.6297  1.5152 -0.6495
  118CHL1  H18B14947   6.590   1.606  16.081  0.0441 -2.7190  0.2125
  118CHL1  H18C14948   6.500   1.484  15.988 -0.2138  0.1171  0.3772
  118CHL1   C1214949   6.449   1.834  15.978 -0.0737  0.0942  0.5777
  118CHL1  H12A14950   6.501   1.865  15.884 -0.9617  0.1134  0.0819
  118CHL1  H12B14951   6.361   1.900  15.965  1.4317  1.8086 -1.6240
  118CHL1   C1114952   6.532   1.877  16.098  0.0865 -0.2719 -0.7957
  118CHL1  H11A14953   6.629   1.824  16.103 -0.5959 -1.5877 -1.1863
  118CHL1  H11B14954   6.571   1.980  16.084 -0.2099 -0.0903 -0.3194
  118CHL1    C914955   6.468   1.845  16.235 -0.3040 -0.1477 -0.3468
  118CHL1    H914956   6.385   1.919  16.233  1.8208  2.4168  0.3244
  118CHL1   C1014957   6.549   1.881  16.360 -0.3564 -0.0461  0.5555
  118CHL1   C1914958   6.697   1.827  16.350  0.1591 -0.4982  0.6601
  118CHL1  H19A14959   6.701   1.722  16.314  0.4022  0.4559 -2.4197
  118CHL1  H19B14960   6.746   1.893  16.275 -1.6540 -0.7609 -0.8347
  118CHL1  H19C14961   6.758   1.832  16.443  2.5348  2.1246 -0.8751
  118CHL1    C114962   6.557   2.037  16.369 -0.1171 -0.0514  0.3309
  118CHL1   H1A14963   6.592   2.078  16.272 -2.4380 -0.3683 -0.7171
  118CHL1   H1B14964   6.459   2.087  16.355  1.6066  3.0855 -1.5848
  118CHL1    C214965   6.621   2.084  16.497  0.3346 -0.2293 -0.9367
  118CHL1   H2A14966   6.620   2.195  16.508 -0.8714 -0.4260  2.0422
  118CHL1   H2B14967   6.721   2.040  16.517  0.0048 -0.1909  0.9962
  118CHL1   C2014968   6.361   1.594  15.734 -0.3947  0.2051  0.0216
  118CHL1   H2014969   6.433   1.511  15.754 -0.4110  0.3056  0.4984
  118CHL1   C2114970   6.427   1.721  15.668  1.3078  0.1512  0.7012
  118CHL1  H21A14971   6.348   1.798  15.676  0.4652 -0.6646  0.4607
  118CHL1  H21B14972   6.449   1.689  15.563  0.4960 -0.3211  0.6621
  118CHL1  H21C14973   6.524   1.745  15.715  1.7968 -0.0222 -0.1922
  118CHL1   C2214974   6.251   1.545  15.633 -0.0005  0.2849 -0.0966
  118CHL1  H22A14975   6.298   1.479  15.557  0.3931  0.3438  0.0933
  118CHL1  H22B14976   6.175   1.479  15.680  0.3864  0.6920  1.1360
  118CHL1   C2314977   6.164   1.657  15.570 -0.3316 -0.7431  0.5048
  118CHL1  H23A14978   6.103   1.716  15.642 -1.8695 -0.5633 -0.8926
  118CHL1  H23B14979   6.229   1.729  15.515  0.4026 -0.6203  1.5045
  118CHL1   C2414980   6.066   1.589  15.476 -0.1765 -0.0061  0.0911
  118CHL1  H24A14981   6.128   1.535  15.401  0.0115  0.9208 -0.4241
  118CHL1  H24B14982   5.999   1.518  15.530  0.1525  0.0835  0.6160
  118CHL1   C2514983   5.980   1.695  15.403  0.1367 -0.4308 -0.2471
  118CHL1   H2514984   6.054   1.767  15.363 -1.4392  1.0468 -0.6373
  118CHL1   C2614985   5.901   1.636  15.288 -0.5431  0.0735  0.1498
  118CHL1  H26A14986   5.954   1.555  15.233 -2.0217 -1.7614  1.3307
  118CHL1  H26B14987   5.816   1.576  15.326 -0.7947  0.0892 -0.3884
  118CHL1  H26C14988   5.872   1.717  15.218  2.0718  1.5001  0.5781
  118CHL1   C2714989   5.897   1.779  15.501 -0.0253 -0.3902 -0.1233
  118CHL1  H27A14990   5.824   1.838  15.441  0.7470 -0.7368 -1.4516
  118CHL1  H27B14991   5.838   1.713  15.568 -0.5187  0.3127  0.1516
  118CHL1  H27C14992   5.950   1.851  15.567 -0.9073 -2.1596  2.6950
  119CHL1    C314993   0.894   1.105  16.786 -0.1566 -0.4722  0.3278
  119CHL1    H314994   0.879   1.209  16.823  1.8918  0.1355 -0.4180
  119CHL1    O314995   0.943   1.039  16.896 -0.5113  0.0941  0.1402
  119CHL1   H3'14996   0.911   0.950  16.880 -2.3247  0.6576  0.3845
  119CHL1    C414997   0.772   1.050  16.712  0.0303  1.3067  0.4776
  119CHL1   H4A14998   0.784   0.940  16.701  0.0138  1.0182  2.8346
  119CHL1   H4B14999   0.685   1.061  16.780  1.4261  1.1771  2.3569
  119CHL1    C515000   0.735   1.116  16.582  0.5862  0.7036  0.3298
  119CHL1    C615001   0.604   1.142  16.559 -0.1067 -0.2868 -0.3862
  119CHL1    H615002   0.536   1.118  16.642 -2.5416  0.9029 -1.9168
  119CHL1    C715003   0.565   1.191  16.424 -0.6699  0.4969 -0.2424
  119CHL1   H7A15004   0.480   1.132  16.384 -1.9552  2.0073  0.1538
  119CHL1   H7B15005   0.529   1.296  16.433  0.9769  1.1291 -0.5345
  119CHL1    C815006   0.669   1.189  16.312  0.1013 -0.9451  0.3944
  119CHL1    H815007   0.677   1.087  16.270  2.3681 -0.5490 -0.3088
  119CHL1   C1415008   0.626   1.299  16.211 -0.9792  1.0422  0.6499
  119CHL1   H1415009   0.638   1.395  16.265 -2.1718  1.6306 -0.0990
  119CHL1   C1515010   0.482   1.302  16.158 -0.3544  0.4200  0.3432
  119CHL1  H15A15011   0.450   1.196  16.147 -1.1867  0.3635  2.6412
  119CHL1  H15B15012   0.415   1.353  16.231 -1.1272 -0.1400  0.0400
  119CHL1   C1615013   0.499   1.362  16.017  0.5403  0.0679  0.3701
  119CHL1  H16A15014   0.487   1.287  15.936  0.1313  0.2803  0.2275
  119CHL1  H16B15015   0.416   1.432  15.992 -0.9557 -2.3203 -1.8403
  119CHL1   C1715016   0.648   1.407  16.004 -0.4487 -0.0824  0.1205
  119CHL1   H1715017   0.650   1.508  16.051  2.2952  0.9065 -1.8803
  119CHL1   C1315018   0.717   1.299  16.090  0.7898 -0.0455 -0.1828
  119CHL1   C1815019   0.715   1.165  16.012 -0.7509  0.7928  0.5066
  119CHL1  H18A15020   0.619   1.132  15.968 -0.0853 -2.0998  1.0540
  119CHL1  H18B15021   0.785   1.185  15.928 -1.1839 -2.5441 -0.7789
  119CHL1  H18C15022   0.766   1.088  16.073 -0.3785  0.6484  0.0231
  119CHL1   C1215023   0.861   1.329  16.138  0.4784  0.3549  0.2933
  119CHL1  H12A15024   0.937   1.316  16.058 -1.1237  2.3334 -1.6846
  119CHL1  H12B15025   0.861   1.439  16.158  0.6551 -0.0564  2.8941
  119CHL1   C1115026   0.905   1.233  16.252  0.3457  0.8577  0.2164
  119CHL1  H11A15027   0.913   1.132  16.207 -3.5378 -0.3335  1.8460
  119CHL1  H11B15028   1.002   1.269  16.293  1.4426 -1.0503 -0.5793
  119CHL1    C915029   0.805   1.228  16.367 -0.4736  0.5502 -0.1641
  119CHL1    H915030   0.796   1.328  16.414 -1.4112  0.7637 -0.7617
  119CHL1   C1015031   0.848   1.131  16.484  0.7252 -0.0896  0.5340
  119CHL1   C1915032   0.878   0.986  16.431 -0.1543  0.6370  0.3955
  119CHL1  H19A15033   0.785   0.941  16.391  0.3119  0.2536 -0.2689
  119CHL1  H19B15034   0.949   0.985  16.346 -0.8031  0.5041 -0.1477
  119CHL1  H19C15035   0.916   0.911  16.504  1.0921  0.8203 -0.0416
  119CHL1    C115036   0.971   1.194  16.553  0.2210 -0.3260 -0.3899
  119CHL1   H1A15037   1.056   1.183  16.483  1.8256 -1.4598  1.6424
  119CHL1   H1B15038   0.943   1.300  16.572  2.5074  0.4618 -1.1226
  119CHL1    C215039   1.006   1.118  16.687 -0.3614 -0.0030 -0.1979
  119CHL1   H2A15040   1.090   1.162  16.745 -1.1844 -1.5824  2.3908
  119CHL1   H2B15041   1.035   1.018  16.647 -0.6853  0.6870 -2.2880
  119CHL1   C2015042   0.698   1.440  15.866 -0.0733  0.1723  0.7796
  119CHL1   H2015043   0.709   1.343  15.813 -1.4954 -0.3197  1.3339
  119CHL1   C2115044   0.831   1.513  15.875  0.4703  0.4412  0.6082
  119CHL1  H21A15045   0.852   1.572  15.783  0.7933  0.8014  0.9094
  119CHL1  H21B15046   0.918   1.445  15.886 -1.0241 -1.5592  0.6023
  119CHL1  H21C15047   0.832   1.588  15.957  0.1731 -0.4185  1.4019
  119CHL1   C2215048   0.608   1.525  15.779  0.1653  0.0483 -0.7793
  119CHL1  H22A15049   0.654   1.551  15.682  0.7843 -5.2200 -2.2080
  119CHL1  H22B15050   0.521   1.464  15.745 -0.0221 -0.0145 -0.2029
  119CHL1   C2315051   0.562   1.665  15.834 -0.2135  1.1044 -0.2101
  119CHL1  H23A15052   0.487   1.635  15.909 -0.4573 -2.0966 -1.5759
  119CHL1  H23B15053   0.640   1.711  15.899 -0.6500 -0.5512  1.5512
  119CHL1   C2415054   0.526   1.775  15.736 -0.6803  0.5130  0.2058
  119CHL1  H24A15055   0.505   1.866  15.796  0.9955  1.2832 -0.3005
  119CHL1  H24B15056   0.614   1.797  15.672 -0.3910 -0.3293  0.3062
  119CHL1   C2515057   0.412   1.736  15.637 -0.6723  0.4180 -0.5748
  119CHL1   H2515058   0.456   1.655  15.575  0.2510  1.5733 -1.4936
  119CHL1   C2615059   0.293   1.687  15.715  0.1900  0.1749 -0.3401
  119CHL1  H26A15060   0.225   1.638  15.642 -1.7329 -0.7125  1.9099
  119CHL1  H26B15061   0.317   1.601  15.782  1.0007  1.3489  0.9451
  119CHL1  H26C15062   0.246   1.767  15.775  1.7867  0.8500  0.0676
  119CHL1   C2715063   0.381   1.854  15.555 -1.5716 -0.1010  0.2607
  119CHL1  H27A15064   0.351   1.943  15.614  0.7066  0.0059  1.3590
  119CHL1  H27B15065   0.474   1.880  15.500 -0.6298  2.1603  2.7114
  119CHL1  H27C15066   0.304   1.846  15.475 -2.4615  2.0562  0.8283
  120CHL1    C315067   7.170   0.893  16.670 -0.1446 -0.6001  0.1830
  120CHL1    H315068   7.251   0.818  16.663  2.2087  1.8056 -0.1980
  120CHL1    O315069   7.143   0.900  16.812 -0.0337  0.0329 -0.2577
  120CHL1   H3'15070   7.063   0.849  16.828  0.9419 -2.7696 -3.2167
  120CHL1    C415071   7.232   1.025  16.619 -0.4888  0.1761  0.0624
  120CHL1   H4A15072   7.171   1.111  16.655  0.4710  0.7311  0.4363
  120CHL1   H4B15073   7.325   1.043  16.678 -1.2867 -1.8135  2.0995
  120CHL1    C515074   7.252   1.022  16.469 -0.0626  0.6805  0.9422
  120CHL1    C615075   7.375   1.046  16.425 -0.3011 -0.1438 -0.3522
  120CHL1    H615076   7.452   1.078  16.496 -0.1056  2.0245 -1.4527
  120CHL1    C715077   7.421   1.050  16.276  0.9332 -0.3349  0.2358
  120CHL1   H7A15078   7.476   1.143  16.250 -0.2380 -0.0015 -1.1191
  120CHL1   H7B15079   7.492   0.968  16.255  0.6529 -0.6627  0.5585
  120CHL1    C815080   7.298   1.052  16.191 -0.5073 -0.1875  0.3986
  120CHL1    H815081   7.264   1.158  16.186 -2.8129 -0.7594  2.3051
  120CHL1   C1415082   7.331   1.007  16.051 -0.4448 -0.2033 -0.4160
  120CHL1   H1415083   7.357   0.899  16.049  1.2578  0.1935 -0.7380
  120CHL1   C1515084   7.456   1.077  15.992  0.4754 -0.2837  0.7025
  120CHL1  H15A15085   7.448   1.177  16.041 -2.8938 -1.1342  2.1541
  120CHL1  H15B15086   7.555   1.037  16.023  0.8325 -0.3193 -0.4266
  120CHL1   C1615087   7.434   1.071  15.836 -0.6128 -0.4536 -0.3619
  120CHL1  H16A15088   7.428   1.171  15.788 -2.1665  0.4652  1.6094
  120CHL1  H16B15089   7.516   1.014  15.787 -0.1828  1.2664 -1.7119
  120CHL1   C1715090   7.298   0.995  15.815  0.3006  0.7120  0.2646
  120CHL1   H1715091   7.335   0.890  15.817 -0.7081  0.2888 -1.0692
  120CHL1   C1315092   7.221   1.029  15.945 -0.4899 -0.5972 -0.3967
  120CHL1   C1815093   7.180   1.184  15.935  0.5228 -0.3958  0.1077
  120CHL1  H18A15094   7.268   1.246  15.905 -0.7820  0.8371 -1.3598
  120CHL1  H18B15095   7.097   1.198  15.863  1.0100 -1.2917 -0.6510
  120CHL1  H18C15096   7.142   1.220  16.033  2.5629  2.1054  0.0924
  120CHL1   C1215097   7.101   0.944  15.983  1.1061 -0.0510  0.6807
  120CHL1  H12A15098   7.013   0.976  15.924  0.4274  0.1549  1.7701
  120CHL1  H12B15099   7.122   0.835  15.980 -1.4207 -0.6191  1.3704
  120CHL1   C1115100   7.061   0.970  16.129  0.3923 -0.2822  0.0656
  120CHL1  H11A15101   7.007   1.066  16.133 -0.7304 -0.9179  1.0406
  120CHL1  H11B15102   6.981   0.898  16.157 -0.5524  0.0766 -1.6547
  120CHL1    C915103   7.177   0.966  16.235  0.3391 -0.0470  0.0899
  120CHL1    H915104   7.209   0.860  16.240  2.7592  0.6976  1.9522
  120CHL1   C1015105   7.134   0.986  16.381 -0.0368 -0.2432  0.6188
  120CHL1   C1915106   7.029   1.110  16.382 -0.0574  0.3628 -0.9740
  120CHL1  H19A15107   7.076   1.204  16.344  0.4640  1.1010  1.3033
  120CHL1  H19B15108   6.931   1.100  16.331 -0.4839  1.3292 -0.3792
  120CHL1  H19C15109   7.004   1.140  16.486 -2.2089  2.0904 -1.9012
  120CHL1    C115110   7.061   0.862  16.437 -0.1421  0.8748 -0.5398
  120CHL1   H1A15111   6.956   0.860  16.400  0.2028  0.4529 -1.5052
  120CHL1   H1B15112   7.116   0.766  16.428 -0.1977  0.6127  1.3726
  120CHL1    C215113   7.040   0.860  16.596  0.0220  0.0537  0.7774
  120CHL1   H2A15114   7.030   0.751  16.613 -0.5090 -0.3180 -1.5682
  120CHL1   H2B15115   6.951   0.915  16.634  0.0233  0.6495 -0.0496
  120CHL1   C2015116   7.238   1.011  15.675  0.6116 -0.1738  0.1764
  120CHL1   H2015117   7.131   0.980  15.675  0.3247  0.7899 -0.6419
  120CHL1   C2115118   7.319   0.906  15.584  0.4423 -0.6410 -1.1662
  120CHL1  H21A15119   7.427   0.931  15.577  0.6080 -1.0513 -0.1716
  120CHL1  H21B15120   7.282   0.904  15.479  0.4552  1.1239 -1.2341
  120CHL1  H21C15121   7.301   0.804  15.624 -0.9460  0.5152  1.4096
  120CHL1   C2215122   7.247   1.158  15.612  0.0347  0.1033  0.9126
  120CHL1  H22A15123   7.232   1.241  15.685  1.2883  1.3293 -0.1605
  120CHL1  H22B15124   7.347   1.167  15.564 -0.8155  0.0393 -0.9491
  120CHL1   C2315125   7.146   1.166  15.496  0.6903 -0.2138  0.0142
  120CHL1  H23A15126   7.160   1.089  15.417 -1.1743  0.5869 -1.1921
  120CHL1  H23B15127   7.045   1.137  15.531 -0.1675  0.1489 -1.9866
  120CHL1   C2415128   7.158   1.306  15.427 -0.4860 -0.8992  0.5211
  120CHL1  H24A15129   7.130   1.382  15.503  1.9091  2.4479 -1.6431
  120CHL1  H24B15130   7.257   1.327  15.381  0.0151 -1.7253  1.1856
  120CHL1   C2515131   7.062   1.323  15.308 -0.0285  0.0718  0.1584
  120CHL1   H2515132   6.962   1.330  15.354  0.5068  2.1013  1.1154
  120CHL1   C2615133   7.085   1.455  15.235  0.5190  0.3843 -0.3174
  120CHL1  H26A15134   7.012   1.473  15.153  4.1740  0.8074 -3.8184
  120CHL1  H26B15135   7.048   1.535  15.303 -1.2258 -0.5912 -0.0567
  120CHL1  H26C15136   7.190   1.477  15.206  1.6223 -3.8433 -0.1728
  120CHL1   C2715137   7.063   1.218  15.201  0.1560  0.1994  0.5681
  120CHL1  H27A15138   7.025   1.122  15.243 -2.8936  1.7338  1.6761
  120CHL1  H27B15139   6.996   1.237  15.114 -1.0643 -0.1724  1.3944
  120CHL1  H27C15140   7.161   1.192  15.158 -1.2625 -2.0501 -1.5832
  121CHL1    C315141   3.076   4.017  13.208  0.2119  0.7310  0.2843
  121CHL1    H315142   3.004   4.099  13.228 -1.1573 -0.5402  0.7680
  121CHL1    O315143   3.132   4.032  13.083  0.2295 -0.0758 -0.0886
  121CHL1   H3'15144   3.223   4.052  13.105 -0.1171 -0.7972  2.2238
  121CHL1    C415145   3.194   4.041  13.307  0.5541 -0.3250 -0.3610
  121CHL1   H4A15146   3.268   3.962  13.285  0.6084 -0.7487  1.2351
  121CHL1   H4B15147   3.247   4.134  13.278  1.8564 -1.3469 -1.3745
  121CHL1    C515148   3.150   4.029  13.448  0.2462 -0.4119  0.7178
  121CHL1    C615149   3.177   4.132  13.528  0.1268  0.8637  0.3319
  121CHL1    H615150   3.221   4.219  13.477 -0.6710  0.4176 -1.1610
  121CHL1    C715151   3.155   4.141  13.673 -0.1216  0.1141 -1.0088
  121CHL1   H7A15152   3.240   4.180  13.732 -0.1197  0.4004 -1.1996
  121CHL1   H7B15153   3.064   4.198  13.703 -0.3108 -1.2279  1.2796
  121CHL1    C815154   3.113   4.001  13.730  0.5072  0.5987  0.7961
  121CHL1    H815155   3.203   3.937  13.733  0.3776  0.2278 -1.2586
  121CHL1   C1415156   3.049   4.011  13.863  0.9546  0.0717  0.3599
  121CHL1   H1415157   2.953   4.066  13.855 -0.2204 -1.5291  2.3790
  121CHL1   C1515158   3.123   4.093  13.975 -0.5440 -0.2561  0.3585
  121CHL1  H15A15159   3.230   4.063  13.964 -1.2420 -2.0282 -3.0416
  121CHL1  H15B15160   3.127   4.199  13.942  1.8298 -0.4711 -0.2874
  121CHL1   C1615161   3.052   4.050  14.102 -0.0940  0.0744 -0.1342
  121CHL1  H16A15162   3.126   4.018  14.178 -0.3194 -0.3379 -0.0896
  121CHL1  H16B15163   2.981   4.128  14.138  0.2945 -0.3152  1.5526
  121CHL1   C1715164   2.963   3.927  14.065 -0.0833  0.2836 -0.2328
  121CHL1   H1715165   2.858   3.961  14.052  0.1106  1.1020  0.2852
  121CHL1   C1315166   3.017   3.876  13.929  0.5353  0.0276 -0.7547
  121CHL1   C1815167   3.147   3.802  13.956 -0.1776  0.5107  0.2233
  121CHL1  H18A15168   3.104   3.711  14.003  0.4526 -0.3872 -0.9019
  121CHL1  H18B15169   3.187   3.773  13.856 -1.8465  1.8164 -0.8831
  121CHL1  H18C15170   3.230   3.846  14.015  0.9512 -2.1381  0.7583
  121CHL1   C1215171   2.913   3.809  13.837 -0.5958 -0.2135 -0.3221
  121CHL1  H12A15172   2.878   3.706  13.860  2.3649 -1.4970 -1.1976
  121CHL1  H12B15173   2.834   3.886  13.821  0.3350  1.0910  1.0902
  121CHL1   C1115174   2.969   3.791  13.695  0.2344  1.0950 -0.1101
  121CHL1  H11A15175   3.044   3.710  13.706 -0.3796  0.6980  1.3269
  121CHL1  H11B15176   2.892   3.754  13.623  1.0291  1.4033 -1.1502
  121CHL1    C915177   3.018   3.918  13.633 -0.4364  0.5163  0.5604
  121CHL1    H915178   2.928   3.984  13.633 -0.2163  0.8410  1.9230
  121CHL1   C1015179   3.082   3.904  13.492  0.3741  0.7122  0.6820
  121CHL1   C1915180   3.185   3.779  13.498 -0.0907  0.2101 -0.2564
  121CHL1  H19A15181   3.130   3.683  13.506  0.4292 -0.1540 -0.9440
  121CHL1  H19B15182   3.246   3.779  13.405  1.2269  0.5911  0.5898
  121CHL1  H19C15183   3.255   3.797  13.582  0.7478 -3.0064 -0.1666
  121CHL1    C115184   2.963   3.870  13.390 -0.1265 -0.3338  0.3668
  121CHL1   H1A15185   2.930   3.765  13.400 -1.2664 -0.0985 -0.7407
  121CHL1   H1B15186   2.879   3.940  13.412  0.4787  0.5076  0.0785
  121CHL1    C215187   3.012   3.877  13.245 -0.6550 -0.5504 -0.7716
  121CHL1   H2A15188   2.923   3.866  13.179 -1.0222  1.2943 -0.6490
  121CHL1   H2B15189   3.092   3.802  13.231  1.2889  0.4136  3.4839
  121CHL1   C2015190   2.962   3.822  14.179 -0.3761  0.2320 -0.4070
  121CHL1   H2015191   3.067   3.791  14.198  0.7526  4.1298  0.5635
  121CHL1   C2115192   2.871   3.703  14.142  0.4983  0.1844 -0.0800
  121CHL1  H21A15193   2.771   3.741  14.112 -0.2691 -2.2301 -0.7945
  121CHL1  H21B15194   2.865   3.632  14.228  0.3172  0.1256 -0.1396
  121CHL1  H21C15195   2.909   3.643  14.057 -2.3214 -0.7859 -0.7502
  121CHL1   C2215196   2.910   3.883  14.315  0.1390  0.6240  0.2029
  121CHL1  H22A15197   2.969   3.968  14.354  2.1735 -0.2854 -0.7388
  121CHL1  H22B15198   2.810   3.931  14.311  0.8756  2.3099  1.2419
  121CHL1   C2315199   2.915   3.786  14.442  0.0705  0.2599 -0.2411
  121CHL1  H23A15200   2.848   3.699  14.426  1.0139 -0.3697 -0.8425
  121CHL1  H23B15201   3.013   3.737  14.458  0.8782  1.5577 -1.0170
  121CHL1   C2415202   2.859   3.849  14.565 -0.2238 -0.0774 -0.0305
  121CHL1  H24A15203   2.941   3.919  14.594  1.5157 -2.1120  0.1482
  121CHL1  H24B15204   2.766   3.907  14.543  0.3781  1.6275  1.6074
  121CHL1   C2515205   2.855   3.740  14.682 -0.6670 -0.1541 -0.0286
  121CHL1   H2515206   2.942   3.673  14.667  2.2506  3.2911  0.3046
  121CHL1   C2615207   2.880   3.811  14.823 -0.4005  0.3170  0.5854
  121CHL1  H26A15208   2.888   3.730  14.900 -0.5119  0.9418  1.2655
  121CHL1  H26B15209   2.956   3.891  14.829  1.2739 -1.0867 -0.7189
  121CHL1  H26C15210   2.782   3.857  14.849 -1.6444 -2.5341  1.4415
  121CHL1   C2715211   2.737   3.649  14.693 -0.3271  0.5261 -0.2256
  121CHL1  H27A15212   2.749   3.585  14.783  0.3392  1.0199  0.0520
  121CHL1  H27B15213   2.642   3.702  14.714 -0.3347  0.5181 -0.2409
  121CHL1  H27C15214   2.736   3.584  14.603  1.4260 -2.4689  1.7270
  122CHL1    C315215   1.497   4.881  13.184 -0.0476 -0.6010 -0.6258
  122CHL1    H315216   1.437   4.958  13.236 -0.9654 -0.9657 -1.1139
  122CHL1    O315217   1.566   4.937  13.074  0.4189 -0.3655  0.7054
  122CHL1   H3'15218   1.599   4.860  13.028  1.9797  1.4256 -1.4047
  122CHL1    C415219   1.598   4.819  13.286  0.1187  0.8730  0.4088
  122CHL1   H4A15220   1.665   4.744  13.239  0.9666  0.6083  1.9595
  122CHL1   H4B15221   1.675   4.896  13.308  2.1552 -1.2307  1.0532
  122CHL1    C515222   1.542   4.756  13.411  1.0672  0.8029  0.5159
  122CHL1    C615223   1.567   4.789  13.539  0.4762  0.0305 -0.2068
  122CHL1    H615224   1.637   4.873  13.551  1.4184 -0.4123 -2.2629
  122CHL1    C715225   1.508   4.725  13.660  1.1937 -0.0263 -0.5898
  122CHL1   H7A15226   1.580   4.702  13.741  1.1787 -0.4381 -0.6920
  122CHL1   H7B15227   1.435   4.792  13.710  1.3169 -0.2683 -0.0832
  122CHL1    C815228   1.429   4.595  13.623  0.2279  0.3168 -0.4196
  122CHL1    H815229   1.501   4.512  13.607  0.8753  0.5809  0.9578
  122CHL1   C1415230   1.336   4.551  13.738  0.0775 -0.2943 -0.0013
  122CHL1   H1415231   1.269   4.636  13.761 -0.7613 -0.1370 -2.6936
  122CHL1   C1515232   1.404   4.521  13.872  0.3251  0.1300  0.0258
  122CHL1  H15A15233   1.496   4.460  13.861  0.0593 -0.1815 -0.5227
  122CHL1  H15B15234   1.413   4.616  13.929 -1.1088 -0.3082  1.0404
  122CHL1   C1615235   1.302   4.432  13.945 -1.1751  0.2949  0.2470
  122CHL1  H16A15236   1.360   4.340  13.969 -0.7947  0.8796  1.6844
  122CHL1  H16B15237   1.287   4.484  14.042 -1.1374  0.6985  0.0371
  122CHL1   C1715238   1.175   4.412  13.848 -0.5914 -0.1717 -0.0051
  122CHL1   H1715239   1.106   4.497  13.867  0.9508  0.6846  2.2614
  122CHL1   C1315240   1.244   4.436  13.712  0.3940  0.0337  0.8691
  122CHL1   C1815241   1.310   4.301  13.672  0.3800 -0.1635  0.2082
  122CHL1  H18A15242   1.239   4.231  13.623 -0.7272  0.6046  0.6855
  122CHL1  H18B15243   1.397   4.323  13.606  0.5795  0.7634  0.7652
  122CHL1  H18C15244   1.351   4.250  13.762 -0.4543  0.3715  0.8951
  122CHL1   C1215245   1.155   4.480  13.593 -0.1173  0.6314  0.2986
  122CHL1  H12A15246   1.079   4.403  13.564  0.3946  0.2660 -0.0941
  122CHL1  H12B15247   1.092   4.567  13.620  0.1945  0.4511  1.6627
  122CHL1   C1115248   1.232   4.504  13.465  0.2581  0.8324 -0.5016
  122CHL1  H11A15249   1.292   4.413  13.444 -0.0862 -0.0589  2.0160
  122CHL1  H11B15250   1.160   4.539  13.387 -1.6786 -2.7429 -0.5392
  122CHL1    C915251   1.343   4.615  13.498 -0.3104 -0.0223  0.0080
  122CHL1    H915252   1.280   4.700  13.533  1.8661  0.9675  1.7534
  122CHL1   C1015253   1.431   4.651  13.374  0.2856 -0.9636  0.8199
  122CHL1   C1915254   1.510   4.532  13.318 -0.1078 -0.4317  0.0348
  122CHL1  H19A15255   1.591   4.511  13.392  0.9738 -0.7776 -1.2054
  122CHL1  H19B15256   1.440   4.446  13.316 -1.5027  0.6628 -0.0664
  122CHL1  H19C15257   1.551   4.545  13.215 -0.6566  1.4318  0.0131
  122CHL1    C115258   1.334   4.708  13.268 -0.0140  0.4401 -0.7710
  122CHL1   H1A15259   1.300   4.614  13.221  1.0896  0.3206 -1.3815
  122CHL1   H1B15260   1.249   4.769  13.306 -0.8207 -0.1203 -1.6378
  122CHL1    C215261   1.397   4.775  13.144  0.4033  0.5343 -0.0226
  122CHL1   H2A15262   1.317   4.822  13.082 -0.7556 -0.2909  0.8234
  122CHL1   H2B15263   1.456   4.705  13.081  0.0341  0.0197  0.1964
  122CHL1   C2015264   1.088   4.288  13.870  1.0844 -0.4882 -0.1212
  122CHL1   H2015265   1.107   4.208  13.795  0.2688 -1.5285  0.7566
  122CHL1   C2115266   0.949   4.331  13.824 -0.1675 -1.0454 -0.8595
  122CHL1  H21A15267   0.875   4.248  13.824  0.5501 -1.8901  3.3987
  122CHL1  H21B15268   0.948   4.382  13.725 -0.6476  2.2058  0.6847
  122CHL1  H21C15269   0.901   4.401  13.896  1.4991 -0.9926  0.2421
  122CHL1   C2215270   1.085   4.232  14.016  0.1920  0.3173 -0.1922
  122CHL1  H22A15271   1.189   4.215  14.048 -0.4884  2.1492  3.4888
  122CHL1  H22B15272   1.050   4.314  14.082  0.1669  1.1443 -1.1901
  122CHL1   C2315273   1.010   4.093  14.035  0.1421  0.0800 -0.2421
  122CHL1  H23A15274   0.912   4.110  13.984  0.9217  0.6978 -1.5935
  122CHL1  H23B15275   1.059   4.019  13.969  1.7190  0.2693  0.6594
  122CHL1   C2415276   0.994   4.043  14.178 -0.2962 -0.2427 -0.2762
  122CHL1  H24A15277   0.914   4.108  14.220 -0.3057  0.4517 -1.3295
  122CHL1  H24B15278   0.952   3.941  14.163 -0.1828 -0.1421 -1.3301
  122CHL1   C2515279   1.128   4.038  14.257 -0.2568 -0.2286  0.5293
  122CHL1   H2515280   1.165   4.143  14.256  0.4711 -0.4235 -1.9477
  122CHL1   C2615281   1.101   3.983  14.402  0.2811 -0.4049 -0.0384
  122CHL1  H26A15282   1.002   4.006  14.446 -0.6618 -2.9592 -0.6689
  122CHL1  H26B15283   1.101   3.872  14.396  3.1462 -0.4539 -0.9308
  122CHL1  H26C15284   1.187   4.014  14.466 -0.2574  1.1969 -0.0685
  122CHL1   C2715285   1.236   3.947  14.190 -0.4011 -0.5520 -0.3774
  122CHL1  H27A15286   1.340   3.966  14.222 -1.0259  2.3079  0.2252
  122CHL1  H27B15287   1.216   3.844  14.227 -2.1106  0.0031  0.3856
  122CHL1  H27C15288   1.236   3.954  14.079 -0.3178  3.2725 -0.2822
  123CHL1    C315289   3.822   4.263  13.293 -0.0943 -0.2505  0.1060
  123CHL1    H315290   3.805   4.154  13.305 -1.8512  0.0627  0.8350
  123CHL1    O315291   3.820   4.304  13.153  0.1373  0.6411  0.5113
  123CHL1   H3'15292   3.896   4.269  13.105 -1.1995  0.9272 -1.9447
  123CHL1    C415293   3.708   4.335  13.369  0.1515 -0.9321  0.1163
  123CHL1   H4A15294   3.685   4.438  13.335  0.7779 -0.0345  2.2869
  123CHL1   H4B15295   3.618   4.280  13.333 -1.4178  0.6456  1.4795
  123CHL1    C515296   3.723   4.324  13.523 -0.0038 -0.3887  0.2953
  123CHL1    C615297   3.619   4.282  13.597 -0.0122  0.4544 -0.7464
  123CHL1    H615298   3.520   4.267  13.551  0.2828  0.0220 -1.2442
  123CHL1    C715299   3.614   4.284  13.749 -0.5142 -0.4270 -0.1359
  123CHL1   H7A15300   3.520   4.332  13.784 -0.2513 -1.7609  2.7287
  123CHL1   H7B15301   3.597   4.182  13.790  0.4265 -0.3807  0.3899
  123CHL1    C815302   3.732   4.355  13.805 -0.2384 -0.0979  0.2032
  123CHL1    H815303   3.703   4.461  13.786 -0.3285 -0.2526 -0.5216
  123CHL1   C1415304   3.750   4.329  13.952  0.3686 -0.3480 -0.3180
  123CHL1   H1415305   3.780   4.222  13.952  2.8173  0.2731 -1.5147
  123CHL1   C1515306   3.633   4.342  14.048  0.9224  0.5540 -0.4727
  123CHL1  H15A15307   3.579   4.439  14.053  1.1047  0.6049  0.7581
  123CHL1  H15B15308   3.564   4.255  14.045 -0.1778  1.3556  0.6129
  123CHL1   C1615309   3.708   4.336  14.187  0.3641 -0.5837 -0.1357
  123CHL1  H16A15310   3.668   4.427  14.236  0.2756 -1.3487  1.2526
  123CHL1  H16B15311   3.683   4.253  14.256 -1.7259  0.0339 -0.0860
  123CHL1   C1715312   3.858   4.356  14.159 -0.4598  0.4122 -0.3318
  123CHL1   H1715313   3.900   4.254  14.149  1.4470  1.0965  0.3547
  123CHL1   C1315314   3.870   4.411  14.016  0.2934  0.0927 -0.2839
  123CHL1   C1815315   3.839   4.563  14.023  0.0836  0.3557  0.0465
  123CHL1  H18A15316   3.791   4.597  13.929 -0.2573 -1.2328 -0.3760
  123CHL1  H18B15317   3.780   4.576  14.116  1.8191 -1.6573  1.5249
  123CHL1  H18C15318   3.937   4.617  14.021 -1.7733  4.0150 -1.6373
  123CHL1   C1215319   4.002   4.390  13.940  0.4190  0.0618 -0.1112
  123CHL1  H12A15320   4.088   4.451  13.974 -0.2667  0.2552  1.3884
  123CHL1  H12B15321   4.023   4.281  13.944  0.1370  0.0015 -0.2625
  123CHL1   C1115322   3.977   4.410  13.793 -0.0506  0.0397  0.0414
  123CHL1  H11A15323   3.973   4.520  13.778 -0.6740 -0.3598 -3.4537
  123CHL1  H11B15324   4.074   4.394  13.742  0.2726 -1.5016  1.0613
  123CHL1    C915325   3.870   4.332  13.722  0.1148  0.3431 -0.9307
  123CHL1    H915326   3.891   4.223  13.734  1.0868  0.4303 -1.6808
  123CHL1   C1015327   3.855   4.371  13.572  0.5859 -0.4085 -0.0598
  123CHL1   C1915328   3.864   4.529  13.548  0.0964 -0.2926  0.0310
  123CHL1  H19A15329   3.794   4.581  13.616 -1.5179  1.8241 -3.0401
  123CHL1  H19B15330   3.964   4.565  13.579  1.7373 -3.0423 -1.6200
  123CHL1  H19C15331   3.836   4.569  13.449  0.7767  1.5564  0.5503
  123CHL1    C115332   3.962   4.298  13.497 -0.4801  0.3028 -0.0459
  123CHL1   H1A15333   4.067   4.321  13.526  0.1135 -0.8070 -1.1904
  123CHL1   H1B15334   3.954   4.191  13.525 -1.4497  0.3052 -0.2917
  123CHL1    C215335   3.962   4.306  13.346  0.1550 -0.4422 -0.1316
  123CHL1   H2A15336   4.040   4.242  13.300  1.3310  0.2859  0.7821
  123CHL1   H2B15337   3.984   4.410  13.315  0.7956 -0.0167  1.6123
  123CHL1   C2015338   3.945   4.424  14.269  0.0084 -0.1357  0.1502
  123CHL1   H2015339   3.950   4.534  14.251  0.4394 -0.4578 -2.0387
  123CHL1   C2115340   4.083   4.363  14.272 -0.2570  0.0464  0.4781
  123CHL1  H21A15341   4.132   4.364  14.172 -0.7332  1.3366  0.2381
  123CHL1  H21B15342   4.081   4.260  14.315 -0.6379  0.0946  0.5823
  123CHL1  H21C15343   4.150   4.429  14.330  1.6816 -0.3801 -1.1517
  123CHL1   C2215344   3.884   4.407  14.411 -0.2705 -0.2225  0.1349
  123CHL1  H22A15345   3.783   4.452  14.416  0.5920  1.6759  2.8859
  123CHL1  H22B15346   3.874   4.301  14.442  0.3253 -0.5720 -0.8242
  123CHL1   C2315347   3.974   4.449  14.530  0.0639  0.5624  0.0536
  123CHL1  H23A15348   4.053   4.374  14.553  1.8962  2.2570 -0.4284
  123CHL1  H23B15349   4.028   4.540  14.496  1.2742 -0.1453  0.0129
  123CHL1   C2415350   3.886   4.471  14.648  0.0551  0.0847 -0.7836
  123CHL1  H24A15351   3.802   4.540  14.627 -0.5593 -0.4806 -0.2171
  123CHL1  H24B15352   3.836   4.375  14.673  1.4891  0.2284  3.4103
  123CHL1   C2515353   3.952   4.521  14.776 -0.2622 -0.2295  0.3885
  123CHL1   H2515354   4.039   4.456  14.800 -1.6200 -1.7553  1.4381
  123CHL1   C2615355   4.013   4.663  14.770 -0.2044  0.3118  0.5621
  123CHL1  H26A15356   4.059   4.692  14.867  0.4325 -0.8908  0.6359
  123CHL1  H26B15357   4.091   4.660  14.691  1.2690 -0.4887  1.9866
  123CHL1  H26C15358   3.935   4.739  14.746 -1.0633 -1.1182 -1.4087
  123CHL1   C2715359   3.864   4.497  14.899 -0.1888  0.2535  0.1472
  123CHL1  H27A15360   3.915   4.513  14.997  2.5038 -0.7845 -1.0050
  123CHL1  H27B15361   3.771   4.557  14.891  0.4022  1.2697  0.6219
  123CHL1  H27C15362   3.825   4.395  14.920  1.2291 -0.1156  1.1764
  124CHL1    C315363   1.757   5.198  13.263  0.1319  0.5865 -0.3540
  124CHL1    H315364   1.697   5.108  13.287  0.9805  0.4762  1.5552
  124CHL1    O315365   1.757   5.217  13.125 -0.2259 -0.3183  0.4040
  124CHL1   H3'15366   1.813   5.293  13.108  0.2968 -1.1928 -2.3479
  124CHL1    C415367   1.703   5.319  13.326 -0.4101 -0.0970 -0.2989
  124CHL1   H4A15368   1.763   5.407  13.294 -3.3480  2.0996 -0.1609
  124CHL1   H4B15369   1.601   5.331  13.285 -1.3562  0.4589  2.0393
  124CHL1    C515370   1.700   5.322  13.477  0.4759 -0.1341  1.0261
  124CHL1    C615371   1.578   5.348  13.538  0.1223 -0.7135  0.0876
  124CHL1    H615372   1.491   5.378  13.476 -0.1804  0.8084  1.2000
  124CHL1    C715373   1.551   5.353  13.686 -0.9112  0.5826 -0.3461
  124CHL1   H7A15374   1.496   5.443  13.721 -1.3478  0.3421 -0.4154
  124CHL1   H7B15375   1.493   5.261  13.709  0.0455 -0.5218 -2.0739
  124CHL1    C815376   1.690   5.343  13.761  0.6740 -0.1512  0.1978
  124CHL1    H815377   1.736   5.444  13.771  0.8182 -0.2318  0.3492
  124CHL1   C1415378   1.671   5.302  13.911  0.3244 -0.2483 -0.5604
  124CHL1   H1415379   1.632   5.198  13.906 -1.3603  0.3490 -0.3942
  124CHL1   C1515380   1.572   5.381  13.999 -0.4001  0.2963  0.3443
  124CHL1  H15A15381   1.592   5.489  13.981 -1.7414  0.5602  0.3596
  124CHL1  H15B15382   1.466   5.373  13.968 -0.5930  3.0179  0.0136
  124CHL1   C1615383   1.597   5.324  14.144  0.0827  0.4602 -0.1254
  124CHL1  H16A15384   1.606   5.403  14.221  0.5728 -0.2020  0.5105
  124CHL1  H16B15385   1.518   5.253  14.176 -0.7748  0.4914 -2.0006
  124CHL1   C1715386   1.725   5.239  14.127 -0.5078  0.4769 -0.1253
  124CHL1   H1715387   1.700   5.134  14.099  1.3303  0.4579 -1.9199
  124CHL1   C1315388   1.795   5.285  13.996  0.6572  0.8892  0.1622
  124CHL1   C1815389   1.872   5.420  14.025  0.1407  0.3313 -0.0508
  124CHL1  H18A15390   1.973   5.420  14.071 -1.3322  1.2433  3.5865
  124CHL1  H18B15391   1.883   5.460  13.922  1.1038 -1.1819 -0.5685
  124CHL1  H18C15392   1.800   5.487  14.078 -0.0934 -0.0911  0.1623
  124CHL1   C1215393   1.886   5.181  13.933 -0.5611 -0.4336  0.5883
  124CHL1  H12A15394   1.989   5.167  13.974  0.7223  0.4759 -2.0677
  124CHL1  H12B15395   1.828   5.087  13.931 -2.1085  0.5087 -0.3007
  124CHL1   C1115396   1.917   5.227  13.786  0.1767  0.5361 -0.3579
  124CHL1  H11A15397   1.984   5.315  13.793  2.1103 -0.7115 -2.1326
  124CHL1  H11B15398   1.969   5.137  13.747 -1.9149  0.6911 -3.9274
  124CHL1    C915399   1.792   5.250  13.696  0.1783  0.0833 -0.5859
  124CHL1    H915400   1.742   5.152  13.687  0.4679 -0.1866  0.5163
  124CHL1   C1015401   1.828   5.287  13.547 -1.4450 -0.0031 -0.5712
  124CHL1   C1915402   1.927   5.408  13.554  0.6035  0.3248  0.0795
  124CHL1  H19A15403   2.025   5.369  13.588 -0.5125 -2.2084  0.5993
  124CHL1  H19B15404   1.932   5.452  13.452  1.5167 -1.8289 -0.8732
  124CHL1  H19C15405   1.891   5.491  13.617  0.6245 -0.1851  0.7722
  124CHL1    C115406   1.885   5.160  13.472 -0.5755  0.2307 -0.1999
  124CHL1   H1A15407   1.985   5.142  13.518 -0.6343 -0.3307 -0.2839
  124CHL1   H1B15408   1.829   5.066  13.488 -0.6626  0.5412  1.5686
  124CHL1    C215409   1.895   5.174  13.320 -0.8694  0.0481  0.3054
  124CHL1   H2A15410   1.942   5.083  13.276 -0.8614  0.0351  0.3401
  124CHL1   H2B15411   1.962   5.261  13.305  0.6564 -1.1607 -0.2381
  124CHL1   C2015412   1.789   5.228  14.269 -0.4210 -0.1214  0.3834
  124CHL1   H2015413   1.836   5.328  14.281 -2.5198  0.9774 -0.1072
  124CHL1   C2115414   1.896   5.122  14.264  0.0896 -0.3932 -0.1371
  124CHL1  H21A15415   1.847   5.023  14.274  0.4194 -0.6070 -0.6018
  124CHL1  H21B15416   1.962   5.127  14.354 -0.2407  0.3020  0.0696
  124CHL1  H21C15417   1.963   5.118  14.175  1.6460  0.0235  0.9654
  124CHL1   C2215418   1.694   5.193  14.384  0.3991  0.0309 -0.6309
  124CHL1  H22A15419   1.606   5.261  14.390 -0.0696 -0.7044  1.9081
  124CHL1  H22B15420   1.655   5.093  14.353  1.4199 -0.4577 -0.3766
  124CHL1   C2315421   1.757   5.186  14.527 -0.1897 -0.4789  0.2572
  124CHL1  H23A15422   1.677   5.149  14.595  1.4680 -0.7992  2.1479
  124CHL1  H23B15423   1.832   5.104  14.538 -0.3629 -0.4826  1.7168
  124CHL1   C2415424   1.799   5.318  14.582  0.1824 -0.1466  0.9867
  124CHL1  H24A15425   1.877   5.361  14.517  1.4196 -0.2796  2.3405
  124CHL1  H24B15426   1.716   5.390  14.600 -0.7421 -0.9965  0.2383
  124CHL1   C2515427   1.888   5.309  14.707 -0.0820  0.3336 -0.1994
  124CHL1   H2515428   1.957   5.221  14.703 -1.2333 -0.5262 -1.9121
  124CHL1   C2615429   1.989   5.432  14.717  0.7368  0.2610  0.4492
  124CHL1  H26A15430   2.054   5.441  14.806  2.5939  1.6648 -0.9632
  124CHL1  H26B15431   2.049   5.424  14.624 -1.1935  0.1260 -0.8408
  124CHL1  H26C15432   1.928   5.524  14.701  2.4722  1.1838 -1.1318
  124CHL1   C2715433   1.807   5.295  14.835  0.1310  0.5441 -0.1953
  124CHL1  H27A15434   1.730   5.215  14.825 -1.4467  1.5749  2.4624
  124CHL1  H27B15435   1.878   5.276  14.918  0.4004 -0.7229 -0.7011
  124CHL1  H27C15436   1.752   5.392  14.840  0.8908  1.1442 -2.3646
  125CHL1    C315437   2.388   4.956  13.252 -0.4653 -0.3262  0.5684
  125CHL1    H315438   2.315   4.903  13.317 -0.8464 -1.6284 -0.8616
  125CHL1    O315439   2.365   4.909  13.117 -0.6125 -0.0607  0.2367
  125CHL1   H3'15440   2.421   4.968  13.065  0.8351 -0.0463  1.7396
  125CHL1    C415441   2.368   5.108  13.263  0.3559 -0.0015  1.0224
  125CHL1   H4A15442   2.434   5.169  13.198 -0.6874 -0.8821 -0.9462
  125CHL1   H4B15443   2.261   5.123  13.238  0.5385 -0.6381 -0.2090
  125CHL1    C515444   2.395   5.152  13.402  0.5639 -0.2831 -0.1053
  125CHL1    C615445   2.306   5.224  13.476 -0.3094 -0.4969  0.0485
  125CHL1    H615446   2.217   5.245  13.413 -1.0667 -1.3791  0.7937
  125CHL1    C715447   2.324   5.282  13.606  0.2662  0.0922  0.5659
  125CHL1   H7A15448   2.296   5.389  13.612 -0.5631 -0.1308  0.9161
  125CHL1   H7B15449   2.255   5.238  13.682 -1.7766  0.4101 -1.0044
  125CHL1    C815450   2.469   5.263  13.661  0.1431  0.2411  0.1160
  125CHL1    H815451   2.538   5.336  13.613  0.9727 -2.0109 -2.3994
  125CHL1   C1415452   2.474   5.267  13.816  0.2569  0.5123 -0.8894
  125CHL1   H1415453   2.415   5.182  13.857  2.2462 -1.1583 -1.3377
  125CHL1   C1515454   2.412   5.385  13.888 -0.7766 -0.3661  0.4158
  125CHL1  H15A15455   2.449   5.483  13.851  1.0958 -1.5267 -1.0113
  125CHL1  H15B15456   2.302   5.378  13.889 -0.7153 -1.5838  0.4567
  125CHL1   C1615457   2.464   5.372  14.032  0.1365 -0.3321 -0.2203
  125CHL1  H16A15458   2.496   5.475  14.057  1.0770 -0.7062  0.1546
  125CHL1  H16B15459   2.384   5.346  14.105  0.6467 -1.7216 -0.1285
  125CHL1   C1715460   2.585   5.271  14.033 -0.0272 -0.8016  0.6515
  125CHL1   H1715461   2.541   5.172  14.060 -0.5490 -0.6095  0.5126
  125CHL1   C1315462   2.614   5.250  13.883 -0.4481  0.4179  0.8352
  125CHL1   C1815463   2.712   5.357  13.834  0.2284 -0.5609  0.4229
  125CHL1  H18A15464   2.729   5.349  13.725  3.4177  0.1021  0.7762
  125CHL1  H18B15465   2.667   5.455  13.862  1.4721 -0.2301  1.3062
  125CHL1  H18C15466   2.813   5.342  13.878  0.4845 -1.7147 -0.5257
  125CHL1   C1215467   2.658   5.108  13.844 -0.1509 -0.2433 -0.2620
  125CHL1  H12A15468   2.760   5.086  13.881 -0.0961 -1.4133 -1.0445
  125CHL1  H12B15469   2.591   5.030  13.886 -0.7479  0.0892 -0.5829
  125CHL1   C1115470   2.654   5.092  13.691 -0.2032 -0.4392  0.2869
  125CHL1  H11A15471   2.736   5.159  13.657 -2.0691  1.8217 -0.0488
  125CHL1  H11B15472   2.684   4.989  13.664 -0.6203 -0.0824 -1.6570
  125CHL1    C915473   2.518   5.126  13.623  0.1504  0.6771  0.2187
  125CHL1    H915474   2.440   5.055  13.659 -0.1978  0.8072 -0.2616
  125CHL1   C1015475   2.526   5.099  13.466  0.2699 -0.0247 -0.3841
  125CHL1   C1915476   2.628   5.198  13.409  0.2482  0.1569  0.0976
  125CHL1  H19A15477   2.640   5.187  13.299  1.8480  1.7670  0.0819
  125CHL1  H19B15478   2.632   5.302  13.449 -1.2777  0.2701  0.0139
  125CHL1  H19C15479   2.725   5.161  13.449 -0.7205 -1.5753  0.9674
  125CHL1    C115480   2.550   4.942  13.436 -0.2481 -0.2907 -0.1335
  125CHL1   H1A15481   2.652   4.925  13.477 -0.5044  1.4528  1.3528
  125CHL1   H1B15482   2.483   4.870  13.489 -1.0439 -0.3805 -1.2167
  125CHL1    C215483   2.532   4.912  13.286  0.0398  0.8031  0.1073
  125CHL1   H2A15484   2.556   4.805  13.270 -2.7587  0.1433 -0.2666
  125CHL1   H2B15485   2.608   4.958  13.219  1.8701 -3.3162 -0.9394
  125CHL1   C2015486   2.700   5.306  14.124  0.1960 -0.6007  0.6811
  125CHL1   H2015487   2.752   5.393  14.078  1.7350 -1.8604 -0.0482
  125CHL1   C2115488   2.789   5.187  14.133 -0.6167  0.4354  0.7503
  125CHL1  H21A15489   2.734   5.093  14.154 -2.1334  1.2111  0.3976
  125CHL1  H21B15490   2.863   5.194  14.216 -0.4622  2.4615  0.4872
  125CHL1  H21C15491   2.864   5.189  14.051 -0.6882 -0.0422  0.6738
  125CHL1   C2215492   2.659   5.354  14.264 -0.2858  0.7653 -0.3116
  125CHL1  H22A15493   2.751   5.368  14.325 -1.1454  0.1031  1.2034
  125CHL1  H22B15494   2.620   5.456  14.247 -0.0742  1.2436  1.8325
  125CHL1   C2315495   2.553   5.276  14.343  0.1673 -0.0178 -0.4361
  125CHL1  H23A15496   2.458   5.276  14.284  0.8316 -1.8519 -1.5819
  125CHL1  H23B15497   2.590   5.175  14.369 -1.4267 -0.6490 -0.4671
  125CHL1   C2415498   2.521   5.344  14.479 -0.4386 -0.1723  0.1576
  125CHL1  H24A15499   2.607   5.342  14.550 -1.0143  1.1257  0.9194
  125CHL1  H24B15500   2.492   5.451  14.475  0.0879  0.1059  2.2245
  125CHL1   C2515501   2.404   5.281  14.565  0.1459 -0.0171 -0.9762
  125CHL1   H2515502   2.307   5.292  14.512 -0.3385  0.0857 -0.0852
  125CHL1   C2615503   2.432   5.139  14.602  0.1951  0.2442 -0.5997
  125CHL1  H26A15504   2.364   5.100  14.681  0.1228 -0.3609 -0.9493
  125CHL1  H26B15505   2.442   5.070  14.515  1.1870  0.8186 -0.9539
  125CHL1  H26C15506   2.534   5.133  14.643 -0.3264 -0.9272  0.5746
  125CHL1   C2715507   2.404   5.367  14.705 -0.1263  0.3667  0.6533
  125CHL1  H27A15508   2.319   5.335  14.768 -1.7801 -0.4331 -1.8707
  125CHL1  H27B15509   2.496   5.358  14.767 -0.0049 -0.7046  0.3362
  125CHL1  H27C15510   2.379   5.473  14.683  2.4006  0.8216 -0.3641
  126CHL1    C315511   1.837   5.737  13.227 -0.5630 -0.3146 -0.6288
  126CHL1    H315512   1.815   5.631  13.253 -0.2939 -0.2867 -0.2794
  126CHL1    O315513   1.863   5.770  13.089  0.1323  0.5996  0.0596
  126CHL1   H3'15514   1.896   5.861  13.085  1.6983  0.0153 -1.6099
  126CHL1    C415515   1.723   5.830  13.268 -0.3459  0.0401  0.6709
  126CHL1   H4A15516   1.740   5.936  13.238  2.6541 -0.7242 -0.6315
  126CHL1   H4B15517   1.637   5.793  13.208  0.2262 -0.4432  0.1428
  126CHL1    C515518   1.698   5.827  13.419 -0.0350 -0.4197 -0.2106
  126CHL1    C615519   1.579   5.793  13.470  0.1690  0.3193  0.1129
  126CHL1    H615520   1.504   5.757  13.398 -0.7614  0.5051  0.9700
  126CHL1    C715521   1.538   5.785  13.610 -0.1136  0.0112  0.3810
  126CHL1   H7A15522   1.430   5.806  13.624 -0.1853  0.5004 -0.8199
  126CHL1   H7B15523   1.546   5.677  13.634  3.2311 -0.3118 -1.5394
  126CHL1    C815524   1.639   5.859  13.706 -0.3429 -0.4626 -0.0602
  126CHL1    H815525   1.623   5.969  13.703 -0.8682 -0.5506 -0.6953
  126CHL1   C1415526   1.632   5.817  13.845 -0.0309 -0.0796 -0.2242
  126CHL1   H1415527   1.631   5.706  13.849 -0.9837 -0.0753 -0.2705
  126CHL1   C1515528   1.494   5.847  13.919 -0.7588 -0.0093 -0.0685
  126CHL1  H15A15529   1.471   5.956  13.912  4.1731  1.5188  2.5605
  126CHL1  H15B15530   1.404   5.797  13.879 -1.3125  0.7416  0.2193
  126CHL1   C1615531   1.522   5.826  14.067 -0.7037  0.4349  0.4066
  126CHL1  H16A15532   1.481   5.912  14.124 -1.1224  0.1118  0.5937
  126CHL1  H16B15533   1.478   5.731  14.104 -0.0666 -0.1048 -0.1893
  126CHL1   C1715534   1.675   5.807  14.083 -0.1404  0.5270 -0.5421
  126CHL1   H1715535   1.691   5.697  14.073  0.2793  0.5482 -0.1572
  126CHL1   C1315536   1.733   5.866  13.944 -0.2534  0.5280 -1.0818
  126CHL1   C1815537   1.720   6.019  13.961 -0.6766 -0.2760  0.5742
  126CHL1  H18A15538   1.717   6.072  13.863 -2.4641  0.9983  1.2727
  126CHL1  H18B15539   1.620   6.047  14.000 -0.1998  0.5391  1.2461
  126CHL1  H18C15540   1.798   6.054  14.032 -1.2708 -0.7518  1.4724
  126CHL1   C1215541   1.870   5.827  13.906  0.7237 -0.1966 -0.6438
  126CHL1  H12A15542   1.952   5.853  13.976 -0.1198 -0.3157  0.4278
  126CHL1  H12B15543   1.876   5.716  13.908 -1.8838 -0.4200  1.9094
  126CHL1   C1115544   1.896   5.883  13.761 -0.0061  0.1471  0.7858
  126CHL1  H11A15545   1.919   5.990  13.746  2.6261 -0.5096 -0.3311
  126CHL1  H11B15546   1.994   5.837  13.736 -0.0306 -0.4422  1.7259
  126CHL1    C915547   1.783   5.835  13.659 -0.2468 -0.4613  0.4394
  126CHL1    H915548   1.792   5.725  13.666 -0.4854 -0.4638  0.7662
  126CHL1   C1015549   1.815   5.867  13.509  0.1614  0.6467  0.0468
  126CHL1   C1915550   1.851   6.014  13.486 -0.2909 -0.3632 -1.1776
  126CHL1  H19A15551   1.785   6.094  13.526  0.4559  0.3514 -1.3294
  126CHL1  H19B15552   1.954   6.027  13.524 -0.7174  2.2130 -0.7269
  126CHL1  H19C15553   1.881   6.038  13.381 -1.4382 -0.6514 -1.5827
  126CHL1    C115554   1.942   5.783  13.459  0.1748 -0.3721  0.3890
  126CHL1   H1A15555   2.028   5.816  13.522 -0.0764 -0.0971  0.5879
  126CHL1   H1B15556   1.946   5.673  13.477  0.6731 -0.3717  0.3086
  126CHL1    C215557   1.962   5.771  13.300 -0.6809 -0.2505 -0.1715
  126CHL1   H2A15558   2.033   5.688  13.282 -2.4226 -1.8053 -0.0508
  126CHL1   H2B15559   2.001   5.874  13.281 -0.4402 -0.1838  0.6423
  126CHL1   C2015560   1.737   5.833  14.227  0.8335  0.3309  0.2948
  126CHL1   H2015561   1.770   5.939  14.235 -0.6685  1.2111 -3.2909
  126CHL1   C2115562   1.867   5.750  14.240 -0.1202 -0.2017 -0.4026
  126CHL1  H21A15563   1.918   5.798  14.327 -0.9032  0.6970 -0.4321
  126CHL1  H21B15564   1.938   5.750  14.155  1.5741 -1.3424  0.9215
  126CHL1  H21C15565   1.844   5.646  14.273  1.4938  0.0010  1.5880
  126CHL1   C2215566   1.633   5.812  14.340 -0.2240  0.8398  0.6134
  126CHL1  H22A15567   1.549   5.884  14.325  0.7933  2.0625  0.6373
  126CHL1  H22B15568   1.606   5.704  14.342 -0.2604  0.8201 -0.3656
  126CHL1   C2315569   1.698   5.835  14.478 -0.3305 -0.3747 -1.3069
  126CHL1  H23A15570   1.777   5.762  14.506 -0.6580  0.0958  1.1052
  126CHL1  H23B15571   1.736   5.939  14.491  0.6723 -0.8724  0.0337
  126CHL1   C2415572   1.602   5.810  14.598 -0.0962 -0.0970 -0.0359
  126CHL1  H24A15573   1.513   5.875  14.587 -0.0683  0.1207  0.9103
  126CHL1  H24B15574   1.577   5.702  14.594  0.2088 -0.1630 -3.2128
  126CHL1   C2515575   1.666   5.837  14.735 -0.1002  0.5125  0.3384
  126CHL1   H2515576   1.773   5.805  14.735 -0.2102  0.0983  1.3654
  126CHL1   C2615577   1.664   5.987  14.760 -0.4713  0.5521  0.1116
  126CHL1  H26A15578   1.562   6.027  14.742 -1.0107 -0.8136  0.0387
  126CHL1  H26B15579   1.687   6.010  14.867 -0.0618  1.1236 -0.0915
  126CHL1  H26C15580   1.735   6.051  14.703  1.1360  0.2030  1.6262
  126CHL1   C2715581   1.588   5.760  14.849  0.1037 -0.2390  0.2542
  126CHL1  H27A15582   1.605   5.806  14.949 -1.3754 -1.5781  1.1610
  126CHL1  H27B15583   1.479   5.769  14.830  0.2960 -1.6478 -1.7610
  126CHL1  H27C15584   1.617   5.654  14.863  1.2179  0.0711  0.3956
  127CHL1    C315585   2.544   7.250  13.200  0.6144 -0.0231  0.7574
  127CHL1    H315586   2.498   7.342  13.242 -0.4545 -0.1692 -0.0442
  127CHL1    O315587   2.563   7.280  13.062 -0.0261 -0.3814  0.3053
  127CHL1   H3'15588   2.641   7.233  13.034 -0.0142 -0.0148 -0.2874
  127CHL1    C415589   2.671   7.198  13.268 -0.2363 -0.5139  0.1363
  127CHL1   H4A15590   2.709   7.111  13.211  0.1921 -1.0454  1.2133
  127CHL1   H4B15591   2.757   7.268  13.257 -0.6781 -0.1735 -1.4416
  127CHL1    C515592   2.649   7.153  13.409 -0.0883 -0.9175  0.5063
  127CHL1    C615593   2.709   7.214  13.510  0.1352 -0.2977 -0.6602
  127CHL1    H615594   2.789   7.287  13.489  0.3501 -0.8132 -1.7199
  127CHL1    C715595   2.678   7.186  13.655  0.2341 -0.7582  0.4749
  127CHL1   H7A15596   2.770   7.191  13.718  1.3931 -2.1249 -1.0111
  127CHL1   H7B15597   2.616   7.269  13.695  2.3355  1.2618 -0.2005
  127CHL1    C815598   2.616   7.045  13.676 -0.2502 -0.2184  0.0201
  127CHL1    H815599   2.699   6.972  13.666  1.3880  1.6937 -0.8195
  127CHL1   C1415600   2.560   7.039  13.813 -0.0440 -0.4306 -0.2916
  127CHL1   H1415601   2.489   7.124  13.826  2.5852  1.7513  0.7386
  127CHL1   C1515602   2.654   7.065  13.930  0.1975 -0.0590 -0.0687
  127CHL1  H15A15603   2.751   7.013  13.920  0.0580 -0.1255 -1.3291
  127CHL1  H15B15604   2.690   7.170  13.932  1.6399 -0.5403  0.0520
  127CHL1   C1615605   2.573   7.018  14.055  0.1665  0.2211  0.3986
  127CHL1  H16A15606   2.637   6.958  14.123 -0.0971  0.6898  1.0712
  127CHL1  H16B15607   2.531   7.105  14.110  0.0542  0.0047  0.6530
  127CHL1   C1715608   2.446   6.940  14.000  0.3614 -0.1259  0.0661
  127CHL1   H1715609   2.366   7.018  13.996  0.1932 -0.3651 -1.5781
  127CHL1   C1315610   2.476   6.913  13.850 -1.2571  0.3240 -0.5652
  127CHL1   C1815611   2.560   6.786  13.831  0.2747  0.3125 -0.3713
  127CHL1  H18A15612   2.499   6.701  13.869 -2.5281  2.3267 -0.0435
  127CHL1  H18B15613   2.591   6.781  13.725  1.0767 -2.2041 -0.1011
  127CHL1  H18C15614   2.653   6.792  13.892  0.5981  1.0908 -0.9331
  127CHL1   C1215615   2.354   6.908  13.755  0.3549  0.1022  0.4999
  127CHL1  H12A15616   2.286   6.821  13.762  0.6779 -0.2063 -0.2008
  127CHL1  H12B15617   2.301   7.002  13.784  0.3984  0.5231 -0.7343
  127CHL1   C1115618   2.399   6.915  13.606 -0.4371 -0.5705  0.2193
  127CHL1  H11A15619   2.452   6.818  13.591  1.2027 -0.0956  2.4087
  127CHL1  H11B15620   2.312   6.940  13.542  1.1449  0.2764 -1.6944
  127CHL1    C915621   2.496   7.024  13.576 -0.0127  0.2129 -0.2658
  127CHL1    H915622   2.431   7.113  13.594 -2.7728 -1.7384 -0.0055
  127CHL1   C1015623   2.541   7.045  13.428 -0.1667  0.1605 -0.0534
  127CHL1   C1915624   2.594   6.902  13.381 -0.0298 -0.1602 -0.0148
  127CHL1  H19A15625   2.506   6.834  13.378 -1.6312  1.5842  2.7341
  127CHL1  H19B15626   2.626   6.908  13.274  0.6770 -1.8510  0.0709
  127CHL1  H19C15627   2.681   6.865  13.439  1.2045  0.9245 -1.0991
  127CHL1    C115628   2.415   7.095  13.350 -0.2391 -0.1507  0.0520
  127CHL1   H1A15629   2.336   7.018  13.350  1.9761 -2.5752 -1.2217
  127CHL1   H1B15630   2.378   7.189  13.398  0.8738 -0.1162  0.8875
  127CHL1    C215631   2.434   7.144  13.207 -0.1516  0.4876  0.3702
  127CHL1   H2A15632   2.343   7.192  13.164  0.2228  2.4458  1.6470
  127CHL1   H2B15633   2.457   7.064  13.133  0.4386  0.9486  0.0490
  127CHL1   C2015634   2.394   6.825  14.090  0.1816 -0.0204  0.2659
  127CHL1   H2015635   2.485   6.762  14.105 -0.2114 -0.5363  0.5149
  127CHL1   C2115636   2.284   6.740  14.027  0.3496 -0.3063  0.4044
  127CHL1  H21A15637   2.316   6.667  13.949  1.7467  0.4630  0.2257
  127CHL1  H21B15638   2.204   6.813  14.000 -0.4988 -1.0808  0.7418
  127CHL1  H21C15639   2.244   6.675  14.108  0.0290 -0.9835 -0.2793
  127CHL1   C2215640   2.349   6.882  14.227 -0.1382  0.1684  0.3014
  127CHL1  H22A15641   2.399   6.978  14.254  1.2547 -0.4561  0.0384
  127CHL1  H22B15642   2.244   6.912  14.204 -0.2760 -1.0899 -0.8012
  127CHL1   C2315643   2.359   6.784  14.342  0.1579  0.2710 -0.4259
  127CHL1  H23A15644   2.287   6.703  14.320 -0.0886  0.5020 -0.4807
  127CHL1  H23B15645   2.458   6.734  14.349 -0.3539 -0.8236 -0.7576
  127CHL1   C2415646   2.336   6.857  14.477 -0.6039  0.4600  0.7137
  127CHL1  H24A15647   2.421   6.927  14.495  0.6911 -0.7697 -0.3031
  127CHL1  H24B15648   2.245   6.917  14.457  0.4471  1.8774 -0.0058
  127CHL1   C2515649   2.316   6.774  14.600 -0.1438  0.5705 -1.0278
  127CHL1   H2515650   2.408   6.717  14.621 -0.3218  0.7814  0.4362
  127CHL1   C2615651   2.293   6.872  14.712  0.1086  0.1122 -0.6527
  127CHL1  H26A15652   2.201   6.934  14.701  0.4695  0.6541 -0.6614
  127CHL1  H26B15653   2.286   6.817  14.809 -0.1150 -1.2962 -1.4367
  127CHL1  H26C15654   2.380   6.940  14.703 -0.1270  0.3705 -0.9858
  127CHL1   C2715655   2.191   6.685  14.588  0.3347 -0.4189 -0.5313
  127CHL1  H27A15656   2.200   6.614  14.503  2.6617 -0.3887 -0.3498
  127CHL1  H27B15657   2.176   6.636  14.686  0.5198 -1.3409 -0.9585
  127CHL1  H27C15658   2.101   6.747  14.564 -0.8964 -1.5034  1.0853
  128CHL1    C315659   1.650   1.074  13.237 -0.0242  0.4150  0.2304
  128CHL1    H315660   1.589   1.147  13.181  0.1853 -0.1610 -0.7666
  128CHL1    O315661   1.664   0.970  13.143  0.4182 -0.2841 -0.2712
  128CHL1   H3'15662   1.719   1.007  13.073 -1.4937  0.5941 -1.3880
  128CHL1    C415663   1.785   1.140  13.262 -0.8602 -0.2580 -0.1002
  128CHL1   H4A15664   1.850   1.069  13.317 -1.5477  0.5302  1.7842
  128CHL1   H4B15665   1.834   1.155  13.163 -0.3168 -1.7573 -0.0757
  128CHL1    C515666   1.765   1.269  13.335  0.3344  0.2212 -0.1102
  128CHL1    C615667   1.821   1.381  13.291  0.0832  0.8463 -0.1339
  128CHL1    H615668   1.869   1.384  13.192 -2.1353 -3.4340 -1.6077
  128CHL1    C715669   1.814   1.514  13.359 -0.3040 -0.3832  0.4484
  128CHL1   H7A15670   1.917   1.554  13.372  0.5800 -2.5356  0.5234
  128CHL1   H7B15671   1.749   1.578  13.296  0.5406  0.7712  0.6973
  128CHL1    C815672   1.767   1.496  13.508 -0.5006 -0.9208 -0.4634
  128CHL1    H815673   1.853   1.456  13.567  0.0706 -1.3624 -1.5571
  128CHL1   C1415674   1.718   1.638  13.562 -0.1938  1.2895 -0.5655
  128CHL1   H1415675   1.636   1.666  13.492 -1.0177  0.0598 -0.1326
  128CHL1   C1515676   1.820   1.753  13.554  0.4034 -0.9564  0.5978
  128CHL1  H15A15677   1.925   1.728  13.582 -0.3227 -1.6528  2.8629
  128CHL1  H15B15678   1.822   1.792  13.450 -1.2532 -0.2977  0.7868
  128CHL1   C1615679   1.754   1.859  13.639 -0.1788 -0.6266 -0.9340
  128CHL1  H16A15680   1.840   1.883  13.705 -1.0888 -0.0594  0.0601
  128CHL1  H16B15681   1.704   1.943  13.586  1.1696 -0.2162 -1.6179
  128CHL1   C1715682   1.636   1.781  13.724 -0.0908 -0.0357  0.1734
  128CHL1   H1715683   1.540   1.799  13.669  0.5147 -0.8809 -1.2247
  128CHL1   C1315684   1.670   1.630  13.703  0.6304 -0.0365 -0.5260
  128CHL1   C1815685   1.778   1.575  13.799  0.0591  0.1089 -0.3814
  128CHL1  H18A15686   1.757   1.573  13.908  1.2458 -1.6211 -0.1420
  128CHL1  H18B15687   1.797   1.468  13.776 -0.9767 -0.8831  2.8193
  128CHL1  H18C15688   1.873   1.630  13.783 -0.5614  0.9902 -1.1567
  128CHL1   C1215689   1.544   1.548  13.713  0.2323  0.0213  0.1904
  128CHL1  H12A15690   1.498   1.545  13.814 -1.2473 -1.6350 -0.4645
  128CHL1  H12B15691   1.474   1.587  13.636  0.1784 -3.0023 -1.4762
  128CHL1   C1115692   1.576   1.405  13.662 -0.1886 -0.8312  0.7621
  128CHL1  H11A15693   1.646   1.356  13.733  0.2660 -0.3812  0.6330
  128CHL1  H11B15694   1.479   1.351  13.654 -0.9093  0.4226  0.9051
  128CHL1    C915695   1.645   1.397  13.517 -0.3046 -0.1912 -0.2679
  128CHL1    H915696   1.563   1.435  13.452 -0.1328 -0.2078 -0.4937
  128CHL1   C1015697   1.680   1.255  13.468 -0.0523 -0.1154 -0.2112
  128CHL1   C1915698   1.778   1.186  13.562  0.1967 -0.4784 -0.3906
  128CHL1  H19A15699   1.783   1.080  13.531 -2.5362  0.0945 -3.3814
  128CHL1  H19B15700   1.877   1.234  13.581 -0.6564  0.3531  2.4134
  128CHL1  H19C15701   1.721   1.187  13.657 -2.5464 -2.9808 -1.8466
  128CHL1    C115702   1.555   1.175  13.448 -0.4624 -0.3705  0.2812
  128CHL1   H1A15703   1.506   1.141  13.542 -1.3494 -1.8494 -0.6907
  128CHL1   H1B15704   1.483   1.238  13.393  1.9996  1.2835 -1.2647
  128CHL1    C215705   1.577   1.046  13.363 -0.2589  0.5910  0.4165
  128CHL1   H2A15706   1.479   1.000  13.338  0.0060 -0.2452  0.8749
  128CHL1   H2B15707   1.642   0.973  13.416  0.8663  0.7944 -0.6232
  128CHL1   C2015708   1.624   1.826  13.871  0.3097  0.2411 -0.1074
  128CHL1   H2015709   1.602   1.737  13.934  3.2711 -0.3799  0.1739
  128CHL1   C2115710   1.501   1.921  13.868  0.0474  0.5183  0.4492
  128CHL1  H21A15711   1.521   1.997  13.790  1.6825  2.7326  2.8892
  128CHL1  H21B15712   1.479   1.971  13.964  1.3240  1.1890  0.4121
  128CHL1  H21C15713   1.400   1.875  13.855  0.8676 -1.5161  0.8073
  128CHL1   C2215714   1.736   1.897  13.948  0.1224 -0.8052  0.5791
  128CHL1  H22A15715   1.823   1.828  13.939 -0.1405 -1.1585  0.7101
  128CHL1  H22B15716   1.773   1.994  13.909  2.2566 -1.3718  1.0618
  128CHL1   C2315717   1.699   1.926  14.095 -0.1470 -0.4890 -0.5369
  128CHL1  H23A15718   1.628   2.010  14.109 -0.3608 -1.0400  2.4989
  128CHL1  H23B15719   1.648   1.836  14.137 -0.7410  0.1536  0.1614
  128CHL1   C2415720   1.825   1.965  14.166 -0.7937  0.5216 -0.1524
  128CHL1  H24A15721   1.886   1.879  14.133 -2.2923 -0.3225 -0.8441
  128CHL1  H24B15722   1.861   2.060  14.120  2.0937 -0.9522 -1.1680
  128CHL1   C2515723   1.820   1.969  14.321  0.2557 -0.7895  0.6519
  128CHL1   H2515724   1.925   1.995  14.348  1.1198 -1.4044 -1.7958
  128CHL1   C2615725   1.739   2.087  14.375 -0.5180 -0.3846 -1.1060
  128CHL1  H26A15726   1.763   2.181  14.322  0.8309 -0.2780 -0.3402
  128CHL1  H26B15727   1.630   2.064  14.371 -0.2618 -2.3000  0.9385
  128CHL1  H26C15728   1.762   2.099  14.483 -0.2194  1.2865 -1.3359
  128CHL1   C2715729   1.770   1.841  14.375  0.0462  0.2316 -0.6677
  128CHL1  H27A15730   1.835   1.755  14.348  2.1597  0.3620  3.3772
  128CHL1  H27B15731   1.754   1.834  14.484  0.6291 -1.1514 -0.6539
  128CHL1  H27C15732   1.664   1.831  14.340 -0.4851 -0.9134  1.1438
  129CHL1    C315733   4.869   6.512  13.274  0.2966  0.0861  0.1748
  129CHL1    H315734   4.797   6.443  13.225  0.5134  0.5093 -0.7567
  129CHL1    O315735   4.922   6.590  13.170 -0.0508 -0.2058  0.4967
  129CHL1   H3'15736   4.848   6.604  13.110 -0.9536  0.6108  1.7708
  129CHL1    C415737   4.802   6.615  13.368  0.1089  0.6822 -0.6484
  129CHL1   H4A15738   4.878   6.689  13.399 -0.7723  0.3284  2.7152
  129CHL1   H4B15739   4.723   6.669  13.311 -1.2939 -0.1570  0.4409
  129CHL1    C515740   4.739   6.557  13.488 -0.0967  0.3608  0.5663
  129CHL1    C615741   4.606   6.572  13.522 -0.4834  0.3053 -0.2548
  129CHL1    H615742   4.558   6.648  13.460  1.8104  0.2430 -2.2772
  129CHL1    C715743   4.544   6.527  13.649  0.5616  0.5184  0.1858
  129CHL1   H7A15744   4.480   6.609  13.689 -2.8024  0.8355 -4.9627
  129CHL1   H7B15745   4.470   6.446  13.631 -1.6412  1.9671  2.1982
  129CHL1    C815746   4.655   6.472  13.748  0.1385 -0.1068 -0.2622
  129CHL1    H815747   4.694   6.549  13.817  0.2292 -2.5225  2.5868
  129CHL1   C1415748   4.586   6.384  13.854  0.8272 -0.4262  0.2214
  129CHL1   H1415749   4.541   6.298  13.800 -0.2013 -0.3840  0.9872
  129CHL1   C1515750   4.467   6.457  13.923  0.3992  1.2729 -0.2712
  129CHL1  H15A15751   4.486   6.564  13.944  1.4186  0.8072  1.3323
  129CHL1  H15B15752   4.376   6.456  13.858 -1.3550 -0.4854  2.0426
  129CHL1   C1615753   4.446   6.375  14.059 -0.2397  0.6264  0.1171
  129CHL1  H16A15754   4.461   6.440  14.147  1.0818 -1.5179  1.5610
  129CHL1  H16B15755   4.354   6.312  14.066  0.8740 -1.2146 -0.8643
  129CHL1   C1715756   4.570   6.271  14.055  0.7820  0.2581  0.5362
  129CHL1   H1715757   4.546   6.183  13.991  0.9356  0.5519  0.0641
  129CHL1   C1315758   4.678   6.337  13.963 -0.5584 -0.1440 -0.3572
  129CHL1   C1815759   4.741   6.462  14.043 -0.1742 -0.0891 -0.2396
  129CHL1  H18A15760   4.801   6.530  13.978  1.7030 -0.4017  1.0944
  129CHL1  H18B15761   4.668   6.522  14.101  0.1699  0.2478 -0.1509
  129CHL1  H18C15762   4.817   6.417  14.111 -0.4348 -3.6000 -2.0751
  129CHL1   C1215763   4.787   6.248  13.892  0.5994 -0.4900  0.0051
  129CHL1  H12A15764   4.853   6.201  13.967  0.0143  0.6606  1.2909
  129CHL1  H12B15765   4.728   6.170  13.839 -0.6320  0.2631  0.2202
  129CHL1   C1115766   4.865   6.330  13.786 -0.5078 -0.9199 -0.5737
  129CHL1  H11A15767   4.919   6.406  13.847  0.3543 -0.7674 -1.5102
  129CHL1  H11B15768   4.942   6.259  13.748 -0.4895 -2.0004  1.3157
  129CHL1    C915769   4.772   6.395  13.681 -0.0200  0.0410 -0.0076
  129CHL1    H915770   4.723   6.308  13.633 -0.9107  0.1857  0.6038
  129CHL1   C1015771   4.846   6.470  13.571  0.0926  0.0827  0.0973
  129CHL1   C1915772   4.946   6.567  13.637 -0.0506  0.5993 -0.5525
  129CHL1  H19A15773   4.892   6.628  13.713 -4.9580 -0.2149 -2.9995
  129CHL1  H19B15774   5.039   6.514  13.670 -0.8036  0.0935  0.8678
  129CHL1  H19C15775   4.987   6.640  13.564  0.3127 -0.4750 -1.4576
  129CHL1    C115776   4.911   6.360  13.479 -0.1567 -0.2435 -0.2356
  129CHL1   H1A15777   4.994   6.313  13.535 -0.7503 -2.3198 -0.9996
  129CHL1   H1B15778   4.840   6.282  13.443  0.1810  0.0787 -1.6771
  129CHL1    C215779   4.972   6.427  13.348  0.4293 -0.2194 -0.1192
  129CHL1   H2A15780   5.015   6.349  13.281 -1.9577  0.1270 -2.1803
  129CHL1   H2B15781   5.054   6.489  13.391  1.5045 -1.7119  0.0615
  129CHL1   C2015782   4.613   6.220  14.198  0.6127  0.1251 -0.1869
  129CHL1   H2015783   4.636   6.305  14.265 -1.4801  0.8484 -0.3191
  129CHL1   C2115784   4.731   6.124  14.207  0.5249  0.2273  0.2299
  129CHL1  H21A15785   4.724   6.050  14.125  1.8128 -0.5600  0.8080
  129CHL1  H21B15786   4.721   6.067  14.301 -0.3806  0.1564  0.1015
  129CHL1  H21C15787   4.828   6.177  14.205  0.5453  0.2000  0.4656
  129CHL1   C2215788   4.490   6.142  14.269 -0.0035  0.1107  0.0638
  129CHL1  H22A15789   4.510   6.114  14.375 -0.7662 -1.8014 -0.2621
  129CHL1  H22B15790   4.410   6.219  14.269 -0.2795 -0.1670  0.8094
  129CHL1   C2315791   4.449   6.021  14.189  0.4467  0.4133 -0.4224
  129CHL1  H23A15792   4.447   6.025  14.078  1.5360 -0.6250 -0.5005
  129CHL1  H23B15793   4.527   5.943  14.204  0.4350  0.9009  2.8284
  129CHL1   C2415794   4.303   5.980  14.221  0.3510  0.2031 -0.3701
  129CHL1  H24A15795   4.294   5.944  14.326 -0.6727  0.8718 -0.2113
  129CHL1  H24B15796   4.238   6.070  14.213 -0.0190 -0.0123  0.1862
  129CHL1   C2515797   4.235   5.867  14.140 -0.4753 -1.1110 -0.0375
  129CHL1   H2515798   4.230   5.907  14.037  0.2996 -0.4578  0.1646
  129CHL1   C2615799   4.329   5.750  14.146  0.1837 -0.7240 -0.7784
  129CHL1  H26A15800   4.351   5.719  14.250 -1.0391 -0.2869 -0.3685
  129CHL1  H26B15801   4.277   5.661  14.102 -0.7923 -1.7985  2.2991
  129CHL1  H26C15802   4.428   5.776  14.103  2.4384  0.3553  4.3943
  129CHL1   C2715803   4.095   5.847  14.186 -0.0044 -0.2787 -0.1068
  129CHL1  H27A15804   4.045   5.807  14.095  0.6981  0.9027 -1.0521
  129CHL1  H27B15805   4.102   5.771  14.266 -2.0343  1.1404  1.5279
  129CHL1  H27C15806   4.040   5.941  14.212 -0.7288 -0.7123 -0.0423
  130CHL1    C315807   2.702   6.516  13.340  0.2979  0.1293 -0.6839
  130CHL1    H315808   2.762   6.604  13.370  0.0586 -0.9054  3.4162
  130CHL1    O315809   2.676   6.507  13.204 -0.3230 -0.2296 -0.1796
  130CHL1   H3'15810   2.660   6.412  13.194 -0.0462 -0.3854  0.7260
  130CHL1    C415811   2.773   6.385  13.394  0.0205 -0.4110  0.6205
  130CHL1   H4A15812   2.729   6.299  13.340  2.0428 -0.1549 -1.5976
  130CHL1   H4B15813   2.876   6.391  13.354 -0.8195  1.9934 -1.5329
  130CHL1    C515814   2.776   6.385  13.546  0.0865 -0.6207 -0.0259
  130CHL1    C615815   2.898   6.370  13.614 -0.0997  0.2211  0.6957
  130CHL1    H615816   2.992   6.355  13.560 -0.1908  3.3336 -0.5589
  130CHL1    C715817   2.912   6.359  13.758  0.2036  0.4541  0.2910
  130CHL1   H7A15818   2.971   6.266  13.777 -1.1632 -0.4978  0.0515
  130CHL1   H7B15819   2.967   6.451  13.789  1.8664  0.4836 -2.4465
  130CHL1    C815820   2.778   6.343  13.831  0.1570 -0.4598 -0.0885
  130CHL1    H815821   2.749   6.237  13.812  3.0115 -1.6755  1.6046
  130CHL1   C1415822   2.788   6.371  13.981 -0.6513  0.3857  0.9054
  130CHL1   H1415823   2.811   6.480  13.981  0.0020  0.3510 -2.6288
  130CHL1   C1515824   2.905   6.295  14.047 -0.1057  0.3559  0.7957
  130CHL1  H15A15825   2.907   6.190  14.011  0.3371  0.3587  0.8026
  130CHL1  H15B15826   3.005   6.345  14.044  1.0884 -1.7829  2.2938
  130CHL1   C1615827   2.860   6.305  14.195  0.1524 -0.1600 -0.1628
  130CHL1  H16A15828   2.877   6.212  14.252 -0.1958 -0.1572 -0.0520
  130CHL1  H16B15829   2.925   6.385  14.236  1.2351 -1.3788  0.5782
  130CHL1   C1715830   2.705   6.347  14.200  0.5171  0.1751 -0.3536
  130CHL1   H1715831   2.698   6.456  14.219  0.1593  0.3056 -1.2317
  130CHL1   C1315832   2.659   6.338  14.057 -0.0511 -0.4279  0.4569
  130CHL1   C1815833   2.623   6.191  14.041 -0.0449  0.3336  0.2903
  130CHL1  H18A15834   2.529   6.168  14.095 -0.7925  0.7270 -0.7944
  130CHL1  H18B15835   2.587   6.171  13.938 -0.2741  1.1530  0.2034
  130CHL1  H18C15836   2.695   6.114  14.076 -0.0392  0.2304  0.0517
  130CHL1   C1215837   2.556   6.430  14.006 -0.5563  0.5236 -0.9174
  130CHL1  H12A15838   2.457   6.423  14.056  0.7431 -0.2123  1.7650
  130CHL1  H12B15839   2.591   6.529  14.044  1.1347 -0.2390 -0.3810
  130CHL1   C1115840   2.536   6.423  13.856 -0.4727 -0.6849  0.0375
  130CHL1  H11A15841   2.482   6.327  13.841 -1.1484 -0.3996  0.6000
  130CHL1  H11B15842   2.472   6.504  13.815  1.4796  1.0709  0.2525
  130CHL1    C915843   2.664   6.430  13.770 -0.3891  0.1427 -0.8656
  130CHL1    H915844   2.710   6.531  13.775 -0.2813  0.0332  0.4521
  130CHL1   C1015845   2.646   6.407  13.619  0.0945  0.4561 -0.6030
  130CHL1   C1915846   2.557   6.280  13.585  0.0018  0.7442  0.2016
  130CHL1  H19A15847   2.599   6.187  13.629 -2.0491 -0.5385 -0.4127
  130CHL1  H19B15848   2.457   6.295  13.631 -0.5624 -0.7083 -0.4522
  130CHL1  H19C15849   2.549   6.260  13.476  2.2696  1.7906 -0.2048
  130CHL1    C115850   2.585   6.538  13.564  0.1631  0.0185  0.0363
  130CHL1   H1A15851   2.481   6.535  13.605  0.5162  0.2634  0.9627
  130CHL1   H1B15852   2.634   6.632  13.596 -1.1573  1.2627 -1.4364
  130CHL1    C215853   2.567   6.534  13.412  0.0201  0.3639  0.5565
  130CHL1   H2A15854   2.520   6.622  13.364  1.8364  0.7940 -0.5067
  130CHL1   H2B15855   2.502   6.445  13.397  1.7862 -0.6668 -1.5531
  130CHL1   C2015856   2.622   6.282  14.318  0.3971  0.5052 -0.2359
  130CHL1   H2015857   2.631   6.174  14.298  0.2400  0.7101 -1.4798
  130CHL1   C2115858   2.474   6.331  14.306 -0.2868  0.3282 -0.5705
  130CHL1  H21A15859   2.423   6.285  14.394  2.2895 -0.6620  0.5439
  130CHL1  H21B15860   2.405   6.293  14.228  0.5871 -0.0168 -1.1973
  130CHL1  H21C15861   2.461   6.441  14.304 -1.1859  0.2132 -2.4621
  130CHL1   C2215862   2.679   6.315  14.456 -0.7262  0.2630 -0.3374
  130CHL1  H22A15863   2.771   6.375  14.442  0.7952 -2.0633 -0.8726
  130CHL1  H22B15864   2.600   6.374  14.508 -0.0943  0.2487  0.6791
  130CHL1   C2315865   2.692   6.191  14.542 -0.2793  0.3666  0.7966
  130CHL1  H23A15866   2.590   6.149  14.552 -0.8198  1.6269  0.7834
  130CHL1  H23B15867   2.765   6.128  14.487 -0.4477 -0.6499  1.7023
  130CHL1   C2415868   2.750   6.201  14.684 -0.0278  0.1316  0.0432
  130CHL1  H24A15869   2.861   6.200  14.680 -0.0641 -0.0006 -1.6259
  130CHL1  H24B15870   2.712   6.298  14.722  1.2013 -0.2981  2.6341
  130CHL1   C2515871   2.700   6.092  14.776  0.0849 -0.2853 -0.5705
  130CHL1   H2515872   2.592   6.081  14.753 -0.1520  2.2829 -0.9565
  130CHL1   C2615873   2.783   5.974  14.736 -0.2362  0.1917 -0.1742
  130CHL1  H26A15874   2.758   5.883  14.793 -1.9106  0.5435 -0.3074
  130CHL1  H26B15875   2.771   5.950  14.628  0.1482  0.2256 -0.2286
  130CHL1  H26C15876   2.892   5.994  14.750 -0.5371  3.2663 -1.3881
  130CHL1   C2715877   2.727   6.140  14.923 -0.2106  0.4221  0.5125
  130CHL1  H27A15878   2.835   6.153  14.946 -0.1861 -0.6417  1.0606
  130CHL1  H27B15879   2.677   6.236  14.951 -0.5733  0.2046  0.6187
  130CHL1  H27C15880   2.689   6.056  14.985  2.4259 -0.5211  1.0096
  131CHL1    C315881   7.180   5.238  13.250  0.1728 -0.1457 -0.4081
  131CHL1    H315882   7.277   5.286  13.275 -1.5758  2.6463  1.7504
  131CHL1    O315883   7.182   5.190  13.118 -0.1607 -0.4317 -0.5430
  131CHL1   H3'15884   7.093   5.167  13.090 -0.4503  1.0413 -0.8966
  131CHL1    C415885   7.141   5.121  13.343 -0.2814 -0.3759 -0.1864
  131CHL1   H4A15886   7.042   5.081  13.312 -1.4375  0.0703  2.6781
  131CHL1   H4B15887   7.210   5.034  13.334 -0.1699 -0.1933 -1.2856
  131CHL1    C515888   7.141   5.167  13.492  0.1891 -0.4127 -0.0781
  131CHL1    C615889   7.211   5.104  13.587  0.0133  0.5723  0.2009
  131CHL1    H615890   7.256   5.008  13.560  0.6429  0.7435  0.6152
  131CHL1    C715891   7.220   5.145  13.734 -0.1152  0.2127 -0.4565
  131CHL1   H7A15892   7.191   5.057  13.794  0.0626  1.9319  2.3222
  131CHL1   H7B15893   7.326   5.169  13.756  0.8852 -1.5727 -2.8714
  131CHL1    C815894   7.116   5.250  13.773 -1.0435 -0.1917 -0.5657
  131CHL1    H815895   7.017   5.201  13.785 -0.8659 -0.5946 -0.7212
  131CHL1   C1415896   7.158   5.310  13.907 -0.1104 -0.3430  0.2410
  131CHL1   H1415897   7.257   5.357  13.890  0.0198 -0.8935 -0.6039
  131CHL1   C1515898   7.178   5.212  14.032  0.0826 -0.0132  0.4130
  131CHL1  H15A15899   7.105   5.129  14.038  3.2457 -3.3018 -1.6558
  131CHL1  H15B15900   7.276   5.161  14.019  1.3976  2.3733  0.4729
  131CHL1   C1615901   7.180   5.304  14.149  0.1475 -0.3137 -0.3053
  131CHL1  H16A15902   7.120   5.267  14.235 -1.2755  1.7380 -0.3523
  131CHL1  H16B15903   7.283   5.329  14.185 -0.9661  1.9326  1.6327
  131CHL1   C1715904   7.121   5.441  14.097  0.3124  0.3232  0.0453
  131CHL1   H1715905   7.207   5.505  14.068  0.5629  0.7708  1.6796
  131CHL1   C1315906   7.057   5.414  13.961 -0.2012  0.7573 -0.0311
  131CHL1   C1815907   6.920   5.348  13.974 -0.1888  0.2091 -0.0903
  131CHL1  H18A15908   6.846   5.423  14.007  1.4326  0.8865  2.2329
  131CHL1  H18B15909   6.881   5.311  13.877 -3.1791 -2.2219  1.8616
  131CHL1  H18C15910   6.914   5.263  14.046 -2.3961 -0.8768 -1.4413
  131CHL1   C1215911   7.053   5.539  13.856 -0.7766  0.8099  0.6030
  131CHL1  H12A15912   6.973   5.607  13.891 -1.3609 -0.3983  1.7221
  131CHL1  H12B15913   7.157   5.578  13.852 -0.6132  0.4003 -3.3425
  131CHL1   C1115914   7.013   5.480  13.716  0.8686  0.0458  0.3264
  131CHL1  H11A15915   6.904   5.459  13.710  1.1918 -1.4312 -0.9888
  131CHL1  H11B15916   7.030   5.558  13.638  0.9721 -1.2066 -0.9258
  131CHL1    C915917   7.095   5.354  13.668  0.4968 -0.6923 -0.4377
  131CHL1    H915918   7.196   5.396  13.651 -0.2934  0.6094 -2.3056
  131CHL1   C1015919   7.056   5.295  13.524 -0.3645 -0.5724 -0.0869
  131CHL1   C1915920   6.910   5.255  13.528 -0.3900  0.3727  0.4672
  131CHL1  H19A15921   6.896   5.225  13.423 -0.4928 -1.9320  1.0980
  131CHL1  H19B15922   6.881   5.167  13.589 -0.8711 -1.6149 -2.4788
  131CHL1  H19C15923   6.838   5.339  13.544 -3.1835 -1.6623 -0.7195
  131CHL1    C115924   7.076   5.407  13.419 -0.1579 -0.3683 -0.1296
  131CHL1   H1A15925   7.000   5.487  13.431 -0.7370 -0.9240 -0.0801
  131CHL1   H1B15926   7.177   5.449  13.438  0.3699 -0.3309 -2.6905
  131CHL1    C215927   7.077   5.356  13.270 -0.2515 -0.0530  0.2247
  131CHL1   H2A15928   7.098   5.443  13.204 -2.4143 -0.7924 -1.5345
  131CHL1   H2B15929   6.976   5.322  13.239  0.0260 -0.1855 -0.5515
  131CHL1   C2015930   7.043   5.526  14.196 -0.3304 -0.4116  0.8895
  131CHL1   H2015931   6.978   5.594  14.136 -0.1935 -1.0256  0.0279
  131CHL1   C2115932   7.148   5.609  14.270 -0.3548  0.0422  0.1632
  131CHL1  H21A15933   7.088   5.674  14.338 -0.9165 -0.1822 -0.1186
  131CHL1  H21B15934   7.207   5.672  14.200  0.4510 -0.4991  0.3402
  131CHL1  H21C15935   7.230   5.549  14.316 -0.6057 -0.1027  0.4247
  131CHL1   C2215936   6.963   5.444  14.298  0.7470  0.5614 -0.4488
  131CHL1  H22A15937   6.911   5.360  14.248  0.8429 -1.3151  2.4096
  131CHL1  H22B15938   7.030   5.408  14.378  0.3803 -0.0968 -0.4333
  131CHL1   C2315939   6.858   5.534  14.364 -0.0642  0.2179  0.2580
  131CHL1  H23A15940   6.891   5.640  14.371 -0.5907  0.3465  1.0200
  131CHL1  H23B15941   6.764   5.541  14.304 -0.1090  1.1754  0.4180
  131CHL1   C2415942   6.817   5.490  14.507  0.0873 -0.1344 -0.5171
  131CHL1  H24A15943   6.775   5.388  14.505  0.9604 -0.5402  1.0389
  131CHL1  H24B15944   6.907   5.490  14.572  0.0273 -1.3370 -0.4117
  131CHL1   C2515945   6.712   5.583  14.568 -0.4151 -0.4833  0.0132
  131CHL1   H2515946   6.736   5.686  14.534 -0.4573 -0.2099  0.7829
  131CHL1   C2615947   6.575   5.567  14.506 -0.1880 -0.2898  0.3783
  131CHL1  H26A15948   6.500   5.639  14.545  0.0265  0.5983 -0.7857
  131CHL1  H26B15949   6.577   5.571  14.395  0.2672  1.9220  0.4278
  131CHL1  H26C15950   6.533   5.466  14.523 -0.4854  0.1053  2.2659
  131CHL1   C2715951   6.716   5.575  14.721  0.0105 -0.1335  0.0554
  131CHL1  H27A15952   6.662   5.664  14.759 -0.5943 -0.6666  0.4777
  131CHL1  H27B15953   6.666   5.481  14.755  0.0302 -1.1992 -2.6238
  131CHL1  H27C15954   6.818   5.562  14.761  0.5121  0.8955 -0.8622
  132CHL1    C315955   2.406   0.072  13.157  0.0301  0.2391 -0.2720
  132CHL1    H315956   2.498   0.015  13.136  2.4101  2.9350  2.0172
  132CHL1    O315957   2.346   0.111  13.033 -0.2510  0.1961  0.0087
  132CHL1   H3'15958   2.309   0.031  12.995 -1.7108  1.8573 -2.2874
  132CHL1    C415959   2.307  -0.011  13.245 -0.4405 -0.4907  0.0355
  132CHL1   H4A15960   2.214   0.050  13.236  1.1337  1.7036 -3.0236
  132CHL1   H4B15961   2.288  -0.109  13.197 -0.0989 -0.5973  0.1187
  132CHL1    C515962   2.345  -0.040  13.389 -0.0771 -0.8656 -0.0771
  132CHL1    C615963   2.351  -0.164  13.438  0.4127  0.9979  0.4515
  132CHL1    H615964   2.322  -0.250  13.375  0.7199  1.6759 -0.6562
  132CHL1    C715965   2.380  -0.203  13.576 -0.4795 -0.5870 -0.0669
  132CHL1   H7A15966   2.303  -0.277  13.607 -1.0975 -0.8164 -2.0061
  132CHL1   H7B15967   2.474  -0.260  13.587 -0.6687 -0.6103  1.7031
  132CHL1    C815968   2.402  -0.077  13.665 -0.2308 -0.6649 -0.1151
  132CHL1    H815969   2.301  -0.054  13.704 -0.7787  0.4353 -2.0570
  132CHL1   C1415970   2.481  -0.106  13.795 -0.0648 -0.0368  0.1753
  132CHL1   H1415971   2.584  -0.135  13.763 -0.3839 -1.7944  0.6401
  132CHL1   C1515972   2.435  -0.232  13.874  0.1126 -0.5003 -0.2025
  132CHL1  H15A15973   2.325  -0.222  13.872 -0.0330 -1.4471 -3.2553
  132CHL1  H15B15974   2.460  -0.336  13.844 -1.1943 -1.1876  1.0072
  132CHL1   C1615975   2.491  -0.206  14.012 -0.5713 -0.0450 -0.4167
  132CHL1  H16A15976   2.404  -0.198  14.080 -1.1899  1.7001 -1.3406
  132CHL1  H16B15977   2.555  -0.287  14.052 -0.4002  0.7229  0.9210
  132CHL1   C1715978   2.562  -0.067  14.009  0.4376  0.2867  0.8863
  132CHL1   H1715979   2.669  -0.081  13.985  0.5658 -0.4844  1.8249
  132CHL1   C1315980   2.501   0.014  13.895  0.2413 -0.2667 -0.9166
  132CHL1   C1815981   2.356   0.064  13.930  0.2880  0.1682 -0.2002
  132CHL1  H18A15982   2.358   0.152  13.998 -2.0010  1.4361 -1.6507
  132CHL1  H18B15983   2.301   0.092  13.837 -0.0918  1.9427  0.5228
  132CHL1  H18C15984   2.300  -0.017  13.981  0.2947  1.0030  1.1849
  132CHL1   C1215985   2.583   0.112  13.815 -0.2948 -0.3074 -0.0065
  132CHL1  H12A15986   2.606   0.207  13.868 -0.0912  0.2026 -0.9893
  132CHL1  H12B15987   2.679   0.058  13.800  0.7057  1.6403 -0.9767
  132CHL1   C1115988   2.512   0.157  13.688  0.0568  0.0574 -0.2834
  132CHL1  H11A15989   2.424   0.223  13.707  0.4919  0.1629  1.4951
  132CHL1  H11B15990   2.584   0.215  13.626  0.8249 -0.3739  0.1929
  132CHL1    C915991   2.476   0.038  13.593  0.4620 -0.4970  0.1940
  132CHL1    H915992   2.573  -0.007  13.563  0.0899 -0.3817 -1.2571
  132CHL1   C1015993   2.401   0.081  13.463  0.1326 -0.1291 -0.0076
  132CHL1   C1915994   2.274   0.158  13.501  0.0208  0.1693 -0.0244
  132CHL1  H19A15995   2.206   0.171  13.414 -0.3123 -2.6930 -0.2847
  132CHL1  H19B15996   2.211   0.106  13.577  1.2259  2.0538  2.4091
  132CHL1  H19C15997   2.304   0.256  13.543 -1.7629  0.4156  0.8034
  132CHL1    C115998   2.499   0.164  13.382 -0.3946 -0.1022  0.1123
  132CHL1   H1A15999   2.522   0.259  13.436 -1.2955  0.8558 -1.1195
  132CHL1   H1B16000   2.596   0.112  13.373 -1.0385 -1.4894  0.9127
  132CHL1    C216001   2.443   0.199  13.240 -0.4216  0.1316  0.6732
  132CHL1   H2A16002   2.521   0.254  13.183  1.6179 -1.9973  1.2777
  132CHL1   H2B16003   2.360   0.272  13.254 -1.8860 -0.9557 -1.8081
  132CHL1   C2016004   2.572  -0.006  14.151 -0.8933 -0.6593 -0.0420
  132CHL1   H2016005   2.466   0.014  14.179 -0.6725  0.0292  0.3343
  132CHL1   C2116006   2.645   0.135  14.141 -0.0880  0.3158 -0.2726
  132CHL1  H21A16007   2.586   0.204  14.078  0.9842  2.1259  0.6326
  132CHL1  H21B16008   2.744   0.121  14.092 -1.0622  0.1302 -2.2999
  132CHL1  H21C16009   2.645   0.180  14.242 -0.1693  2.6257 -1.2514
  132CHL1   C2216010   2.642  -0.095  14.257  0.9426 -0.0004 -0.3235
  132CHL1  H22A16011   2.593  -0.195  14.261  0.8711  0.0679  0.8865
  132CHL1  H22B16012   2.746  -0.122  14.230  1.4541 -0.2927  1.7221
  132CHL1   C2316013   2.641  -0.048  14.405  0.1399  0.0509  0.0082
  132CHL1  H23A16014   2.696  -0.129  14.457 -0.5434  0.1615  0.9343
  132CHL1  H23B16015   2.703   0.045  14.410  0.1048  0.0220  1.2255
  132CHL1   C2416016   2.501  -0.038  14.467  0.6321 -0.7001 -0.0511
  132CHL1  H24A16017   2.436   0.040  14.422  0.9410 -1.3484 -1.6819
  132CHL1  H24B16018   2.447  -0.134  14.453 -0.3820 -0.1071 -0.2971
  132CHL1   C2516019   2.498  -0.011  14.626  0.2815  0.2277  0.7590
  132CHL1   H2516020   2.393   0.005  14.659  0.4134  3.4285 -0.0463
  132CHL1   C2616021   2.544  -0.140  14.696 -0.0597  0.5381 -0.2554
  132CHL1  H26A16022   2.652  -0.147  14.673  0.1041  3.0396 -0.5277
  132CHL1  H26B16023   2.532  -0.147  14.806 -1.2805 -2.2425 -0.4582
  132CHL1  H26C16024   2.483  -0.223  14.653  1.8480 -2.0184  1.6694
  132CHL1   C2716025   2.587   0.109  14.661  0.0962  0.1974 -0.2009
  132CHL1  H27A16026   2.592   0.128  14.770  0.2665 -0.9414 -0.0022
  132CHL1  H27B16027   2.690   0.105  14.618  0.7316 -2.2404  1.3374
  132CHL1  H27C16028   2.549   0.202  14.613 -1.1997 -0.4649 -0.4838
  133CHL1    C316029   0.242   1.464  13.232 -0.2571  0.7164  0.6236
  133CHL1    H316030   0.322   1.503  13.298 -0.0969  1.1742  0.1669
  133CHL1    O316031   0.310   1.414  13.117 -0.4403 -0.1515 -0.0220
  133CHL1   H3'16032   0.364   1.488  13.089 -1.5222  1.6525  2.2787
  133CHL1    C416033   0.173   1.350  13.313  0.2107 -0.4586 -0.3377
  133CHL1   H4A16034   0.102   1.294  13.248  0.5211  0.0335 -1.1168
  133CHL1   H4B16035   0.244   1.274  13.352 -1.9485 -1.2914  2.3021
  133CHL1    C516036   0.096   1.425  13.423  0.1797 -0.2124 -0.1233
  133CHL1    C616037   0.115   1.388  13.553 -0.5505 -0.0644  0.0208
  133CHL1    H616038   0.202   1.325  13.577  0.8707  1.9161  0.3188
  133CHL1    C716039   0.024   1.430  13.673 -0.6583 -0.4516  0.0807
  133CHL1   H7A16040  -0.001   1.345  13.741 -2.4062  0.1718  0.2626
  133CHL1   H7B16041   0.091   1.503  13.724  0.5360 -1.0385 -0.5971
  133CHL1    C816042  -0.105   1.509  13.634 -0.2366 -0.1403  1.0274
  133CHL1    H816043  -0.176   1.435  13.593  1.6068  0.3601 -3.5988
  133CHL1   C1416044  -0.166   1.587  13.752 -0.6475  0.1006  0.5634
  133CHL1   H1416045  -0.082   1.654  13.781  0.1863 -2.1650  3.9013
  133CHL1   C1516046  -0.204   1.509  13.878 -1.4191 -0.5523 -0.2040
  133CHL1  H15A16047  -0.261   1.419  13.845 -1.9567 -1.2012  2.3226
  133CHL1  H15B16048  -0.115   1.474  13.934 -1.3344  3.2067  2.3361
  133CHL1   C1616049  -0.292   1.608  13.955  0.6832 -0.3183  0.5658
  133CHL1  H16A16050  -0.388   1.560  13.982 -0.8159  2.2106 -0.0143
  133CHL1  H16B16051  -0.241   1.646  14.046 -2.1028  0.3129  1.9684
  133CHL1   C1716052  -0.314   1.738  13.858  0.0427  0.6411  0.7851
  133CHL1   H1716053  -0.238   1.817  13.874  2.4330 -1.7951  2.3632
  133CHL1   C1316054  -0.285   1.672  13.717  0.0826  1.3764  0.0471
  133CHL1   C1816055  -0.403   1.582  13.683  0.6803 -0.0501 -0.4013
  133CHL1  H18A16056  -0.480   1.652  13.645  0.5464 -0.2687 -0.5359
  133CHL1  H18B16057  -0.376   1.508  13.605  0.9243 -0.4057  0.0122
  133CHL1  H18C16058  -0.442   1.530  13.773  0.5697 -0.8556 -0.9076
  133CHL1   C1216059  -0.245   1.770  13.603 -0.5736 -0.0132  0.0816
  133CHL1  H12A16060  -0.332   1.836  13.582  1.0961  1.6781 -1.9171
  133CHL1  H12B16061  -0.169   1.838  13.648  0.5542 -1.1115 -0.1116
  133CHL1   C1116062  -0.188   1.696  13.473  0.0515 -0.0225 -0.5608
  133CHL1  H11A16063  -0.277   1.644  13.433  0.0080  0.0580 -0.5686
  133CHL1  H11B16064  -0.163   1.772  13.396  0.3598 -2.0107 -2.5270
  133CHL1    C916065  -0.073   1.600  13.508  0.4622  0.2372 -0.1109
  133CHL1    H916066   0.014   1.658  13.548  2.0371 -2.4902  0.6495
  133CHL1   C1016067  -0.013   1.521  13.387 -0.5337  0.4128 -0.1183
  133CHL1   C1916068  -0.124   1.444  13.314 -0.5261  0.8605  0.9111
  133CHL1  H19A16069  -0.085   1.387  13.227 -0.3481 -0.2884  1.7281
  133CHL1  H19B16070  -0.164   1.369  13.385 -1.8327  1.4125  0.7918
  133CHL1  H19C16071  -0.208   1.510  13.279  0.3976  0.7299 -1.8124
  133CHL1    C116072   0.058   1.624  13.296 -0.2311 -0.6130 -0.5938
  133CHL1   H1A16073  -0.014   1.691  13.245  0.5084  0.3015 -0.4689
  133CHL1   H1B16074   0.115   1.687  13.367 -1.4438 -0.3499  0.1695
  133CHL1    C216075   0.153   1.576  13.183 -0.1693 -0.2914 -0.2461
  133CHL1   H2A16076   0.206   1.665  13.144 -0.7629  0.7661  1.2748
  133CHL1   H2B16077   0.081   1.528  13.112  0.1186 -0.7019 -0.2624
  133CHL1   C2016078  -0.454   1.793  13.892  0.4693  0.3100  0.0097
  133CHL1   H2016079  -0.532   1.715  13.884  1.5034 -0.9948  1.9376
  133CHL1   C2116080  -0.477   1.908  13.796  0.1151 -0.0701 -0.8329
  133CHL1  H21A16081  -0.513   1.871  13.698 -1.0148 -0.1544 -0.3965
  133CHL1  H21B16082  -0.386   1.972  13.802  0.3472 -0.5063  1.2678
  133CHL1  H21C16083  -0.565   1.966  13.831  1.4838  1.7251 -0.1815
  133CHL1   C2216084  -0.470   1.832  14.037 -0.1826  0.2683 -0.8014
  133CHL1  H22A16085  -0.454   1.750  14.110 -0.3488  0.7791 -0.1836
  133CHL1  H22B16086  -0.392   1.905  14.069 -2.3446  0.7974  4.3412
  133CHL1   C2316087  -0.607   1.882  14.077 -0.2369 -0.2481 -0.3306
  133CHL1  H23A16088  -0.644   1.968  14.017  1.5515 -0.0642 -1.2529
  133CHL1  H23B16089  -0.683   1.803  14.063  0.3066 -1.3065  2.1965
  133CHL1   C2416090  -0.624   1.915  14.228 -0.2615 -0.4703  0.3376
  133CHL1  H24A16091  -0.568   1.838  14.285 -2.0758 -2.6096 -0.5821
  133CHL1  H24B16092  -0.576   2.012  14.250 -0.0003 -0.2280 -1.1929
  133CHL1   C2516093  -0.772   1.910  14.275 -0.2057  1.1514 -1.0151
  133CHL1   H2516094  -0.810   1.810  14.245  0.3955  0.1210  1.3751
  133CHL1   C2616095  -0.778   1.915  14.431 -0.1926  0.4571  0.7691
  133CHL1  H26A16096  -0.886   1.918  14.457 -0.8848 -2.0862 -1.3771
  133CHL1  H26B16097  -0.751   1.816  14.474  2.1365  0.5371 -0.3624
  133CHL1  H26C16098  -0.714   1.997  14.470  1.2879  0.4374 -1.4044
  133CHL1   C2716099  -0.854   2.028  14.216  0.2495  0.1044  0.2340
  133CHL1  H27A16100  -0.833   2.036  14.107 -0.5858 -4.0389 -0.4115
  133CHL1  H27B16101  -0.962   2.019  14.240 -0.7170  1.9125 -2.9441
  133CHL1  H27C16102  -0.826   2.114  14.280 -0.4836  0.8301 -0.3946
  134CHL1    C316103   5.552   1.456  13.247 -0.6014  0.2528  0.2002
  134CHL1    H316104   5.617   1.544  13.267 -0.8573  0.5949 -0.4455
  134CHL1    O316105   5.565   1.411  13.108  0.2585  0.6898  0.4903
  134CHL1   H3'16106   5.512   1.331  13.104 -0.5842  1.2553 -0.0937
  134CHL1    C416107   5.586   1.337  13.338  0.0777 -0.1244  0.4106
  134CHL1   H4A16108   5.511   1.259  13.315 -0.2406  0.2461  0.1829
  134CHL1   H4B16109   5.679   1.282  13.310 -1.2676 -0.8627 -3.0854
  134CHL1    C516110   5.579   1.371  13.488 -0.3585 -0.5730  0.5215
  134CHL1    C616111   5.690   1.341  13.559  0.0170 -0.6326  0.1171
  134CHL1    H616112   5.777   1.299  13.508  0.8231  0.7602  0.2997
  134CHL1    C716113   5.696   1.370  13.705 -0.8175  0.2685 -0.0132
  134CHL1   H7A16114   5.739   1.281  13.756  1.8796  0.8836 -1.0435
  134CHL1   H7B16115   5.762   1.457  13.725  0.0725 -0.6490  1.2068
  134CHL1    C816116   5.554   1.397  13.760 -0.5637 -0.2363 -0.5135
  134CHL1    H816117   5.490   1.307  13.767  0.1886 -0.6793  0.9475
  134CHL1   C1416118   5.576   1.462  13.895 -0.5436 -0.1570 -0.2271
  134CHL1   H1416119   5.637   1.553  13.880 -0.3865 -0.3849 -1.0234
  134CHL1   C1516120   5.678   1.392  13.990 -0.5797  0.4923  1.2292
  134CHL1  H15A16121   5.662   1.282  13.988 -0.0217  0.3768  2.4086
  134CHL1  H15B16122   5.785   1.404  13.962 -1.0522 -0.2099 -1.1057
  134CHL1   C1616123   5.652   1.459  14.128  0.7509 -0.1527 -0.4094
  134CHL1  H16A16124   5.623   1.384  14.205  0.2107  0.2451 -0.2161
  134CHL1  H16B16125   5.735   1.521  14.168 -0.9006  2.1041 -0.2980
  134CHL1   C1716126   5.527   1.552  14.105  0.2972 -0.0966  0.4025
  134CHL1   H1716127   5.572   1.651  14.084 -1.2587  0.2882 -1.2636
  134CHL1   C1316128   5.459   1.501  13.976 -0.4843  0.3142  0.0128
  134CHL1   C1816129   5.374   1.372  14.004 -0.1543 -0.2667 -0.1980
  134CHL1  H18A16130   5.350   1.303  13.920 -1.1546  2.9262 -2.7337
  134CHL1  H18B16131   5.436   1.314  14.075  2.2617  0.3722 -1.6936
  134CHL1  H18C16132   5.278   1.386  14.059  0.8368  0.2815  1.4541
  134CHL1   C1216133   5.375   1.602  13.895  0.7976  0.0851  0.1158
  134CHL1  H12A16134   5.274   1.623  13.938 -0.9284 -0.1069 -3.4567
  134CHL1  H12B16135   5.424   1.701  13.892  0.5563  0.2105  0.2061
  134CHL1   C1116136   5.355   1.557  13.749  0.9456  0.2520 -0.6267
  134CHL1  H11A16137   5.272   1.483  13.761  0.8258  0.3369 -0.9048
  134CHL1  H11B16138   5.307   1.634  13.685  2.1883  0.3454 -1.4740
  134CHL1    C916139   5.479   1.496  13.667 -0.4955 -0.5640  0.0923
  134CHL1    H916140   5.551   1.578  13.651 -0.3563 -0.9670 -1.4582
  134CHL1   C1016141   5.450   1.434  13.531 -0.4857 -0.6394 -0.3160
  134CHL1   C1916142   5.336   1.326  13.548 -0.5589 -0.4854 -0.8562
  134CHL1  H19A16143   5.247   1.388  13.574  1.8063  2.3530  1.0880
  134CHL1  H19B16144   5.315   1.267  13.456 -1.9783  1.0023 -1.5486
  134CHL1  H19C16145   5.355   1.260  13.635 -0.4931  0.0706 -0.4379
  134CHL1    C116146   5.405   1.541  13.428  0.0024  0.1484  0.5256
  134CHL1   H1A16147   5.299   1.571  13.442  0.1669 -0.1203  2.7042
  134CHL1   H1B16148   5.470   1.628  13.453 -0.4344  0.5026  0.4413
  134CHL1    C216149   5.412   1.503  13.281  0.4596 -0.0231  0.0307
  134CHL1   H2A16150   5.395   1.587  13.210  0.6097 -0.1547 -0.1603
  134CHL1   H2B16151   5.338   1.424  13.256  1.8618 -1.7659  1.1651
  134CHL1   C2016152   5.442   1.574  14.235  0.7048  0.0360 -0.6636
  134CHL1   H2016153   5.390   1.478  14.252 -0.0625  0.3196 -1.3680
  134CHL1   C2116154   5.328   1.683  14.213  0.0111  0.1703 -0.6049
  134CHL1  H21A16155   5.374   1.779  14.180  0.9224  0.4158  1.2803
  134CHL1  H21B16156   5.278   1.709  14.308 -0.1127 -1.0521 -0.3240
  134CHL1  H21C16157   5.266   1.647  14.128 -0.5170  0.2709 -0.2628
  134CHL1   C2216158   5.516   1.598  14.369 -0.1456 -0.3491 -0.8669
  134CHL1  H22A16159   5.449   1.584  14.457  2.0519  2.9127  1.5578
  134CHL1  H22B16160   5.614   1.551  14.392  2.4538  5.1205  1.1170
  134CHL1   C2316161   5.561   1.748  14.385  0.5918  0.6179 -0.7000
  134CHL1  H23A16162   5.623   1.771  14.295  1.3739  1.3960  0.0175
  134CHL1  H23B16163   5.470   1.811  14.383 -0.1923 -0.3338  1.5847
  134CHL1   C2416164   5.651   1.773  14.510  0.0499 -0.4988  0.1845
  134CHL1  H24A16165   5.627   1.695  14.585  1.8311  1.7287  3.2579
  134CHL1  H24B16166   5.758   1.748  14.493  0.1552  0.2334 -0.2745
  134CHL1   C2516167   5.626   1.918  14.570 -0.0760  0.3565  0.6001
  134CHL1   H2516168   5.534   1.960  14.525  0.8514 -0.4112 -2.2856
  134CHL1   C2616169   5.615   1.914  14.726 -0.1490 -1.7629 -0.1738
  134CHL1  H26A16170   5.591   2.013  14.772 -0.1101 -2.5470  1.6189
  134CHL1  H26B16171   5.530   1.848  14.753 -1.6159  0.1465  0.0973
  134CHL1  H26C16172   5.707   1.879  14.776  1.2753  0.3552 -1.1681
  134CHL1   C2716173   5.745   2.001  14.532 -0.3464 -0.8991  0.1162
  134CHL1  H27A16174   5.732   2.108  14.558  2.4458 -0.8069  1.6241
  134CHL1  H27B16175   5.841   1.970  14.579  1.3538  4.4971  0.8819
  134CHL1  H27C16176   5.773   2.004  14.424 -1.6788  0.0834 -0.2197
  135CHL1    C316177   5.628   1.987  13.238 -0.1424  0.1003  0.0612
  135CHL1    H316178   5.699   2.056  13.288  1.2025  0.5795 -2.3707
  135CHL1    O316179   5.663   1.969  13.102  0.0388 -0.3289 -0.5912
  135CHL1   H3'16180   5.632   1.880  13.084 -0.9090 -0.2131  0.3487
  135CHL1    C416181   5.624   1.860  13.325 -0.1239 -0.0019  0.0744
  135CHL1   H4A16182   5.560   1.784  13.275 -0.4018  0.2425  0.0561
  135CHL1   H4B16183   5.726   1.817  13.313  0.7310  1.6690  1.0555
  135CHL1    C516184   5.584   1.886  13.468  0.5201 -0.0475  0.2828
  135CHL1    C616185   5.669   1.849  13.571  0.0499  0.0312 -0.3404
  135CHL1    H616186   5.766   1.801  13.551  0.7928  0.8372  1.2117
  135CHL1    C716187   5.648   1.884  13.719  0.0807  0.2682  0.4450
  135CHL1   H7A16188   5.669   1.801  13.790 -1.1110  0.4814  1.0696
  135CHL1   H7B16189   5.729   1.958  13.740  1.1475 -1.0404  1.0905
  135CHL1    C816190   5.504   1.935  13.742  0.2098 -0.1885  0.0992
  135CHL1    H816191   5.435   1.849  13.754  1.7397 -1.3375  0.9663
  135CHL1   C1416192   5.507   2.019  13.871 -0.3488  0.5411 -0.0150
  135CHL1   H1416193   5.571   2.106  13.846 -0.1679 -0.6306 -4.4141
  135CHL1   C1516194   5.567   1.959  13.994  0.2402 -0.4033  0.1152
  135CHL1  H15A16195   5.526   1.863  14.030  1.8849 -0.7154  1.2498
  135CHL1  H15B16196   5.677   1.943  13.993  0.3140  0.0895 -0.7105
  135CHL1   C1616197   5.529   2.049  14.109  0.5443  0.7594  0.2162
  135CHL1  H16A16198   5.502   1.984  14.195 -3.0135  0.6217 -0.8301
  135CHL1  H16B16199   5.611   2.114  14.146  0.0138  0.9342  1.1353
  135CHL1   C1716200   5.415   2.139  14.060 -0.2540  0.1569 -0.2453
  135CHL1   H1716201   5.475   2.231  14.044  1.2240 -0.9651 -1.4768
  135CHL1   C1316202   5.374   2.075  13.919  0.0241 -0.2900 -0.1941
  135CHL1   C1816203   5.273   1.958  13.951  0.4215 -0.3339 -0.4536
  135CHL1  H18A16204   5.249   1.909  13.854 -0.2410  0.2268 -0.5826
  135CHL1  H18B16205   5.320   1.880  14.015 -0.4957 -0.5951 -0.0948
  135CHL1  H18C16206   5.185   2.006  13.999  1.3269  0.4908  0.4485
  135CHL1   C1216207   5.321   2.173  13.808  0.0714  0.5156  0.3742
  135CHL1  H12A16208   5.216   2.200  13.833 -0.8674 -2.0021 -0.4880
  135CHL1  H12B16209   5.390   2.260  13.808 -0.5979  1.1424 -2.5047
  135CHL1   C1116210   5.319   2.103  13.671 -0.4494  0.1536 -1.0749
  135CHL1  H11A16211   5.234   2.031  13.673 -0.9353  0.6989  1.2313
  135CHL1  H11B16212   5.294   2.175  13.590  0.7133 -0.2581 -1.8183
  135CHL1    C916213   5.456   2.025  13.630  0.7610  0.0527  0.1510
  135CHL1    H916214   5.531   2.107  13.632  0.0183  0.7425  0.3155
  135CHL1   C1016215   5.461   1.970  13.483  0.1531  0.0953 -0.5272
  135CHL1   C1916216   5.339   1.883  13.451 -0.1639  0.3571  0.1944
  135CHL1  H19A16217   5.332   1.807  13.532 -1.5400 -0.5142 -0.7023
  135CHL1  H19B16218   5.250   1.949  13.459 -0.8093 -0.4374 -0.2940
  135CHL1  H19C16219   5.339   1.831  13.353 -0.2671 -0.2768  0.5242
  135CHL1    C116220   5.462   2.093  13.387  0.6690 -0.6780  0.1902
  135CHL1   H1A16221   5.367   2.150  13.397 -0.0319 -1.7851 -0.0216
  135CHL1   H1B16222   5.539   2.165  13.422  0.1309  0.1341 -0.2487
  135CHL1    C216223   5.485   2.059  13.245 -0.4630 -0.3226  0.6620
  135CHL1   H2A16224   5.487   2.153  13.187 -0.0932 -0.4121  0.5292
  135CHL1   H2B16225   5.399   2.000  13.207  0.0664  0.0330 -1.1559
  135CHL1   C2016226   5.317   2.181  14.170  0.1280  0.0605  0.4603
  135CHL1   H2016227   5.273   2.093  14.220  1.9850 -2.7760 -2.4999
  135CHL1   C2116228   5.199   2.263  14.117 -0.5587 -0.5531 -0.1144
  135CHL1  H21A16229   5.122   2.200  14.068 -0.1722 -1.1543  0.0450
  135CHL1  H21B16230   5.233   2.346  14.050 -1.9359  0.6455  0.6061
  135CHL1  H21C16231   5.148   2.305  14.206  2.4484 -0.7537  1.8671
  135CHL1   C2216232   5.400   2.265  14.273  0.1734 -0.2658 -0.5275
  135CHL1  H22A16233   5.504   2.229  14.285  0.2326 -0.3122 -1.1391
  135CHL1  H22B16234   5.398   2.371  14.241  2.0251  0.0212  0.1699
  135CHL1   C2316235   5.334   2.270  14.410  0.3652  0.0226 -0.3399
  135CHL1  H23A16236   5.247   2.338  14.401  0.2750  0.0846  0.7951
  135CHL1  H23B16237   5.297   2.172  14.449  1.1778 -1.5753 -3.2906
  135CHL1   C2416238   5.425   2.332  14.516  0.7208 -0.5237 -0.9408
  135CHL1  H24A16239   5.509   2.260  14.523  2.1376  1.2212  2.2192
  135CHL1  H24B16240   5.462   2.434  14.490 -0.2983  0.1332  0.0541
  135CHL1   C2516241   5.358   2.359  14.653  0.3143 -0.2770 -0.3584
  135CHL1   H2516242   5.296   2.269  14.674  0.7330 -1.1233 -2.5534
  135CHL1   C2616243   5.461   2.364  14.769 -0.4409  0.2992  0.6673
  135CHL1  H26A16244   5.504   2.467  14.766 -0.7100  0.4154  0.7785
  135CHL1  H26B16245   5.423   2.339  14.870 -0.1795  0.3082  0.7684
  135CHL1  H26C16246   5.545   2.295  14.747 -0.0193  1.2539 -0.8535
  135CHL1   C2716247   5.282   2.493  14.651  0.8980  0.1029 -0.4801
  135CHL1  H27A16248   5.254   2.528  14.753  1.4157  1.2896 -0.7348
  135CHL1  H27B16249   5.354   2.569  14.615  1.9480 -1.4349 -1.7736
  135CHL1  H27C16250   5.188   2.488  14.592 -0.8269  2.0938  1.8747
  136CHL1    C316251   4.438   1.397  13.216  0.0689  0.4768 -0.3699
  136CHL1    H316252   4.429   1.507  13.227  0.8421  0.6868 -1.6496
  136CHL1    O316253   4.451   1.357  13.080 -0.8134  0.4555 -0.2631
  136CHL1   H3'16254   4.427   1.265  13.084  2.1409 -0.5391 -1.8480
  136CHL1    C416255   4.557   1.356  13.309  0.1202  1.0446 -0.0585
  136CHL1   H4A16256   4.563   1.245  13.298 -0.7132  0.8271  1.4169
  136CHL1   H4B16257   4.652   1.384  13.259  0.2926 -2.6932 -2.2392
  136CHL1    C516258   4.540   1.394  13.450 -0.1260  0.1875 -0.0569
  136CHL1    C616259   4.643   1.457  13.514 -0.2536 -0.7697 -0.7013
  136CHL1    H616260   4.736   1.479  13.460 -0.0726 -0.6368 -0.3337
  136CHL1    C716261   4.638   1.491  13.660 -0.1153  0.1634 -0.4464
  136CHL1   H7A16262   4.723   1.447  13.716  0.3437  2.2318  0.5679
  136CHL1   H7B16263   4.644   1.601  13.671  0.5407  0.2911 -1.8063
  136CHL1    C816264   4.514   1.431  13.739 -0.4499  0.1385  0.2194
  136CHL1    H816265   4.530   1.327  13.776 -1.2714  0.1019  0.4835
  136CHL1   C1416266   4.485   1.519  13.863 -0.6123 -0.2646  0.4684
  136CHL1   H1416267   4.464   1.619  13.818 -0.6736 -0.5545 -0.1565
  136CHL1   C1516268   4.594   1.545  13.964  0.1623 -0.4383 -0.1555
  136CHL1  H15A16269   4.649   1.453  13.994  1.2161  0.2805  0.1839
  136CHL1  H15B16270   4.673   1.614  13.926  0.1073  0.8487  1.8676
  136CHL1   C1616271   4.526   1.606  14.098  0.2679  0.6678 -0.2382
  136CHL1  H16A16272   4.565   1.567  14.195  1.2308  2.7412  0.2634
  136CHL1  H16B16273   4.534   1.717  14.099 -0.1585  0.7577  2.5962
  136CHL1   C1716274   4.378   1.571  14.073  1.3581 -0.0965  0.4773
  136CHL1   H1716275   4.332   1.659  14.024 -0.5634 -1.0839  0.3822
  136CHL1   C1316276   4.373   1.473  13.956 -0.2284  0.2948 -0.0662
  136CHL1   C1816277   4.403   1.329  14.019 -0.9502  0.3441 -0.8209
  136CHL1  H18A16278   4.438   1.243  13.958  2.0782  1.0101 -0.2145
  136CHL1  H18B16279   4.478   1.342  14.100 -0.9416 -2.6652 -0.2230
  136CHL1  H18C16280   4.313   1.296  14.074 -0.5410  0.7632  0.1306
  136CHL1   C1216281   4.248   1.455  13.869 -0.2725  0.3390  0.1231
  136CHL1  H12A16282   4.171   1.395  13.923 -0.3538 -0.2953 -0.6700
  136CHL1  H12B16283   4.217   1.557  13.841  0.4605  0.8526  1.1260
  136CHL1   C1116284   4.275   1.381  13.735  0.4025  0.6261  0.1776
  136CHL1  H11A16285   4.292   1.275  13.766 -1.7602  0.0549 -0.4129
  136CHL1  H11B16286   4.183   1.377  13.674  2.3075 -1.4458 -2.8047
  136CHL1    C916287   4.393   1.435  13.649 -0.2026  0.1172 -0.2966
  136CHL1    H916288   4.376   1.542  13.624  1.5220  0.5698  0.3280
  136CHL1   C1016289   4.408   1.362  13.519 -0.3461 -0.7962  1.1349
  136CHL1   C1916290   4.404   1.211  13.546  0.2322  0.4107 -0.2732
  136CHL1  H19A16291   4.304   1.180  13.583  1.1802 -2.3866  0.1631
  136CHL1  H19B16292   4.425   1.155  13.453  3.1989 -0.8136  1.0144
  136CHL1  H19C16293   4.476   1.163  13.615  0.3919 -0.4072 -0.9895
  136CHL1    C116294   4.292   1.394  13.421 -0.2933  0.0273  0.3067
  136CHL1   H1A16295   4.204   1.341  13.462  0.5988 -0.4602  1.6490
  136CHL1   H1B16296   4.285   1.505  13.421 -0.5949  0.0109  0.0041
  136CHL1    C216297   4.313   1.340  13.278 -0.8126  0.6865 -0.3027
  136CHL1   H2A16298   4.226   1.354  13.211 -1.0622  0.3078 -0.0665
  136CHL1   H2B16299   4.327   1.230  13.282  1.2118  0.8791 -1.0574
  136CHL1   C2016300   4.293   1.548  14.201 -0.4428  0.6586 -0.2734
  136CHL1   H2016301   4.319   1.448  14.242  0.2564  0.8914 -0.1326
  136CHL1   C2116302   4.143   1.565  14.164 -0.6370  0.3286  0.2758
  136CHL1  H21A16303   4.119   1.495  14.081  2.7376  0.0762 -0.6139
  136CHL1  H21B16304   4.126   1.668  14.126  2.8779  1.0693  0.4213
  136CHL1  H21C16305   4.075   1.541  14.249 -0.7032 -0.2945  0.0525
  136CHL1   C2216306   4.322   1.660  14.304  0.3205 -0.6221  0.4412
  136CHL1  H22A16307   4.421   1.639  14.350  0.9708 -2.4705 -1.6594
  136CHL1  H22B16308   4.327   1.758  14.252 -1.4214 -0.5201  0.4210
  136CHL1   C2316309   4.224   1.673  14.425  0.1372 -0.2282 -0.1300
  136CHL1  H23A16310   4.128   1.718  14.394  0.2680  0.3399  0.2643
  136CHL1  H23B16311   4.205   1.572  14.466  1.5701  0.4002  2.3524
  136CHL1   C2416312   4.283   1.753  14.546 -0.2485  0.0256  0.5354
  136CHL1  H24A16313   4.388   1.723  14.561 -0.1045 -0.4130 -1.1160
  136CHL1  H24B16314   4.285   1.863  14.528  1.4128  0.2509  1.8878
  136CHL1   C2516315   4.202   1.754  14.674  0.4362  0.1798  0.4321
  136CHL1   H2516316   4.103   1.797  14.647 -0.1166 -0.8921  0.7091
  136CHL1   C2616317   4.183   1.610  14.729 -1.1264 -0.2207 -0.1183
  136CHL1  H26A16318   4.107   1.556  14.668  0.1087 -2.7346  0.4285
  136CHL1  H26B16319   4.276   1.549  14.730  0.1804  1.6648 -0.4104
  136CHL1  H26C16320   4.131   1.607  14.827 -2.2047  0.9111 -0.6258
  136CHL1   C2716321   4.258   1.857  14.767  0.4465  0.3003 -0.3035
  136CHL1  H27A16322   4.265   1.955  14.715 -3.8028  0.4764 -0.8657
  136CHL1  H27B16323   4.198   1.867  14.860  0.1669  3.0736 -0.7011
  136CHL1  H27C16324   4.362   1.823  14.789  0.4161  0.2527 -0.2337
  137CHL1    C316325   0.121   0.908  13.246 -0.3733  0.7257  0.3458
  137CHL1    H316326   0.207   0.979  13.239  0.6359 -0.2947  1.7525
  137CHL1    O316327   0.111   0.853  13.115  0.2286 -0.7364 -0.0239
  137CHL1   H3'16328   0.035   0.795  13.119  0.2062 -0.7087 -0.0469
  137CHL1    C416329   0.138   0.786  13.343  0.2390 -0.2376 -0.2801
  137CHL1   H4A16330   0.069   0.702  13.319 -0.3075 -0.1637  0.9515
  137CHL1   H4B16331   0.232   0.735  13.314 -0.9764 -3.1189  0.4708
  137CHL1    C516332   0.135   0.835  13.486  0.8812  0.0797  0.1456
  137CHL1    C616333   0.232   0.801  13.571 -0.1832 -0.1282  0.0098
  137CHL1    H616334   0.309   0.729  13.537  0.5608  0.6966 -0.0818
  137CHL1    C716335   0.235   0.839  13.709 -0.1763  0.0239 -0.1299
  137CHL1   H7A16336   0.256   0.746  13.767  0.2415  1.0743  1.4876
  137CHL1   H7B16337   0.320   0.908  13.730 -0.5913  0.5586 -0.1632
  137CHL1    C816338   0.090   0.888  13.753  0.0225  0.1711 -0.6035
  137CHL1    H816339   0.021   0.801  13.746  1.1352 -0.6426 -2.1565
  137CHL1   C1416340   0.092   0.941  13.895 -0.0144  0.8255  0.8876
  137CHL1   H1416341   0.159   1.029  13.889  0.1147  0.6156 -1.9211
  137CHL1   C1516342   0.149   0.844  14.000  0.0282  0.3818  0.6288
  137CHL1  H15A16343   0.104   0.744  13.980 -0.0972  0.2187  1.6537
  137CHL1  H15B16344   0.257   0.820  13.993 -0.6240 -2.5636 -1.1567
  137CHL1   C1616345   0.091   0.903  14.128 -0.2329  0.4833  0.9070
  137CHL1  H16A16346   0.031   0.826  14.181 -1.3852  0.3443 -0.5540
  137CHL1  H16B16347   0.174   0.943  14.190  0.2723  1.0491 -0.1089
  137CHL1   C1716348  -0.004   1.016  14.093 -0.7643  0.2412  0.6974
  137CHL1   H1716349   0.043   1.117  14.087  2.5598 -1.2205 -0.1083
  137CHL1   C1316350  -0.052   0.982  13.948 -0.1800 -0.2226  0.6371
  137CHL1   C1816351  -0.155   0.862  13.958  0.0169 -0.1023 -0.3795
  137CHL1  H18A16352  -0.255   0.897  13.991  1.1068  0.6201  2.4060
  137CHL1  H18B16353  -0.168   0.825  13.854 -0.3941  2.1409 -1.1912
  137CHL1  H18C16354  -0.109   0.784  14.023  1.2100 -0.8280 -2.0119
  137CHL1   C1216355  -0.094   1.099  13.861  0.6120  0.1541  0.1107
  137CHL1  H12A16356  -0.197   1.135  13.881  0.0746 -1.0512 -0.4302
  137CHL1  H12B16357  -0.023   1.185  13.870  0.5380  0.2038  0.2191
  137CHL1   C1116358  -0.104   1.053  13.716 -0.6606  0.1790 -0.3833
  137CHL1  H11A16359  -0.186   0.979  13.704 -1.4183  1.0632 -0.8391
  137CHL1  H11B16360  -0.131   1.137  13.649 -0.7368  0.3990 -0.0793
  137CHL1    C916361   0.027   0.987  13.660  0.2372  0.2195 -0.1826
  137CHL1    H916362   0.099   1.072  13.658  1.3427 -0.6507  0.9156
  137CHL1   C1016363   0.007   0.924  13.523  0.2609 -0.2320 -0.5923
  137CHL1   C1916364  -0.120   0.829  13.508 -0.3591 -0.3793  0.0787
  137CHL1  H19A16365  -0.123   0.763  13.598  0.2835  0.4828  0.7556
  137CHL1  H19B16366  -0.213   0.888  13.493  0.4578  0.4585 -2.2567
  137CHL1  H19C16367  -0.122   0.763  13.419  3.7877  2.2035 -2.2493
  137CHL1    C116368  -0.015   1.036  13.422 -0.2322 -0.3334  0.0373
  137CHL1   H1A16369  -0.105   1.097  13.445 -1.1980 -1.4078 -0.7322
  137CHL1   H1B16370   0.079   1.094  13.430  0.5194 -1.5534  0.1760
  137CHL1    C216371  -0.008   0.990  13.275  0.0913  0.4451  0.1460
  137CHL1   H2A16372  -0.019   1.084  13.218  0.0468  2.3392  3.0681
  137CHL1   H2B16373  -0.094   0.930  13.239 -0.6461  1.4053  0.2815
  137CHL1   C2016374  -0.106   1.026  14.208  0.2134 -0.5006 -0.3846
  137CHL1   H2016375  -0.148   0.925  14.228 -2.9859  1.1466  2.2350
  137CHL1   C2116376  -0.234   1.123  14.176  0.8122 -0.6074 -0.1347
  137CHL1  H21A16377  -0.286   1.102  14.080  1.6242  3.3795 -1.6393
  137CHL1  H21B16378  -0.186   1.222  14.158  1.6964 -1.2332 -1.3867
  137CHL1  H21C16379  -0.304   1.125  14.261  0.6188 -0.9848 -0.2819
  137CHL1   C2216380  -0.039   1.052  14.340 -0.1810  0.0181 -0.1342
  137CHL1  H22A16381   0.062   1.007  14.355  0.3546  0.4134 -2.1871
  137CHL1  H22B16382  -0.021   1.161  14.343  2.6370 -0.3907  1.3579
  137CHL1   C2316383  -0.121   1.025  14.467  0.3248  0.3675  1.6566
  137CHL1  H23A16384  -0.223   1.070  14.458  0.1456 -0.3183 -0.0700
  137CHL1  H23B16385  -0.137   0.916  14.476  2.5093 -0.1340  0.1146
  137CHL1   C2416386  -0.046   1.076  14.589 -0.0799  0.4305 -0.2005
  137CHL1  H24A16387   0.031   0.999  14.611 -1.6185 -1.2171 -0.2938
  137CHL1  H24B16388  -0.001   1.176  14.573  0.2020  0.4802  0.8282
  137CHL1   C2516389  -0.136   1.085  14.719 -0.2206  0.6790  1.0209
  137CHL1   H2516390  -0.222   1.154  14.706  0.9983  2.3802  1.5790
  137CHL1   C2616391  -0.184   0.940  14.755  0.5931 -0.1954 -0.2149
  137CHL1  H26A16392  -0.100   0.874  14.784  0.0594  0.2619  2.6989
  137CHL1  H26B16393  -0.248   0.940  14.846 -0.9601 -0.0380 -1.2824
  137CHL1  H26C16394  -0.233   0.895  14.666  0.4281 -0.4022 -0.0195
  137CHL1   C2716395  -0.045   1.158  14.820 -0.7279  0.2792 -0.4632
  137CHL1  H27A16396  -0.087   1.144  14.922  1.2815  1.4562  0.6120
  137CHL1  H27B16397   0.060   1.121  14.832  0.2953  2.9957 -0.2485
  137CHL1  H27C16398  -0.033   1.266  14.798  0.2140  0.0561 -1.1422
  138CHL1    C316399   5.825   0.465  13.206 -0.9298 -0.3149  0.6620
  138CHL1    H316400   5.759   0.375  13.213 -1.7272  0.0454 -1.3982
  138CHL1    O316401   5.838   0.498  13.067 -0.1120 -0.1741 -0.8636
  138CHL1   H3'16402   5.906   0.566  13.071 -0.3267  0.0460 -0.9950
  138CHL1    C416403   5.759   0.590  13.282  0.6847  0.0398  0.1979
  138CHL1   H4A16404   5.823   0.679  13.265  0.2924  0.0080 -1.6321
  138CHL1   H4B16405   5.663   0.611  13.232  1.4500  2.0823 -0.5073
  138CHL1    C516406   5.755   0.555  13.431 -0.4142 -0.2951  0.9012
  138CHL1    C616407   5.640   0.543  13.498 -0.6247 -0.1584 -0.2389
  138CHL1    H616408   5.545   0.556  13.443 -1.2196 -0.1815  0.7692
  138CHL1    C716409   5.633   0.509  13.647  0.7941 -0.3841 -0.2163
  138CHL1   H7A16410   5.551   0.569  13.691  0.8350 -0.6938  0.2952
  138CHL1   H7B16411   5.599   0.404  13.663 -0.3606 -0.4275 -2.5320
  138CHL1    C816412   5.767   0.538  13.722 -0.6538  0.0534 -0.0988
  138CHL1    H816413   5.780   0.648  13.727  0.2920 -0.0880  0.9417
  138CHL1   C1416414   5.760   0.499  13.867  0.1071 -0.0487 -0.4491
  138CHL1   H1416415   5.744   0.390  13.876  3.2857 -0.5234  0.5593
  138CHL1   C1516416   5.653   0.564  13.959 -0.6917 -0.0430 -0.7757
  138CHL1  H15A16417   5.655   0.671  13.929 -0.0059  0.0204 -0.5144
  138CHL1  H15B16418   5.550   0.532  13.929 -0.5702  1.6681 -3.2686
  138CHL1   C1616419   5.704   0.536  14.100 -0.0633  0.3026  0.2438
  138CHL1  H16A16420   5.693   0.628  14.161 -0.5532 -1.1090  2.3687
  138CHL1  H16B16421   5.640   0.466  14.158  0.6301 -1.9999 -1.6138
  138CHL1   C1716422   5.851   0.486  14.085 -0.2101 -0.1218  0.4437
  138CHL1   H1716423   5.854   0.376  14.100 -0.4606 -0.1283  0.4514
  138CHL1   C1316424   5.889   0.519  13.939 -0.1819 -0.0322 -0.2321
  138CHL1   C1816425   5.941   0.668  13.926  0.3313 -0.0748  0.1186
  138CHL1  H18A16426   5.867   0.723  13.989 -1.8595 -0.8989 -1.5729
  138CHL1  H18B16427   6.039   0.681  13.976 -0.1392 -3.3042  2.1525
  138CHL1  H18C16428   5.934   0.708  13.822 -2.3165  0.3288  0.3631
  138CHL1   C1216429   5.996   0.432  13.870  0.5781  0.2791  0.2658
  138CHL1  H12A16430   6.101   0.424  13.904  1.1348 -2.0983 -1.6794
  138CHL1  H12B16431   5.963   0.327  13.884  0.6708  0.1569 -0.4032
  138CHL1   C1116432   6.010   0.471  13.722 -0.8592  0.4026 -0.5676
  138CHL1  H11A16433   6.075   0.560  13.718  0.6856 -0.6552 -0.0515
  138CHL1  H11B16434   6.082   0.398  13.679 -0.9348  0.1524 -0.2805
  138CHL1    C916435   5.879   0.474  13.645  0.8001 -0.3065 -0.2069
  138CHL1    H916436   5.844   0.370  13.625 -0.5745  0.6963 -3.8709
  138CHL1   C1016437   5.891   0.532  13.500 -0.3245 -0.8076  0.1381
  138CHL1   C1916438   5.980   0.656  13.498  0.4439  0.1316  0.2359
  138CHL1  H19A16439   5.950   0.727  13.578 -2.2095 -0.0995 -0.4856
  138CHL1  H19B16440   6.089   0.636  13.505  0.9648  2.6472  0.3156
  138CHL1  H19C16441   5.969   0.706  13.399 -1.2919 -1.1953 -0.2714
  138CHL1    C116442   5.956   0.421  13.416 -0.3507  0.8754 -0.2506
  138CHL1   H1A16443   6.058   0.406  13.457 -1.2223  0.1174  1.7827
  138CHL1   H1B16444   5.901   0.325  13.427  2.4655 -0.7120  1.1833
  138CHL1    C216445   5.965   0.447  13.267  0.2339  1.3374  0.4531
  138CHL1   H2A16446   6.015   0.359  13.222 -0.5317  1.0048  0.2411
  138CHL1   H2B16447   6.031   0.536  13.257  1.5595  0.3813  0.4825
  138CHL1   C2016448   5.930   0.539  14.200 -0.4958 -0.0985 -0.4551
  138CHL1   H2016449   5.913   0.648  14.197  0.2527  0.0793  0.9477
  138CHL1   C2116450   6.085   0.502  14.192 -0.1593  0.1588  0.6004
  138CHL1  H21A16451   6.104   0.393  14.187  1.1584  0.4007 -0.2129
  138CHL1  H21B16452   6.135   0.547  14.281 -0.7747  0.1872  0.9403
  138CHL1  H21C16453   6.137   0.551  14.107  0.2055  0.7380  1.1437
  138CHL1   C2216454   5.876   0.499  14.335  0.1700  0.0104 -0.2727
  138CHL1  H22A16455   5.778   0.550  14.346 -0.8562 -1.7974 -0.7138
  138CHL1  H22B16456   5.849   0.392  14.347 -0.9776  0.5714  3.9732
  138CHL1   C2316457   5.938   0.538  14.465 -0.7651  0.5716  0.1788
  138CHL1  H23A16458   6.043   0.505  14.454 -1.4937 -1.1926 -2.1802
  138CHL1  H23B16459   5.939   0.649  14.472 -1.1310  0.6460 -0.7447
  138CHL1   C2416460   5.880   0.487  14.602 -0.0839  0.6906  0.1325
  138CHL1  H24A16461   5.771   0.505  14.613 -0.5569 -2.7892  2.7001
  138CHL1  H24B16462   5.891   0.377  14.596  1.8393  0.7678  1.4164
  138CHL1   C2516463   5.956   0.515  14.730 -0.0537  0.5183  0.7870
  138CHL1   H2516464   5.903   0.458  14.810  0.0490  0.1587  0.5974
  138CHL1   C2616465   6.100   0.455  14.726  0.5262 -0.1618  0.0907
  138CHL1  H26A16466   6.097   0.362  14.665  3.8966  0.1864 -0.8184
  138CHL1  H26B16467   6.169   0.530  14.682  2.2332 -0.6233  1.8513
  138CHL1  H26C16468   6.130   0.437  14.832 -1.4778  0.8188  0.8917
  138CHL1   C2716469   5.963   0.665  14.758  1.2880 -1.1848 -0.3229
  138CHL1  H27A16470   6.035   0.705  14.832  1.0625  1.6291 -1.5174
  138CHL1  H27B16471   5.967   0.716  14.660  0.7747 -1.5153 -0.5177
  138CHL1  H27C16472   5.860   0.689  14.791  1.1878 -1.7992 -0.1616
  139CHL1    C316473   6.657   7.034  13.313  0.1494 -1.0126  1.2893
  139CHL1    H316474   6.706   7.123  13.358  1.3327 -0.5265 -0.8292
  139CHL1    O316475   6.668   7.034  13.172  0.1982 -0.0283  0.0184
  139CHL1   H3'16476   6.582   7.061  13.141 -0.9925 -1.1325  2.1338
  139CHL1    C416477   6.733   6.912  13.369  0.4175  0.2529  0.9974
  139CHL1   H4A16478   6.692   6.821  13.320 -1.3184  1.5282 -0.0334
  139CHL1   H4B16479   6.842   6.911  13.350  0.1600  1.4484 -0.7835
  139CHL1    C516480   6.700   6.901  13.520  0.3079  0.1993 -0.2067
  139CHL1    C616481   6.802   6.896  13.612 -0.0393 -0.3239  0.1452
  139CHL1    H616482   6.904   6.901  13.573  0.0645 -0.7434  0.3629
  139CHL1    C716483   6.783   6.879  13.756  0.0339  0.6569 -0.5764
  139CHL1   H7A16484   6.855   6.804  13.796 -1.1386 -0.4859 -0.5362
  139CHL1   H7B16485   6.795   6.978  13.805  0.4039 -0.0116  0.7545
  139CHL1    C816486   6.647   6.824  13.795  1.0624 -0.5220  0.0610
  139CHL1    H816487   6.645   6.717  13.765  1.7966 -0.4689 -0.2074
  139CHL1   C1416488   6.626   6.836  13.943 -0.0830 -0.3548  0.7026
  139CHL1   H1416489   6.632   6.944  13.966  1.9416 -0.2074 -0.3303
  139CHL1   C1516490   6.728   6.761  14.030 -0.4426 -0.4823  0.2748
  139CHL1  H15A16491   6.739   6.656  13.996  0.7984 -0.2294 -0.1814
  139CHL1  H15B16492   6.825   6.815  14.031 -0.7026 -0.0026  1.6654
  139CHL1   C1616493   6.665   6.766  14.169  0.4611 -0.4898  0.2693
  139CHL1  H16A16494   6.668   6.669  14.222 -0.6958 -1.7155 -1.8128
  139CHL1  H16B16495   6.703   6.842  14.241 -2.3814  0.5852  0.8049
  139CHL1   C1716496   6.516   6.808  14.140  0.1166  0.1592 -0.9903
  139CHL1   H1716497   6.510   6.915  14.170 -1.1169 -0.4388  1.1335
  139CHL1   C1316498   6.486   6.794  13.993 -0.4116 -0.1239  0.5895
  139CHL1   C1816499   6.453   6.642  13.953  0.3479  0.2192 -0.1245
  139CHL1  H18A16500   6.446   6.607  13.848  0.4122 -1.3967  0.3719
  139CHL1  H18B16501   6.527   6.572  13.999 -0.3353 -0.9160 -0.7080
  139CHL1  H18C16502   6.355   6.613  13.997  1.0299 -1.1064  0.6105
  139CHL1   C1216503   6.383   6.881  13.930 -0.3351 -0.0631  0.2509
  139CHL1  H12A16504   6.279   6.857  13.960 -0.7033  0.5533 -0.5029
  139CHL1  H12B16505   6.395   6.987  13.961 -1.9527 -0.0471  0.9349
  139CHL1   C1116506   6.399   6.866  13.776 -0.5054 -0.3673 -0.5980
  139CHL1  H11A16507   6.364   6.766  13.742 -2.9256  0.3387 -0.3200
  139CHL1  H11B16508   6.340   6.950  13.736  2.7972  1.4531 -2.0785
  139CHL1    C916509   6.541   6.900  13.716 -0.1263  0.4915  0.6300
  139CHL1    H916510   6.554   7.005  13.751 -0.2053  1.0125 -0.8537
  139CHL1   C1016511   6.555   6.895  13.560  0.3877 -0.7835  0.6526
  139CHL1   C1916512   6.486   6.764  13.499 -0.0449  0.6678  0.2949
  139CHL1  H19A16513   6.504   6.739  13.392 -0.7184  0.5342  0.2052
  139CHL1  H19B16514   6.519   6.672  13.552  3.1020  0.4360 -1.8174
  139CHL1  H19C16515   6.375   6.774  13.505  0.0158  1.8610 -0.2015
  139CHL1    C116516   6.481   7.018  13.495  0.2455  0.5904  0.3400
  139CHL1   H1A16517   6.373   7.010  13.520 -0.0623 -0.2919 -1.1398
  139CHL1   H1B16518   6.517   7.110  13.546 -0.0180 -0.1504  1.9399
  139CHL1    C216519   6.509   7.027  13.345 -0.4804  0.1860  0.1270
  139CHL1   H2A16520   6.457   7.121  13.317 -0.5470  0.8300  2.2092
  139CHL1   H2B16521   6.468   6.939  13.293  1.6122  0.9204 -3.0888
  139CHL1   C2016522   6.422   6.746  14.243  0.6219  0.1038 -0.6785
  139CHL1   H2016523   6.404   6.640  14.215  0.0058  0.3259 -1.1317
  139CHL1   C2116524   6.286   6.817  14.229 -0.5262  0.0826  0.3385
  139CHL1  H21A16525   6.232   6.771  14.143 -0.9133 -0.3027  0.7832
  139CHL1  H21B16526   6.289   6.927  14.212  0.7318  0.2655  1.6076
  139CHL1  H21C16527   6.228   6.794  14.321  1.2922 -2.6953  0.9057
  139CHL1   C2216528   6.477   6.750  14.384 -0.9529 -0.1299 -0.4561
  139CHL1  H22A16529   6.411   6.688  14.448 -0.2720  0.9322  1.3336
  139CHL1  H22B16530   6.575   6.701  14.399 -0.4284  1.2347  0.8842
  139CHL1   C2316531   6.504   6.884  14.454  0.1032 -0.2979  0.3448
  139CHL1  H23A16532   6.589   6.939  14.408 -0.2787 -0.9236 -1.1960
  139CHL1  H23B16533   6.420   6.955  14.437  1.0812  0.9790  0.6768
  139CHL1   C2416534   6.533   6.872  14.604  0.7859  0.2837  0.0527
  139CHL1  H24A16535   6.454   6.805  14.645 -1.2884  1.5906 -1.6016
  139CHL1  H24B16536   6.634   6.831  14.625  0.1023 -1.7642 -0.4501
  139CHL1   C2516537   6.545   7.009  14.671 -0.0336 -0.6261 -0.7725
  139CHL1   H2516538   6.448   7.062  14.660  0.4351  0.7817  1.2641
  139CHL1   C2616539   6.562   6.988  14.826 -0.4132 -0.7378 -0.0069
  139CHL1  H26A16540   6.478   6.928  14.868 -2.3036  1.2911 -0.7194
  139CHL1  H26B16541   6.663   6.943  14.843  1.3685  2.6809 -0.6596
  139CHL1  H26C16542   6.561   7.080  14.889  0.8390 -0.8416  0.1950
  139CHL1   C2716543   6.663   7.097  14.627 -0.6429 -0.0262 -0.0567
  139CHL1  H27A16544   6.681   7.190  14.686  1.3175 -1.0775  1.0815
  139CHL1  H27B16545   6.759   7.043  14.643  0.3378  1.3039 -1.1705
  139CHL1  H27C16546   6.649   7.125  14.520  1.5663 -1.0743 -0.6772
  140CHL1    C316547   6.479   0.662  13.244  0.2421 -0.4357 -0.0212
  140CHL1    H316548   6.562   0.589  13.241  1.9515  1.4464 -0.9177
  140CHL1    O316549   6.437   0.685  13.107  0.0794  0.3527 -0.6463
  140CHL1   H3'16550   6.375   0.757  13.121  1.6820  1.4550  1.2862
  140CHL1    C416551   6.361   0.605  13.326  0.2418 -0.0127 -0.2888
  140CHL1   H4A16552   6.277   0.678  13.328  0.6300  0.4293  0.0330
  140CHL1   H4B16553   6.323   0.515  13.272  1.6574 -1.8028  1.5527
  140CHL1    C516554   6.401   0.590  13.476  0.0407 -0.2113 -0.5106
  140CHL1    C616555   6.389   0.470  13.542  0.3569  0.1719 -0.2372
  140CHL1    H616556   6.339   0.391  13.484 -0.7451 -0.4510  1.5146
  140CHL1    C716557   6.393   0.463  13.691 -0.2512 -0.0936  0.1783
  140CHL1   H7A16558   6.297   0.434  13.738 -1.3128  1.6321 -0.8163
  140CHL1   H7B16559   6.469   0.384  13.708 -1.6809 -1.5921 -0.0794
  140CHL1    C816560   6.428   0.596  13.767 -0.6113 -0.3195 -0.3844
  140CHL1    H816561   6.334   0.651  13.784 -0.6656 -0.6896  0.6310
  140CHL1   C1416562   6.505   0.561  13.903 -0.4150 -0.6543  0.4537
  140CHL1   H1416563   6.598   0.510  13.871  0.2147 -0.0200  1.2349
  140CHL1   C1516564   6.440   0.463  13.996  0.8707 -0.1691  0.0101
  140CHL1  H15A16565   6.330   0.479  13.991  0.6905 -1.2333  0.3518
  140CHL1  H15B16566   6.459   0.361  13.956 -0.8719  0.1587 -1.8141
  140CHL1   C1616567   6.494   0.498  14.136 -0.0101 -0.2738 -0.0446
  140CHL1  H16A16568   6.409   0.532  14.199  1.3808  1.0653  1.1663
  140CHL1  H16B16569   6.540   0.413  14.190 -0.5981 -0.2445  0.5136
  140CHL1   C1716570   6.593   0.619  14.115 -0.0090  0.6432  0.2626
  140CHL1   H1716571   6.684   0.564  14.083 -1.8585 -3.9707  2.1089
  140CHL1   C1316572   6.538   0.686  13.988 -0.3212  0.1227  0.2518
  140CHL1   C1816573   6.402   0.750  14.020  0.4806  0.3647 -0.2625
  140CHL1  H18A16574   6.348   0.806  13.940  0.1922 -0.1650 -0.4398
  140CHL1  H18B16575   6.329   0.669  14.041 -0.2745  0.6469 -1.6342
  140CHL1  H18C16576   6.407   0.813  14.112  1.1875 -1.4629  1.0049
  140CHL1   C1216577   6.626   0.786  13.903  0.8130  0.3353 -0.6091
  140CHL1  H12A16578   6.633   0.872  13.973  1.2069 -0.5541  0.4776
  140CHL1  H12B16579   6.734   0.764  13.891  0.6247 -0.1097 -1.5726
  140CHL1   C1116580   6.553   0.820  13.767 -0.7091 -0.5709  0.5786
  140CHL1  H11A16581   6.469   0.891  13.781  0.9486  1.9937 -1.5203
  140CHL1  H11B16582   6.621   0.880  13.702 -4.0547  1.6437 -1.1479
  140CHL1    C916583   6.515   0.691  13.687 -0.3430 -0.5257 -0.1490
  140CHL1    H916584   6.607   0.631  13.670 -1.7887 -2.6557 -0.9156
  140CHL1   C1016585   6.461   0.719  13.552  1.1088  0.3359  0.2589
  140CHL1   C1916586   6.333   0.807  13.565  0.0026 -0.2228 -0.2426
  140CHL1  H19A16587   6.291   0.834  13.465  0.9493 -0.2992 -0.6760
  140CHL1  H19B16588   6.256   0.764  13.631  0.6791  1.4279  1.7265
  140CHL1  H19C16589   6.369   0.903  13.607 -0.2430  0.9165 -2.4535
  140CHL1    C116590   6.563   0.776  13.454  0.4554  0.4448  0.7558
  140CHL1   H1A16591   6.588   0.879  13.487 -0.6635  2.1545 -3.1721
  140CHL1   H1B16592   6.657   0.720  13.438  0.9970  1.9486 -1.8798
  140CHL1    C216593   6.514   0.792  13.307 -0.4261 -0.9440 -0.0559
  140CHL1   H2A16594   6.599   0.842  13.255 -0.8810  0.1963  0.2623
  140CHL1   H2B16595   6.431   0.866  13.303  2.4780  2.6341  0.2087
  140CHL1   C2016596   6.633   0.689  14.245  0.1416 -0.0665  0.0089
  140CHL1   H2016597   6.654   0.600  14.309 -0.8118  0.3679  0.9509
  140CHL1   C2116598   6.531   0.765  14.322 -0.4298 -0.0043 -0.3955
  140CHL1  H21A16599   6.435   0.709  14.318 -0.7494  0.6185 -1.8159
  140CHL1  H21B16600   6.523   0.868  14.282  0.7604 -0.2041 -1.2210
  140CHL1  H21C16601   6.566   0.782  14.426 -0.0854  1.1752 -0.6871
  140CHL1   C2216602   6.755   0.773  14.233  0.1821 -0.3288  0.0962
  140CHL1  H22A16603   6.828   0.707  14.180 -0.2783 -0.2024 -0.7107
  140CHL1  H22B16604   6.735   0.864  14.173  1.8676 -1.1738 -1.8966
  140CHL1   C2316605   6.818   0.811  14.362  0.0975 -0.0129  0.2531
  140CHL1  H23A16606   6.762   0.891  14.416 -1.3492 -0.1371 -0.9850
  140CHL1  H23B16607   6.797   0.722  14.425 -0.1041 -0.3170 -0.2380
  140CHL1   C2416608   6.965   0.836  14.356  0.0867  0.0327 -0.2964
  140CHL1  H24A16609   7.028   0.753  14.315  0.0121  0.6592 -1.7364
  140CHL1  H24B16610   6.985   0.922  14.289  4.2510 -0.0598  0.5427
  140CHL1   C2516611   7.012   0.885  14.500  0.4884 -0.4224  0.3776
  140CHL1   H2516612   6.929   0.944  14.543  1.1470  0.8542 -0.0443
  140CHL1   C2616613   7.129   0.988  14.493 -0.1537  0.1905 -0.4203
  140CHL1  H26A16614   7.153   1.023  14.595 -0.3039 -0.2353 -0.2385
  140CHL1  H26B16615   7.214   0.938  14.442  1.0066 -1.4639  2.8869
  140CHL1  H26C16616   7.100   1.085  14.446 -0.0359  0.5065  0.1613
  140CHL1   C2716617   7.042   0.768  14.589  0.2782  0.0385 -0.2116
  140CHL1  H27A16618   6.964   0.689  14.592 -0.2642  0.5040 -1.2697
  140CHL1  H27B16619   7.131   0.721  14.542 -1.2243 -1.0155 -2.1639
  140CHL1  H27C16620   7.077   0.806  14.687 -2.3089  2.1035  0.0143
  141DOPC     N16621   3.944   3.727  17.169 -0.0773 -0.4233  0.7158
  141DOPC   C1216622   3.944   3.680  17.019  0.4706 -0.2763 -0.4477
  141DOPC  H12A16623   3.950   3.572  17.014  0.4553 -0.2806 -0.3686
  141DOPC  H12B16624   4.037   3.713  16.974  0.6687 -0.5281 -0.2269
  141DOPC   C1316625   4.047   3.654  17.241 -0.2322 -0.0489  0.3201
  141DOPC  H13A16626   4.139   3.661  17.186 -0.0063 -2.7767  0.1914
  141DOPC  H13B16627   4.068   3.700  17.336 -0.0842  2.0096 -0.6650
  141DOPC  H13C16628   4.021   3.551  17.262  2.1239 -0.1142  3.5803
  141DOPC   C1416629   3.811   3.692  17.234  0.8754 -0.1184  0.3848
  141DOPC  H14A16630   3.733   3.753  17.191 -0.0288 -2.3951 -1.4390
  141DOPC  H14B16631   3.792   3.590  17.204  0.0380  0.2297 -0.3242
  141DOPC  H14C16632   3.813   3.714  17.340 -1.6391  1.2352  0.2260
  141DOPC   C1516633   3.973   3.877  17.164 -0.5429  0.2487 -0.0789
  141DOPC  H15A16634   3.992   3.925  17.260  2.0394 -0.1041 -0.3357
  141DOPC  H15B16635   3.888   3.920  17.112 -0.3973 -2.2734 -2.6010
  141DOPC  H15C16636   4.062   3.900  17.107 -1.2762  1.8709 -0.6486
  141DOPC   C1116637   3.827   3.732  16.940 -0.6412 -0.2416  0.4856
  141DOPC  H11A16638   3.799   3.835  16.973  2.5584  0.4776  1.2340
  141DOPC  H11B16639   3.865   3.740  16.836  0.4162  1.7761  0.9815
  141DOPC     P16640   3.701   3.518  16.881 -0.2442  0.1295  0.2877
  141DOPC   O1316641   3.573   3.455  16.910 -0.2956  0.0992 -0.8671
  141DOPC   O1416642   3.822   3.441  16.906 -0.5657  0.6683 -0.1050
  141DOPC   O1216643   3.711   3.654  16.952 -0.1772 -0.2373 -0.0627
  141DOPC   O1116644   3.692   3.562  16.726  0.4688  0.4451 -0.0484
  141DOPC    C116645   3.574   3.630  16.684 -0.0989 -0.1759  0.2852
  141DOPC    HA16646   3.575   3.736  16.716  1.8062 -0.0038 -0.2475
  141DOPC    HB16647   3.487   3.578  16.730  1.2771 -1.2957  1.7592
  141DOPC    C216648   3.562   3.629  16.534  1.2634  0.5312 -0.6134
  141DOPC    HS16649   3.469   3.686  16.511  1.1143 -0.1270 -1.6976
  141DOPC   O2116650   3.554   3.490  16.493 -0.0289  0.1441  0.3320
  141DOPC   C2116651   3.435   3.433  16.489  0.5594 -0.4905  0.1744
  141DOPC   O2216652   3.330   3.481  16.510 -0.0069 -0.5963  0.2973
  141DOPC   C2216653   3.456   3.282  16.463 -0.4712 -0.8514  0.1307
  141DOPC   H2R16654   3.524   3.247  16.544 -1.0935 -0.7912  0.6862
  141DOPC   H2S16655   3.519   3.267  16.372  0.5560 -1.1357  0.8747
  141DOPC    C316656   3.676   3.704  16.471 -0.1684  0.1615  0.0326
  141DOPC    HX16657   3.769   3.645  16.488 -0.2194 -0.8631 -2.6212
  141DOPC    HY16658   3.685   3.798  16.529 -0.0568  0.2390 -0.1116
  141DOPC   O3116659   3.651   3.732  16.325 -0.2259  0.3041 -0.1388
  141DOPC   C3116660   3.687   3.641  16.237 -0.0892 -0.0792  0.2238
  141DOPC   O3216661   3.743   3.535  16.265  0.4550  0.0622  0.1085
  141DOPC   C3216662   3.653   3.692  16.097  0.0590  0.2683  0.6180
  141DOPC   H2X16663   3.550   3.734  16.105 -0.7104 -1.7073  1.8148
  141DOPC   H2Y16664   3.721   3.776  16.072 -1.4087  1.7928  1.5137
  141DOPC   C2316665   3.330   3.193  16.450 -0.1193  0.6703 -0.5613
  141DOPC   H3R16666   3.266   3.226  16.366  0.0819 -0.5532 -1.2224
  141DOPC   H3S16667   3.269   3.204  16.543 -0.1605 -0.3183 -0.4613
  141DOPC   C2416668   3.358   3.045  16.427 -0.4645 -0.1229  0.1825
  141DOPC   H4R16669   3.411   2.999  16.513 -0.4923  0.0559  0.2948
  141DOPC   H4S16670   3.423   3.026  16.339 -2.4363  0.2856 -1.4504
  141DOPC   C2516671   3.226   2.963  16.407 -0.2513  0.2238 -0.3714
  141DOPC   H5R16672   3.162   2.972  16.498 -0.4576 -0.2149 -0.4669
  141DOPC   H5S16673   3.254   2.855  16.411 -0.9321 -0.0859 -2.7414
  141DOPC   C2616674   3.159   2.993  16.267  0.2452  0.8542 -0.2654
  141DOPC   H6R16675   3.144   3.103  16.263 -1.1417  0.7301  0.7534
  141DOPC   H6S16676   3.055   2.956  16.253  0.9084 -0.5918 -1.6233
  141DOPC   C2716677   3.240   2.952  16.139 -0.3662 -0.3391 -0.0377
  141DOPC   H7R16678   3.203   2.856  16.098 -2.9336 -0.4352  2.2140
  141DOPC   H7S16679   3.345   2.948  16.174 -0.1223 -0.2239 -0.7442
  141DOPC   C2816680   3.247   3.043  16.023 -0.5837  0.3738 -0.1874
  141DOPC   H8R16681   3.145   3.047  15.978 -1.1451 -0.2610  0.9881
  141DOPC   H8S16682   3.309   3.022  15.934  1.4766  1.5290  0.9104
  141DOPC   C2916683   3.306   3.175  16.063 -0.0928 -0.3729  0.1240
  141DOPC   H9R16684   3.414   3.170  16.087 -0.5565  1.3908  3.0969
  141DOPC  C21016685   3.255   3.299  16.054 -0.2397 -0.2199  0.2877
  141DOPC  H10R16686   3.320   3.379  16.094  1.6026 -1.3791 -0.2511
  141DOPC  C21116687   3.121   3.338  15.995  0.0311 -0.2871  0.0116
  141DOPC  H11R16688   3.039   3.285  16.048 -0.6766 -0.2174 -0.9652
  141DOPC  H11S16689   3.117   3.315  15.886  3.1278  0.0679 -0.2516
  141DOPC  C21216690   3.095   3.492  16.006  0.3732  0.2674 -0.4394
  141DOPC  H12R16691   3.014   3.522  15.937  1.0811  0.6044 -1.1360
  141DOPC  H12S16692   3.178   3.549  15.959  0.6008  0.2156 -0.1029
  141DOPC  C21316693   3.082   3.544  16.149 -0.1807 -0.3669 -0.1067
  141DOPC  H13R16694   3.167   3.510  16.213  0.6207  1.3332 -0.2164
  141DOPC  H13S16695   2.984   3.510  16.188 -0.1940  0.0362  0.2156
  141DOPC  C21416696   3.093   3.693  16.146 -0.4016 -0.2480  0.5295
  141DOPC  H14R16697   3.039   3.729  16.056  0.7591  0.0528 -0.0757
  141DOPC  H14S16698   3.199   3.718  16.122 -0.3252 -0.3343  0.7717
  141DOPC  C21516699   3.068   3.746  16.281 -0.8163 -0.4026  0.3400
  141DOPC  H15R16700   3.090   3.854  16.278 -0.1535 -0.5190  0.8567
  141DOPC  H15S16701   3.147   3.706  16.348 -0.3789 -1.2430 -0.6501
  141DOPC  C21616702   2.927   3.718  16.332  0.0142 -0.5169  0.5966
  141DOPC  H16R16703   2.926   3.617  16.378  1.8590 -1.2357 -0.8225
  141DOPC  H16S16704   2.854   3.726  16.248  0.9580 -1.2621 -0.3195
  141DOPC  C21716705   2.882   3.821  16.445  0.2764 -0.2652  0.0324
  141DOPC  H17R16706   2.780   3.780  16.460  0.3463 -0.0548  1.1727
  141DOPC  H17S16707   2.873   3.923  16.400  0.1943  0.4949  1.7080
  141DOPC  C21816708   2.976   3.831  16.561 -0.1348  0.4000  0.0583
  141DOPC  H18R16709   3.073   3.881  16.542  0.8039 -0.9207  1.1451
  141DOPC  H18S16710   2.989   3.728  16.600  0.0716 -0.5280 -2.2766
  141DOPC  H18T16711   2.916   3.878  16.641 -2.4070 -1.4016 -0.4566
  141DOPC   C3316712   3.681   3.590  15.983  0.9319  0.0149  0.4464
  141DOPC   H3X16713   3.784   3.547  15.985  1.3729  0.9957  2.8216
  141DOPC   H3Y16714   3.700   3.650  15.891  3.9925 -0.1755  0.8315
  141DOPC   C3416715   3.571   3.485  15.964  0.4551 -0.4266 -0.2222
  141DOPC   H4X16716   3.476   3.541  15.962 -0.1925 -1.5031 -0.4810
  141DOPC   H4Y16717   3.572   3.426  16.058 -1.4000 -0.0512  0.0634
  141DOPC   C3516718   3.594   3.391  15.842  0.7416  0.3880 -0.1375
  141DOPC   H5X16719   3.490   3.354  15.829  1.1601 -0.4474 -1.2841
  141DOPC   H5Y16720   3.664   3.314  15.881 -0.6998 -0.6261  0.5459
  141DOPC   C3616721   3.624   3.459  15.715  0.2394  0.8608  0.3914
  141DOPC   H6X16722   3.559   3.548  15.708 -0.2325  0.8092  3.0532
  141DOPC   H6Y16723   3.730   3.492  15.718 -0.0227  1.6566  2.6806
  141DOPC   C3716724   3.600   3.370  15.597 -0.3721  0.1967  0.8714
  141DOPC   H7X16725   3.680   3.293  15.587 -0.9877 -0.7776  2.8119
  141DOPC   H7Y16726   3.498   3.327  15.596 -0.3080  0.0057 -1.3460
  141DOPC   C3816727   3.618   3.438  15.460  0.6998  0.0188  0.3436
  141DOPC   H8X16728   3.717   3.488  15.456  1.4237 -1.2618  1.0819
  141DOPC   H8Y16729   3.535   3.511  15.461  2.2408  1.8527 -0.0326
  141DOPC   C3916730   3.606   3.347  15.343  0.0614 -0.5397  0.3074
  141DOPC   H9X16731   3.673   3.261  15.358  1.5321  0.4424 -0.3880
  141DOPC  C31016732   3.524   3.365  15.235 -0.1796 -0.3706 -0.3823
  141DOPC  H10X16733   3.532   3.294  15.151 -0.1908 -1.4914  0.5466
  141DOPC  C31116734   3.431   3.478  15.213  0.7073 -0.0878  0.0212
  141DOPC  H11X16735   3.448   3.508  15.107  1.5886 -0.1530  0.1388
  141DOPC  H11Y16736   3.469   3.562  15.275  0.1238  0.4781 -0.3664
  141DOPC  C31216737   3.280   3.473  15.243 -0.8861  0.0890 -0.0089
  141DOPC  H12X16738   3.248   3.374  15.204  0.0742 -0.4126  0.4400
  141DOPC  H12Y16739   3.222   3.549  15.186 -2.7597 -1.4264 -0.2189
  141DOPC  C31316740   3.248   3.472  15.390  0.1900 -0.2830 -0.0162
  141DOPC  H13X16741   3.311   3.395  15.440 -0.8676 -0.3932  1.2012
  141DOPC  H13Y16742   3.286   3.566  15.436  1.0444 -0.8402  0.4561
  141DOPC  C31416743   3.101   3.435  15.425 -0.8536 -0.8960  0.1115
  141DOPC  H14X16744   3.039   3.491  15.352 -0.2199 -0.7382 -0.3112
  141DOPC  H14Y16745   3.075   3.327  15.432 -1.0585 -0.8163  0.6488
  141DOPC  C31516746   3.056   3.497  15.561 -0.0591 -0.5891  0.5590
  141DOPC  H15X16747   3.139   3.493  15.634 -0.8726 -0.6917  1.5005
  141DOPC  H15Y16748   2.976   3.427  15.593 -1.1891 -1.4489 -3.5875
  141DOPC  C31616749   2.991   3.635  15.556 -0.0799 -0.4124  0.0715
  141DOPC  H16X16750   3.065   3.710  15.519 -0.6662  0.3935  0.4911
  141DOPC  H16Y16751   2.913   3.632  15.477 -0.0247 -0.7569  0.0312
  141DOPC  C31716752   2.949   3.683  15.693  0.4406 -0.4413  0.2751
  141DOPC  H17X16753   2.892   3.603  15.744  0.4320  0.1043  1.1346
  141DOPC  H17Y16754   3.038   3.699  15.757  0.6945 -1.0559  0.0863
  141DOPC  C31816755   2.879   3.816  15.681  0.5433  0.3573 -0.2037
  141DOPC  H18X16756   2.922   3.881  15.602  1.8828 -2.4945 -1.9683
  141DOPC  H18Y16757   2.774   3.795  15.650  0.4429  0.0270  0.3408
  141DOPC  H18Z16758   2.884   3.868  15.779  0.3827 -1.7058  0.9520
  142DOPC     N16759   4.425   4.490  17.208  0.8544  0.6494  0.6035
  142DOPC   C1216760   4.402   4.343  17.208  0.2365  0.6913  0.1529
  142DOPC  H12A16761   4.295   4.330  17.220  0.1930 -1.5868 -2.0700
  142DOPC  H12B16762   4.449   4.305  17.297  0.2080  0.9381  0.2757
  142DOPC   C1316763   4.383   4.553  17.345 -0.2403 -0.1140  0.3971
  142DOPC  H13A16764   4.391   4.660  17.333  0.7334 -0.3316 -1.1727
  142DOPC  H13B16765   4.282   4.536  17.380  0.4806  0.6386  3.0508
  142DOPC  H13C16766   4.446   4.523  17.428 -0.0891  0.1485  0.3783
  142DOPC   C1416767   4.350   4.564  17.103 -0.1718 -0.1846 -0.2016
  142DOPC  H14A16768   4.249   4.593  17.126  0.7151  1.6106  1.7717
  142DOPC  H14B16769   4.395   4.659  17.079 -1.9123  0.6048 -0.4269
  142DOPC  H14C16770   4.362   4.511  17.010  1.0640  1.2008 -0.8629
  142DOPC   C1516771   4.577   4.525  17.185  1.2067  0.4501 -0.4682
  142DOPC  H15A16772   4.600   4.631  17.188  1.7051  0.3608 -0.9050
  142DOPC  H15B16773   4.616   4.487  17.092  0.3760 -2.4177  0.2652
  142DOPC  H15C16774   4.631   4.484  17.268 -0.3069  0.1555  0.4004
  142DOPC   C1116775   4.420   4.256  17.084 -0.1325  0.5671  0.2388
  142DOPC  H11A16776   4.525   4.266  17.049  0.4592 -0.2183  1.6838
  142DOPC  H11B16777   4.405   4.148  17.104 -1.0800  0.1066 -2.4889
  142DOPC     P16778   4.216   4.221  16.909 -0.0482 -0.3789 -0.3474
  142DOPC   O1316779   4.171   4.283  16.784  0.0488  0.4104 -0.1691
  142DOPC   O1416780   4.107   4.196  17.005 -0.6808 -0.0365 -0.1190
  142DOPC   O1216781   4.331   4.307  16.980 -0.1272  0.3596 -0.2070
  142DOPC   O1116782   4.288   4.088  16.875  0.5919  0.0309 -0.1428
  142DOPC    C116783   4.412   4.098  16.798  0.3483  0.5968  0.2035
  142DOPC    HA16784   4.475   4.011  16.828 -0.7665 -0.7999 -1.3589
  142DOPC    HB16785   4.462   4.194  16.823  2.4340 -0.5115  0.5691
  142DOPC    C216786   4.384   4.085  16.641  0.0221 -0.0657 -1.3190
  142DOPC    HS16787   4.329   4.175  16.606 -3.5697 -2.0465 -1.2625
  142DOPC   O2116788   4.317   3.965  16.617 -0.6957 -0.2253  0.3353
  142DOPC   C2116789   4.252   3.954  16.503 -0.0604 -0.4605 -0.0956
  142DOPC   O2216790   4.212   4.049  16.438  0.1084  0.2720  0.1683
  142DOPC   C2216791   4.244   3.809  16.460  0.8042 -0.0906 -0.4114
  142DOPC   H2R16792   4.257   3.745  16.550  0.3431 -0.9909 -0.9753
  142DOPC   H2S16793   4.329   3.777  16.396  0.8560 -2.5191  0.7422
  142DOPC    C316794   4.519   4.086  16.561  0.3150  0.0025  0.7164
  142DOPC    HX16795   4.579   3.993  16.572  1.9541  1.1383  1.6196
  142DOPC    HY16796   4.585   4.160  16.610  2.5955  0.2362 -2.3977
  142DOPC   O3116797   4.505   4.131  16.424  0.5383  0.8284 -0.1291
  142DOPC   C3116798   4.471   4.251  16.396 -0.1851 -0.1878  0.1715
  142DOPC   O3216799   4.455   4.346  16.473  0.4141  0.2877 -0.0625
  142DOPC   C3216800   4.439   4.257  16.250 -0.0451 -0.3656 -0.2341
  142DOPC   H2X16801   4.491   4.173  16.199  0.8302  0.6843 -1.1145
  142DOPC   H2Y16802   4.334   4.226  16.230 -1.0430  1.4251  1.8933
  142DOPC   C2316803   4.113   3.771  16.388 -0.1602  0.2721  0.2928
  142DOPC   H3R16804   4.102   3.810  16.285 -2.2335  1.0414  0.7415
  142DOPC   H3S16805   4.037   3.834  16.440 -0.0647 -0.0108  0.7848
  142DOPC   C2416806   4.079   3.620  16.396 -0.1471 -0.3966  0.4876
  142DOPC   H4R16807   3.989   3.602  16.332 -0.8159  1.5742  0.7872
  142DOPC   H4S16808   4.068   3.598  16.504 -0.7139 -0.6689  0.3796
  142DOPC   C2516809   4.195   3.536  16.339 -0.0290 -0.0388 -0.4237
  142DOPC   H5R16810   4.292   3.562  16.386  0.2522  0.7168 -1.3908
  142DOPC   H5S16811   4.209   3.549  16.229  0.3240 -0.5835 -0.4534
  142DOPC   C2616812   4.173   3.388  16.365 -0.8076  0.0410  0.5876
  142DOPC   H6R16813   4.172   3.365  16.474 -0.8642 -2.6929  0.0684
  142DOPC   H6S16814   4.243   3.319  16.314 -3.7605 -2.9279  0.1898
  142DOPC   C2716815   4.035   3.339  16.314 -0.4264  0.1957  0.0479
  142DOPC   H7R16816   3.956   3.397  16.366  0.7878  0.6408  1.4532
  142DOPC   H7S16817   4.031   3.231  16.340 -0.7843  0.3809  0.7730
  142DOPC   C2816818   4.016   3.346  16.154  0.6624  0.4552 -0.3433
  142DOPC   H8R16819   4.117   3.318  16.115  0.3362 -2.3882  0.6540
  142DOPC   H8S16820   3.995   3.454  16.133  0.6026  0.7624  1.1996
  142DOPC   C2916821   3.904   3.257  16.098 -0.0599  0.2382  0.0189
  142DOPC   H9R16822   3.809   3.277  16.150 -0.1398 -1.3472  0.5286
  142DOPC  C21016823   3.911   3.177  15.991  0.0939 -0.3160  0.4231
  142DOPC  H10R16824   3.819   3.122  15.967  0.4687 -0.2733 -1.1965
  142DOPC  C21116825   4.030   3.153  15.914 -0.9977  0.2288  0.3691
  142DOPC  H11R16826   4.089   3.073  15.964 -1.5066 -0.8727 -0.7359
  142DOPC  H11S16827   4.089   3.247  15.911 -0.8240  0.0944 -1.8284
  142DOPC  C21216828   4.029   3.103  15.771  0.3638  0.9956 -0.0613
  142DOPC  H12R16829   4.005   2.995  15.776 -2.0524  1.5095  1.1665
  142DOPC  H12S16830   4.130   3.107  15.726 -0.1485 -2.1058 -1.7833
  142DOPC  C21316831   3.931   3.190  15.685 -0.7863  0.1231 -0.3157
  142DOPC  H13R16832   3.959   3.296  15.703 -0.4566  0.4983 -2.6730
  142DOPC  H13S16833   3.834   3.174  15.736 -0.7249 -2.3632 -0.8377
  142DOPC  C21416834   3.929   3.156  15.539  0.5978 -0.8614  0.3794
  142DOPC  H14R16835   3.864   3.227  15.484  0.1083 -2.3035 -0.9787
  142DOPC  H14S16836   3.882   3.057  15.521 -3.1388  0.4393  1.9574
  142DOPC  C21516837   4.070   3.153  15.470  0.4195 -0.3396 -0.0439
  142DOPC  H15R16838   4.127   3.070  15.515  0.7058  0.4390  1.0807
  142DOPC  H15S16839   4.131   3.245  15.482 -0.3751  0.0622  1.1077
  142DOPC  C21616840   4.071   3.117  15.318  0.3669 -0.3794  0.2564
  142DOPC  H16R16841   4.035   3.012  15.317 -0.8453  0.0069  1.1705
  142DOPC  H16S16842   4.177   3.130  15.287  0.3658 -1.4327 -0.2140
  142DOPC  C21716843   3.977   3.203  15.233 -0.2084  0.0359  0.3607
  142DOPC  H17R16844   4.027   3.301  15.248  0.4214  0.0565 -1.5930
  142DOPC  H17S16845   3.872   3.204  15.269 -0.6316  0.2252 -0.8279
  142DOPC  C21816846   3.979   3.165  15.083  0.3170  0.3218  0.3433
  142DOPC  H18R16847   4.086   3.141  15.064  1.2462  1.4952  3.4810
  142DOPC  H18S16848   3.942   3.245  15.015  1.6484  2.6097  2.1875
  142DOPC  H18T16849   3.929   3.066  15.069 -0.3396  0.6600  0.2825
  142DOPC   C3316850   4.472   4.389  16.173 -0.2875 -0.1766  0.0573
  142DOPC   H3X16851   4.573   4.420  16.208 -0.7261  0.2989  0.9505
  142DOPC   H3Y16852   4.406   4.467  16.217 -1.9505 -0.9553 -0.9586
  142DOPC   C3416853   4.462   4.385  16.023  0.1689 -0.4692 -0.0397
  142DOPC   H4X16854   4.514   4.288  16.009 -1.6951 -1.7493  1.3752
  142DOPC   H4Y16855   4.510   4.470  15.970 -0.8701  0.9200  1.1452
  142DOPC   C3516856   4.312   4.378  15.981  0.2595 -0.4192 -0.0390
  142DOPC   H5X16857   4.277   4.483  15.974 -1.1555 -0.8201  0.6996
  142DOPC   H5Y16858   4.256   4.324  16.060  1.5343 -1.1146  0.4192
  142DOPC   C3616859   4.289   4.304  15.847  0.1985 -0.1822  0.2714
  142DOPC   H6X16860   4.326   4.200  15.849  0.4732 -0.1016 -0.4414
  142DOPC   H6Y16861   4.178   4.294  15.845 -0.1958  3.0010  0.2333
  142DOPC   C3716862   4.351   4.369  15.723 -0.6311  0.0584 -0.2533
  142DOPC   H7X16863   4.291   4.461  15.705  0.0555  0.6591  0.4803
  142DOPC   H7Y16864   4.455   4.405  15.731 -0.9362  0.9114 -0.0182
  142DOPC   C3816865   4.325   4.276  15.605 -0.2656  0.3248  0.0976
  142DOPC   H8X16866   4.224   4.230  15.595  0.0295 -0.1537 -0.7171
  142DOPC   H8Y16867   4.376   4.180  15.628  0.5691  0.6543 -0.3467
  142DOPC   C3916868   4.380   4.330  15.473 -0.1527  0.3411  0.5572
  142DOPC   H9X16869   4.489   4.340  15.474  0.1452 -1.6757  3.9866
  142DOPC  C31016870   4.306   4.361  15.356 -0.2204 -0.3744  0.3683
  142DOPC  H10X16871   4.354   4.406  15.268  0.9613  1.0176  1.6596
  142DOPC  C31116872   4.155   4.347  15.336 -0.7472 -0.4568 -0.5441
  142DOPC  H11X16873   4.099   4.356  15.432  0.1673  0.1085 -0.0587
  142DOPC  H11Y16874   4.135   4.246  15.293  0.6899 -0.0154 -2.3525
  142DOPC  C31216875   4.108   4.457  15.230  0.0498  0.4858 -0.2480
  142DOPC  H12X16876   3.997   4.448  15.220  0.3052 -0.8319 -2.6799
  142DOPC  H12Y16877   4.157   4.441  15.132  1.1793 -2.8724  0.7401
  142DOPC  C31316878   4.115   4.602  15.284 -0.0914 -0.5499 -1.2125
  142DOPC  H13X16879   4.058   4.616  15.378  0.7045 -1.2352 -0.6110
  142DOPC  H13Y16880   4.216   4.635  15.318 -1.0246  1.3097 -0.1004
  142DOPC  C31416881   4.058   4.712  15.182  0.3564 -0.1193 -0.0196
  142DOPC  H14X16882   4.103   4.720  15.080 -0.4035  1.1614 -0.2875
  142DOPC  H14Y16883   3.952   4.691  15.160  0.9252 -1.0476 -2.1215
  142DOPC  C31516884   4.063   4.855  15.242  0.0420 -0.0989  0.3527
  142DOPC  H15X16885   4.171   4.874  15.259  0.5517 -2.4242  0.0056
  142DOPC  H15Y16886   4.008   4.868  15.338 -1.2039  0.7066 -0.4277
  142DOPC  C31616887   3.999   4.961  15.148 -0.1460  0.3951  0.3618
  142DOPC  H16X16888   4.071   4.971  15.065 -1.2421 -3.8479 -1.3688
  142DOPC  H16Y16889   3.901   4.927  15.109  0.7168  1.5663 -3.1418
  142DOPC  C31716890   3.982   5.091  15.228 -0.2176 -0.1577  0.5014
  142DOPC  H17X16891   3.916   5.074  15.315 -1.7760  0.2311 -0.5517
  142DOPC  H17Y16892   4.078   5.134  15.263 -0.3235  0.7910 -0.3155
  142DOPC  C31816893   3.903   5.189  15.143  0.0576  0.2129  0.7258
  142DOPC  H18X16894   3.948   5.191  15.041 -1.5596 -3.0457 -0.2017
  142DOPC  H18Y16895   3.800   5.152  15.123 -0.0811  2.1737 -3.1038
  142DOPC  H18Z16896   3.897   5.292  15.183 -3.3105  0.6903 -0.6765
  143DOPC     N16897   1.976   4.709  17.150  0.1564  0.6232 -0.4924
  143DOPC   C1216898   1.862   4.792  17.090  0.4551 -0.4649 -0.7625
  143DOPC  H12A16899   1.897   4.885  17.048 -2.5546  0.4281 -1.5249
  143DOPC  H12B16900   1.793   4.814  17.170 -1.0072 -0.0613 -2.0850
  143DOPC   C1316901   1.928   4.563  17.164 -0.0607  0.0432 -0.1245
  143DOPC  H13A16902   1.908   4.522  17.067  1.1194 -0.9605  0.0259
  143DOPC  H13B16903   2.013   4.502  17.194  0.8580  0.2068 -2.2397
  143DOPC  H13C16904   1.851   4.550  17.239  1.9624 -1.6784  1.8270
  143DOPC   C1416905   2.021   4.777  17.284  0.1605  0.9518 -0.0008
  143DOPC  H14A16906   1.932   4.769  17.345  0.0950 -0.6651 -0.2547
  143DOPC  H14B16907   2.107   4.728  17.326 -0.8312  0.2284  1.2808
  143DOPC  H14C16908   2.033   4.883  17.266  0.1498  0.9513 -0.0111
  143DOPC   C1516909   2.093   4.703  17.070  0.3670 -0.1414 -0.2503
  143DOPC  H15A16910   2.071   4.682  16.966  3.7152 -0.1371 -1.0804
  143DOPC  H15B16911   2.160   4.626  17.108 -3.6546 -3.1463  1.4645
  143DOPC  H15C16912   2.146   4.797  17.070  0.0621  0.0666  1.3310
  143DOPC   C1116913   1.786   4.738  16.965 -0.5602  0.2208  0.1491
  143DOPC  H11A16914   1.729   4.650  17.003  2.2648 -1.3676  1.0400
  143DOPC  H11B16915   1.721   4.822  16.933 -0.4489  1.8672  3.7608
  143DOPC     P16916   1.933   4.810  16.763 -0.1833  0.0485  0.1215
  143DOPC   O1316917   2.024   4.752  16.662 -0.1629 -0.2594  0.1634
  143DOPC   O1416918   1.982   4.919  16.844 -0.4518 -0.5038 -0.3503
  143DOPC   O1216919   1.868   4.698  16.855  0.6766 -0.0629 -0.1000
  143DOPC   O1116920   1.802   4.869  16.692 -0.1120  0.4370 -0.8216
  143DOPC    C116921   1.810   4.983  16.604 -0.4749 -0.5696  0.4009
  143DOPC    HA16922   1.761   4.962  16.507 -0.8195 -0.5969  0.5785
  143DOPC    HB16923   1.910   5.030  16.593 -0.9120  0.2948  0.0817
  143DOPC    C216924   1.710   5.091  16.658  0.1941 -0.4125  0.5559
  143DOPC    HS16925   1.719   5.106  16.768 -0.1798 -2.5570  0.9263
  143DOPC   O2116926   1.579   5.060  16.613  0.0617  0.3478  0.3300
  143DOPC   C2116927   1.506   4.977  16.686 -0.8266 -0.9117 -0.1646
  143DOPC   O2216928   1.538   4.929  16.791 -0.2746 -0.2516 -0.1140
  143DOPC   C2216929   1.378   4.954  16.606  0.0007 -0.5278 -0.4985
  143DOPC   H2R16930   1.350   5.055  16.568 -1.2198 -0.4935  0.4360
  143DOPC   H2S16931   1.305   4.924  16.684  0.3601 -0.1741 -0.0242
  143DOPC    C316932   1.746   5.233  16.609  0.1125  0.3514  0.3011
  143DOPC    HX16933   1.843   5.260  16.656  0.1919  1.3209 -0.3820
  143DOPC    HY16934   1.676   5.305  16.656  1.7449  1.2269  1.4834
  143DOPC   O3116935   1.745   5.249  16.464 -0.7237 -0.4819 -0.2336
  143DOPC   C3116936   1.805   5.364  16.416 -1.1062  0.3826  0.0400
  143DOPC   O3216937   1.852   5.455  16.482  0.2029  0.2701  0.1930
  143DOPC   C3216938   1.836   5.336  16.266  0.2599 -0.1389  0.3033
  143DOPC   H2X16939   1.932   5.281  16.262  1.7010  2.3040 -0.2227
  143DOPC   H2Y16940   1.759   5.271  16.220 -1.3655  0.9212  1.3907
  143DOPC   C2316941   1.402   4.846  16.501  0.4477  0.3721  0.1407
  143DOPC   H3R16942   1.305   4.798  16.478 -0.1109  0.4807  2.0957
  143DOPC   H3S16943   1.485   4.775  16.521  1.1473  1.6288  1.9799
  143DOPC   C2416944   1.440   4.925  16.370 -0.2656  0.2244 -1.2267
  143DOPC   H4R16945   1.528   4.988  16.398 -0.6007  0.0668  0.2997
  143DOPC   H4S16946   1.361   5.002  16.354 -0.9744  0.2900  1.8801
  143DOPC   C2516947   1.453   4.819  16.252  1.1471 -0.4643 -0.0931
  143DOPC   H5R16948   1.366   4.754  16.230  1.9112 -0.9534 -1.7767
  143DOPC   H5S16949   1.530   4.744  16.282  1.5088 -0.1248 -0.1502
  143DOPC   C2616950   1.502   4.884  16.120 -0.1268  0.1825 -0.6883
  143DOPC   H6R16951   1.593   4.942  16.146  0.4807 -1.0717  0.0569
  143DOPC   H6S16952   1.420   4.945  16.078 -2.0549 -0.0362  2.4639
  143DOPC   C2716953   1.542   4.785  16.017  0.0459 -0.0230  0.0105
  143DOPC   H7R16954   1.464   4.706  16.011  0.4953 -0.4464 -0.3781
  143DOPC   H7S16955   1.635   4.738  16.055  0.8038  1.2868 -0.1710
  143DOPC   C2816956   1.554   4.838  15.869 -0.2261  0.9457  0.3217
  143DOPC   H8R16957   1.609   4.935  15.872  1.3742  0.0493  1.1083
  143DOPC   H8S16958   1.451   4.862  15.837 -0.3604  1.1972  0.9247
  143DOPC   C2916959   1.616   4.735  15.780 -0.2586 -0.3189  0.2883
  143DOPC   H9R16960   1.576   4.635  15.804 -1.8693  0.7333  2.2908
  143DOPC  C21016961   1.700   4.769  15.684 -0.8160  0.3608  0.1333
  143DOPC  H10R16962   1.738   4.685  15.624  1.7110 -0.2022  2.2983
  143DOPC  C21116963   1.761   4.896  15.632  0.2597  0.4627 -0.0166
  143DOPC  H11R16964   1.721   4.979  15.695 -1.0425  0.6388 -1.0382
  143DOPC  H11S16965   1.722   4.922  15.531  0.9477  0.2180 -0.3500
  143DOPC  C21216966   1.919   4.885  15.624  0.1096 -0.4299 -0.3024
  143DOPC  H12R16967   1.964   4.958  15.554  0.9975 -0.3704  0.3185
  143DOPC  H12S16968   1.954   4.786  15.588 -0.6528 -1.0408  0.5661
  143DOPC  C21316969   1.983   4.889  15.758 -0.1733  0.3621  0.2765
  143DOPC  H13R16970   2.092   4.869  15.747 -0.2666  0.1326 -0.3187
  143DOPC  H13S16971   1.942   4.814  15.829  1.3933  1.7978  2.8096
  143DOPC  C21416972   1.971   5.031  15.832  0.3191  0.7869 -0.6380
  143DOPC  H14R16973   1.866   5.037  15.866  0.3455 -0.3134 -0.3233
  143DOPC  H14S16974   1.979   5.119  15.765 -0.9460 -0.2477 -2.2396
  143DOPC  C21516975   2.057   5.048  15.959 -0.2098  0.2110 -0.8825
  143DOPC  H15R16976   2.031   5.144  16.008  1.2097 -0.7800  2.1229
  143DOPC  H15S16977   2.164   5.053  15.930  0.0585  1.6741  0.2187
  143DOPC  C21616978   2.034   4.947  16.073 -0.5967 -0.5099 -0.0635
  143DOPC  H16R16979   2.092   5.002  16.151  2.7263 -1.3577 -1.7185
  143DOPC  H16S16980   2.103   4.864  16.048 -0.1804  0.2865 -1.7506
  143DOPC  C21716981   1.897   4.916  16.102 -0.7881  0.1475  0.0873
  143DOPC  H17R16982   1.848   4.860  16.020  0.2932 -2.7402  1.2819
  143DOPC  H17S16983   1.840   5.008  16.127  0.3739  0.4479  1.7714
  143DOPC  C21816984   1.879   4.825  16.233 -0.4580 -0.0941  1.1101
  143DOPC  H18R16985   1.774   4.793  16.253 -0.3482 -1.5799 -0.3858
  143DOPC  H18S16986   1.911   4.886  16.320  1.4426  0.6877 -0.0858
  143DOPC  H18T16987   1.947   4.739  16.215  1.1887  0.7033  3.0817
  143DOPC   C3316988   1.852   5.464  16.179 -0.2732 -0.0992 -0.2541
  143DOPC   H3X16989   1.929   5.528  16.226  0.8506  0.7776 -3.0808
  143DOPC   H3Y16990   1.760   5.526  16.184 -0.4320 -0.3861  0.6930
  143DOPC   C3416991   1.893   5.435  16.040  0.8815 -0.4648 -0.3940
  143DOPC   H4X16992   1.819   5.366  15.994  0.3214  0.1352 -0.4116
  143DOPC   H4Y16993   1.984   5.372  16.038  0.9180 -0.4121 -1.7785
  143DOPC   C3516994   1.915   5.558  15.946 -0.7026 -0.1773  0.0887
  143DOPC   H5X16995   2.014   5.603  15.965 -0.9409 -0.2301  1.6044
  143DOPC   H5Y16996   1.837   5.635  15.968  1.7886  2.5948 -0.1668
  143DOPC   C3616997   1.904   5.527  15.796 -0.0118  0.3570  0.1085
  143DOPC   H6X16998   1.798   5.514  15.767  0.1424  1.7084 -1.1902
  143DOPC   H6Y16999   1.930   5.615  15.733 -1.2270  0.5764 -0.1048
  143DOPC   C3717000   1.988   5.403  15.751  0.0223  0.0652  0.0646
  143DOPC   H7X17001   2.096   5.417  15.774 -0.0878 -1.4504  1.7080
  143DOPC   H7Y17002   1.953   5.310  15.800  0.3428 -0.8084 -1.3140
  143DOPC   C3817003   1.985   5.379  15.592  0.2842 -0.7000  0.4747
  143DOPC   H8X17004   2.054   5.295  15.565  1.2026  0.2831 -0.3368
  143DOPC   H8Y17005   2.038   5.470  15.556  1.7790 -1.6775  0.1108
  143DOPC   C3917006   1.856   5.365  15.512  0.6480 -0.2770  0.7638
  143DOPC   H9X17007   1.777   5.302  15.557 -0.5295 -0.2816 -1.1872
  143DOPC  C31017008   1.821   5.425  15.398 -1.0131  0.5874  0.5567
  143DOPC  H10X17009   1.736   5.391  15.337 -1.3588  0.6864  0.9773
  143DOPC  C31117010   1.903   5.525  15.319 -0.4717 -0.3663 -0.2192
  143DOPC  H11X17011   1.991   5.568  15.370 -0.9119  0.4969 -0.1660
  143DOPC  H11Y17012   1.844   5.618  15.303 -2.5294 -0.9580  3.0946
  143DOPC  C31217013   1.957   5.447  15.192 -0.0620 -0.4210  0.0785
  143DOPC  H12X17014   2.023   5.517  15.137  0.5506  0.0167  1.3303
  143DOPC  H12Y17015   1.881   5.425  15.114  0.4396 -0.0415 -0.5300
  143DOPC  C31317016   2.025   5.312  15.215  0.7631  0.2880 -0.1953
  143DOPC  H13X17017   2.099   5.320  15.298  2.9332 -0.4163 -1.9604
  143DOPC  H13Y17018   1.946   5.236  15.230 -1.9142  2.2188 -3.2360
  143DOPC  C31417019   2.112   5.270  15.098  0.2079  0.4060  0.1350
  143DOPC  H14X17020   2.052   5.215  15.022 -0.4028 -0.5751  1.2969
  143DOPC  H14Y17021   2.146   5.367  15.056  2.3687  0.9333  2.8242
  143DOPC  C31517022   2.243   5.188  15.136 -0.1955 -0.4218  0.4226
  143DOPC  H15X17023   2.192   5.095  15.168 -0.3326 -0.9602 -1.2603
  143DOPC  H15Y17024   2.304   5.236  15.216 -0.8392  0.9123  0.1560
  143DOPC  C31617025   2.324   5.151  15.012 -0.1974 -0.2152  0.0524
  143DOPC  H16X17026   2.240   5.123  14.945 -1.0547  1.4840  0.3790
  143DOPC  H16Y17027   2.377   5.241  14.975  0.8942 -0.0957  1.7808
  143DOPC  C31717028   2.419   5.044  15.057  1.0294  0.0001  0.0504
  143DOPC  H17X17029   2.497   5.096  15.117  1.4148  0.5326 -0.8860
  143DOPC  H17Y17030   2.361   4.972  15.119  0.0441 -0.0293 -0.8781
  143DOPC  C31817031   2.481   4.960  14.943 -0.4377  0.6127 -0.0372
  143DOPC  H18X17032   2.408   4.940  14.862 -0.2880 -1.9926  0.3955
  143DOPC  H18Y17033   2.568   5.012  14.896 -0.8809 -0.2831 -1.9592
  143DOPC  H18Z17034   2.512   4.859  14.977  0.2880  0.9361  0.2926
  144DOPC     N17035   3.004   3.082  17.210 -0.3131  0.2720 -0.3628
  144DOPC   C1217036   3.014   2.995  17.090  0.3627 -0.8733  0.0093
  144DOPC  H12A17037   3.077   2.908  17.103 -1.2434 -3.0566 -4.5191
  144DOPC  H12B17038   3.070   3.060  17.025 -1.1827  2.0142  1.3830
  144DOPC   C1317039   2.951   2.994  17.321  0.7073 -0.0352 -0.5760
  144DOPC  H13A17040   2.859   2.945  17.291  1.2703 -2.8020  1.8376
  144DOPC  H13B17041   3.024   2.924  17.357  0.7153  1.1015  1.8118
  144DOPC  H13C17042   2.929   3.056  17.406  0.1232  0.4151 -1.0434
  144DOPC   C1417043   2.903   3.193  17.192  0.2488  0.4453 -0.0789
  144DOPC  H14A17044   2.914   3.259  17.107 -0.7985 -1.7509 -2.0267
  144DOPC  H14B17045   2.804   3.152  17.182  0.4258 -0.1665  0.5378
  144DOPC  H14C17046   2.891   3.257  17.278 -3.0972  1.4292 -1.1254
  144DOPC   C1517047   3.131   3.141  17.247 -0.3427  0.7671  0.0486
  144DOPC  H15A17048   3.117   3.217  17.322  0.1175  1.1341 -0.2342
  144DOPC  H15B17049   3.168   3.207  17.170 -0.2781  0.3546 -0.2771
  144DOPC  H15C17050   3.217   3.079  17.272 -1.8205 -1.5230 -0.2478
  144DOPC   C1117051   2.891   2.946  17.019  0.4397 -0.3342  0.6147
  144DOPC  H11A17052   2.812   3.024  17.008 -0.1655 -0.7164  2.0294
  144DOPC  H11B17053   2.934   2.928  16.918  0.3847  0.1640  0.5002
  144DOPC     P17054   2.896   2.695  17.071  0.0463 -0.0869  0.0874
  144DOPC   O1317055   2.810   2.602  17.148 -0.3780 -0.1437 -0.2285
  144DOPC   O1417056   3.039   2.706  17.108 -0.0664  0.8331  0.3817
  144DOPC   O1217057   2.831   2.834  17.076 -0.4147  0.1404  0.2871
  144DOPC   O1117058   2.886   2.668  16.922  0.3616 -0.2297  0.4243
  144DOPC    C117059   2.757   2.653  16.851 -0.3075  0.5775  0.0965
  144DOPC    HA17060   2.707   2.751  16.834  0.3189  0.8089 -0.4678
  144DOPC    HB17061   2.686   2.591  16.910  1.7375  0.5138  2.6486
  144DOPC    C217062   2.775   2.573  16.714  0.0347 -0.0136  0.4382
  144DOPC    HS17063   2.683   2.543  16.660  0.5561  1.7642 -1.5932
  144DOPC   O2117064   2.877   2.474  16.721  0.4831 -0.0557  0.0601
  144DOPC   C2117065   2.825   2.359  16.765  0.8700 -0.0682 -0.4351
  144DOPC   O2217066   2.706   2.339  16.793  0.7064 -0.1837  0.1373
  144DOPC   C2217067   2.928   2.254  16.765  0.4851  0.0806 -0.5924
  144DOPC   H2R17068   2.969   2.236  16.867  2.5371  0.1083 -1.3661
  144DOPC   H2S17069   3.011   2.300  16.709 -1.3386  5.1964  0.3549
  144DOPC    C317070   2.834   2.682  16.619  0.0426  0.5819  0.5261
  144DOPC    HX17071   2.895   2.633  16.540 -0.7540  0.2355  0.1151
  144DOPC    HY17072   2.912   2.744  16.669  0.6109 -0.2487  0.6968
  144DOPC   O3117073   2.728   2.769  16.563  0.4055 -0.8969 -0.9294
  144DOPC   C3117074   2.762   2.901  16.557  0.1707 -0.3959 -0.0102
  144DOPC   O3217075   2.868   2.948  16.590  0.2064  0.7380 -0.4950
  144DOPC   C3217076   2.647   2.974  16.490 -0.2970 -0.1844 -0.2591
  144DOPC   H2X17077   2.578   2.898  16.449 -1.3475  0.1401  0.8814
  144DOPC   H2Y17078   2.605   3.039  16.570  4.1429  1.4611  1.0432
  144DOPC   C2317079   2.879   2.123  16.694  0.1388  0.0866 -0.0724
  144DOPC   H3R17080   2.781   2.096  16.737 -0.5514 -1.3711 -2.3981
  144DOPC   H3S17081   2.949   2.037  16.701 -0.7628 -0.5328  3.0353
  144DOPC   C2417082   2.866   2.156  16.539  0.3250  0.5295 -0.0128
  144DOPC   H4R17083   2.954   2.213  16.502  0.1905 -0.7891 -2.5444
  144DOPC   H4S17084   2.776   2.219  16.522 -0.4091 -0.6501 -0.6094
  144DOPC   C2517085   2.864   2.022  16.467 -0.4059 -0.6077 -0.4485
  144DOPC   H5R17086   2.774   1.965  16.502 -0.9560 -0.0866 -0.9969
  144DOPC   H5S17087   2.949   1.955  16.493 -1.0404 -0.8913  1.0033
  144DOPC   C2617088   2.855   2.042  16.315  0.3559 -0.5026  0.4089
  144DOPC   H6R17089   2.885   1.951  16.260 -0.0631  0.1618 -0.9739
  144DOPC   H6S17090   2.931   2.116  16.280 -0.8903  0.5798 -0.0820
  144DOPC   C2717091   2.716   2.087  16.265 -0.2819  0.2948  0.5452
  144DOPC   H7R17092   2.703   2.194  16.294  1.7005  0.0744  2.5014
  144DOPC   H7S17093   2.631   2.037  16.316  0.4510 -1.0427  0.4793
  144DOPC   C2817094   2.691   2.073  16.113 -0.3542  0.2467 -0.6730
  144DOPC   H8R17095   2.765   2.135  16.058  0.1791  1.1175  0.9600
  144DOPC   H8S17096   2.590   2.106  16.080 -0.9045 -2.1607 -1.5843
  144DOPC   C2917097   2.700   1.932  16.064 -0.4649 -0.0543  0.6174
  144DOPC   H9R17098   2.802   1.895  16.046 -0.6254 -0.6248  0.8742
  144DOPC  C21017099   2.596   1.852  16.030  0.4781  0.3441  1.0844
  144DOPC  H10R17100   2.615   1.749  15.998 -0.6856  0.4993 -0.1857
  144DOPC  C21117101   2.443   1.881  16.038 -0.1129  0.4940 -0.3134
  144DOPC  H11R17102   2.426   1.931  16.136  1.4217 -0.8328  0.7063
  144DOPC  H11S17103   2.379   1.790  16.039  0.5405  0.0199 -0.4722
  144DOPC  C21217104   2.390   1.964  15.922  0.6882  0.1445  0.2990
  144DOPC  H12R17105   2.467   2.037  15.889  0.6833  0.1905  0.3892
  144DOPC  H12S17106   2.295   2.010  15.957  0.5551  1.5648 -1.7320
  144DOPC  C21317107   2.338   1.888  15.808  0.0244  0.6234 -0.2239
  144DOPC  H13R17108   2.251   1.821  15.826  0.3947  0.5402  1.3931
  144DOPC  H13S17109   2.423   1.835  15.759 -0.0816  0.1382  0.1122
  144DOPC  C21417110   2.286   1.977  15.703  0.0341 -0.1262  0.5514
  144DOPC  H14R17111   2.362   2.042  15.654 -2.9759  1.3392 -2.7414
  144DOPC  H14S17112   2.208   2.041  15.750 -1.0457  0.2843 -1.6256
  144DOPC  C21517113   2.222   1.912  15.581  0.2749 -0.4433 -0.1972
  144DOPC  H15R17114   2.144   1.841  15.616  0.6323 -0.3822  0.7699
  144DOPC  H15S17115   2.302   1.861  15.524  1.4029  2.2583 -1.2193
  144DOPC  C21617116   2.149   2.007  15.484  0.4250 -0.0046 -0.4344
  144DOPC  H16R17117   2.061   2.052  15.536  2.0736  1.4386  1.2699
  144DOPC  H16S17118   2.118   1.934  15.407  3.0902 -0.5637 -1.0446
  144DOPC  C21717119   2.239   2.112  15.407 -0.1279  0.4550 -0.8827
  144DOPC  H17R17120   2.185   2.129  15.312 -0.3708 -0.1861 -0.8678
  144DOPC  H17S17121   2.340   2.073  15.384  1.1571  2.5148  0.8732
  144DOPC  C21817122   2.255   2.248  15.476  0.5332  0.2698 -0.5410
  144DOPC  H18R17123   2.162   2.309  15.473  1.6365  1.9897 -1.3785
  144DOPC  H18S17124   2.330   2.304  15.416 -0.5083  2.0174 -0.2988
  144DOPC  H18T17125   2.287   2.233  15.582  0.3701  0.6781 -0.4307
  144DOPC   C3317126   2.692   3.070  16.368  0.1560  0.2089  0.2490
  144DOPC   H3X17127   2.777   3.126  16.411  0.7924 -2.0630  2.1615
  144DOPC   H3Y17128   2.607   3.131  16.330 -0.5874 -1.1574 -0.3730
  144DOPC   C3417129   2.722   3.000  16.231 -0.6268 -0.0580  0.2123
  144DOPC   H4X17130   2.636   2.944  16.188  0.0685  0.4026 -1.8743
  144DOPC   H4Y17131   2.809   2.932  16.249 -0.5174 -0.0705 -0.3375
  144DOPC   C3517132   2.765   3.097  16.121  0.5292  0.2570 -0.1882
  144DOPC   H5X17133   2.841   3.169  16.157  1.9522 -0.3004 -1.9700
  144DOPC   H5Y17134   2.665   3.146  16.116  0.7387  1.1758  2.7749
  144DOPC   C3617135   2.803   3.024  15.986 -0.1975 -0.3680  0.3128
  144DOPC   H6X17136   2.901   2.979  16.012 -0.2662 -0.0183  1.1967
  144DOPC   H6Y17137   2.722   2.952  15.960 -3.1522  2.5355  0.8517
  144DOPC   C3717138   2.845   3.118  15.872 -0.1138 -0.5042 -0.6130
  144DOPC   H7X17139   2.874   3.211  15.925  1.7724 -2.1910  1.5272
  144DOPC   H7Y17140   2.939   3.088  15.821  1.0877  0.3860  0.9834
  144DOPC   C3817141   2.724   3.138  15.780  0.3198 -0.0863 -0.3302
  144DOPC   H8X17142   2.631   3.170  15.831 -1.7019 -1.0402 -3.1604
  144DOPC   H8Y17143   2.694   3.039  15.740 -4.3351 -0.3269  2.8891
  144DOPC   C3917144   2.749   3.250  15.685 -0.7580  0.0829  0.1943
  144DOPC   H9X17145   2.746   3.351  15.729 -1.5484  0.8157 -1.4372
  144DOPC  C31017146   2.772   3.230  15.551  0.0191 -0.5668  0.1202
  144DOPC  H10X17147   2.786   3.317  15.485 -0.8946  0.7121  1.5435
  144DOPC  C31117148   2.784   3.098  15.483 -0.3645 -0.5593 -0.3114
  144DOPC  H11X17149   2.810   3.025  15.562 -0.8977  0.6782  1.0663
  144DOPC  H11Y17150   2.875   3.091  15.420  0.1061 -2.9138  0.5553
  144DOPC  C31217151   2.665   3.048  15.397 -0.8251 -0.2747  0.0289
  144DOPC  H12X17152   2.574   3.101  15.432 -0.9599 -1.0469  0.8938
  144DOPC  H12Y17153   2.655   2.939  15.416  0.2153  0.0251  2.7419
  144DOPC  C31317154   2.687   3.069  15.247  0.2284  0.8076 -0.9704
  144DOPC  H13X17155   2.694   3.177  15.221  1.5590  0.6374 -1.4196
  144DOPC  H13Y17156   2.782   3.018  15.218 -0.6687 -1.5949  0.0881
  144DOPC  C31417157   2.572   2.990  15.180  0.6709  0.0081  0.0405
  144DOPC  H14X17158   2.579   2.885  15.215 -1.0667 -0.4106 -0.7684
  144DOPC  H14Y17159   2.478   3.038  15.214  1.5003 -0.0907  2.7069
  144DOPC  C31517160   2.586   2.997  15.029  0.2973  0.5472 -0.6028
  144DOPC  H15X17161   2.523   2.919  14.981  1.1702 -2.5850  2.8502
  144DOPC  H15Y17162   2.691   2.982  14.996  0.8352 -0.3962  1.3728
  144DOPC  C31617163   2.535   3.130  14.980  0.1069 -0.0618 -0.2154
  144DOPC  H16X17164   2.426   3.133  15.003  0.0702  1.7299 -0.4807
  144DOPC  H16Y17165   2.585   3.214  15.034 -0.6965  0.5293 -0.3629
  144DOPC  C31717166   2.553   3.162  14.830  0.5978 -0.8313 -0.2733
  144DOPC  H17X17167   2.653   3.131  14.794  0.1931 -1.6054 -0.7737
  144DOPC  H17Y17168   2.477   3.092  14.789 -0.9505  0.8737 -0.4284
  144DOPC  C31817169   2.520   3.305  14.782  0.1764 -0.4850  0.4350
  144DOPC  H18X17170   2.587   3.380  14.831 -1.1011  0.6246  0.5532
  144DOPC  H18Y17171   2.533   3.324  14.674  0.6189 -2.4890  0.1139
  144DOPC  H18Z17172   2.417   3.340  14.806  0.9322  0.9500  1.8574
  145DOPC     N17173   2.981   5.605  17.098 -0.0728 -0.2886  0.7145
  145DOPC   C1217174   2.945   5.719  16.999  0.3608  0.2490 -0.1755
  145DOPC  H12A17175   2.839   5.742  17.004  0.5600  1.1474  0.2352
  145DOPC  H12B17176   2.964   5.686  16.898  1.1511 -1.1022  0.3948
  145DOPC   C1317177   2.892   5.492  17.078  0.2009  0.2078  0.1819
  145DOPC  H13A17178   2.790   5.517  17.105  0.4540  3.4415 -1.3510
  145DOPC  H13B17179   2.899   5.462  16.975  0.9477  2.7956 -0.6090
  145DOPC  H13C17180   2.920   5.414  17.146 -1.0763  0.8088  1.4551
  145DOPC   C1417181   2.968   5.667  17.237 -0.0395 -0.5321 -0.2252
  145DOPC  H14A17182   2.980   5.594  17.316  1.2428  1.7288  1.8133
  145DOPC  H14B17183   3.040   5.744  17.257  0.5157 -0.8217 -1.0692
  145DOPC  H14C17184   2.870   5.713  17.242  0.2077  0.0294 -0.5480
  145DOPC   C1517185   3.126   5.555  17.074  1.1901 -0.5596  0.4556
  145DOPC  H15A17186   3.190   5.640  17.092 -0.2882  0.4481  1.0737
  145DOPC  H15B17187   3.137   5.524  16.971  0.9955  0.0871  0.2404
  145DOPC  H15C17188   3.149   5.472  17.139 -1.8656 -1.0215  1.1160
  145DOPC   C1117189   3.034   5.849  16.995 -0.3137 -0.1384  0.4361
  145DOPC  H11A17190   2.980   5.920  16.930 -1.2457  0.7479  2.1084
  145DOPC  H11B17191   3.046   5.907  17.089  2.4759 -0.6436  0.5005
  145DOPC     P17192   3.192   5.789  16.801  0.1032  0.3275 -0.5115
  145DOPC   O1317193   3.134   5.657  16.767  1.0737 -0.4875  0.4728
  145DOPC   O1417194   3.339   5.802  16.783 -0.8727 -0.1823  0.4325
  145DOPC   O1217195   3.162   5.815  16.953 -0.3260  0.5872  0.3224
  145DOPC   O1117196   3.117   5.907  16.730 -0.2188 -0.1368 -0.1549
  145DOPC    C117197   3.037   5.886  16.610 -0.4335 -0.2486 -1.0529
  145DOPC    HA17198   2.975   5.978  16.603  0.1240  0.3452  1.1396
  145DOPC    HB17199   2.980   5.791  16.616  1.9259 -1.7586 -1.1056
  145DOPC    C217200   3.130   5.886  16.491  0.4166 -0.4863  0.1536
  145DOPC    HS17201   3.065   5.902  16.403  1.0472  1.0475 -0.0742
  145DOPC   O2117202   3.200   5.760  16.472 -0.3409 -0.4841  0.6014
  145DOPC   C2117203   3.123   5.657  16.444  0.4610 -0.1467  0.3619
  145DOPC   O2217204   3.003   5.665  16.415  0.1461 -0.2725 -0.1305
  145DOPC   C2217205   3.200   5.524  16.441  0.0351  0.5305  0.0728
  145DOPC   H2R17206   3.138   5.444  16.487  2.3595 -0.3334  1.9393
  145DOPC   H2S17207   3.283   5.538  16.513  0.2647  0.7504 -0.2315
  145DOPC    C317208   3.232   6.007  16.489  0.3569  0.6002  0.3815
  145DOPC    HX17209   3.301   6.017  16.575  0.1001  0.2268  0.6340
  145DOPC    HY17210   3.168   6.093  16.522  0.2007  0.6872 -0.1417
  145DOPC   O3117211   3.285   6.016  16.357  0.5329  0.1369  0.5743
  145DOPC   C3117212   3.410   5.982  16.351  0.5527 -0.3404  0.6513
  145DOPC   O3217213   3.487   5.963  16.445 -0.7090  1.1556 -0.1305
  145DOPC   C3217214   3.453   5.964  16.203  0.5642  0.2413  0.5908
  145DOPC   H2X17215   3.359   5.944  16.147  1.1138  0.3999 -0.4136
  145DOPC   H2Y17216   3.493   6.058  16.158  2.1903 -0.9806 -0.6827
  145DOPC   C2317217   3.266   5.490  16.310  0.2579 -0.0035 -0.0240
  145DOPC   H3R17218   3.350   5.559  16.288  0.4919 -0.4381 -0.5135
  145DOPC   H3S17219   3.198   5.495  16.221 -0.0365 -1.9670  0.0414
  145DOPC   C2417220   3.321   5.343  16.317  0.5589 -0.5471  0.6805
  145DOPC   H4R17221   3.227   5.285  16.328  0.0403  0.0384 -0.4849
  145DOPC   H4S17222   3.385   5.336  16.408  0.7499  0.7341  0.6679
  145DOPC   C2517223   3.390   5.299  16.190 -0.6396  0.1979 -0.7233
  145DOPC   H5R17224   3.428   5.200  16.223  0.8069  0.7185 -0.7751
  145DOPC   H5S17225   3.477   5.362  16.164 -0.1244  0.2535  0.9867
  145DOPC   C2617226   3.295   5.289  16.074 -0.2073  0.2939 -0.4812
  145DOPC   H6R17227   3.272   5.393  16.042 -0.0552  0.4402 -0.1163
  145DOPC   H6S17228   3.200   5.250  16.117  2.0513 -1.9031  2.9517
  145DOPC   C2717229   3.346   5.192  15.974  0.2499  0.3332  0.0482
  145DOPC   H7R17230   3.262   5.189  15.902 -0.4710  0.0095  0.8925
  145DOPC   H7S17231   3.366   5.098  16.029  1.4008 -1.0731 -2.5754
  145DOPC   C2817232   3.474   5.241  15.890  0.2540 -0.5705  0.1997
  145DOPC   H8R17233   3.556   5.270  15.958 -0.6292 -0.0130  1.0574
  145DOPC   H8S17234   3.434   5.326  15.830  0.7105 -1.6150 -1.6588
  145DOPC   C2917235   3.523   5.132  15.801  0.3313  0.3523 -0.2476
  145DOPC   H9R17236   3.589   5.060  15.851 -1.1748 -0.3944  0.7496
  145DOPC  C21017237   3.503   5.118  15.667 -0.0329  0.0207  0.0102
  145DOPC  H10R17238   3.532   5.026  15.614 -0.0164 -0.7759  1.3357
  145DOPC  C21117239   3.428   5.208  15.575  0.3293 -0.3925  0.3191
  145DOPC  H11R17240   3.384   5.292  15.634  0.8792 -0.5198  0.9213
  145DOPC  H11S17241   3.349   5.153  15.519 -0.8971  1.0398  0.5977
  145DOPC  C21217242   3.515   5.295  15.477 -0.7654  0.8584 -0.2112
  145DOPC  H12R17243   3.580   5.234  15.412 -0.7094  1.3941 -0.6666
  145DOPC  H12S17244   3.577   5.359  15.544 -0.5094 -0.8331  1.2421
  145DOPC  C21317245   3.429   5.385  15.386  0.4292  0.3010  0.2136
  145DOPC  H13R17246   3.486   5.478  15.364  2.4144 -1.1894 -1.3040
  145DOPC  H13S17247   3.332   5.410  15.435  0.6471  0.1782  0.7160
  145DOPC  C21417248   3.389   5.311  15.253  0.2474  0.3519 -0.2639
  145DOPC  H14R17249   3.338   5.215  15.278  0.1578  0.3115 -0.6043
  145DOPC  H14S17250   3.481   5.283  15.198  0.6960 -0.4731  0.8542
  145DOPC  C21517251   3.325   5.388  15.141 -0.0245  0.3471  0.1565
  145DOPC  H15R17252   3.373   5.488  15.133  3.6258 -1.1439  1.3376
  145DOPC  H15S17253   3.216   5.396  15.162 -0.4651 -3.3426 -0.1131
  145DOPC  C21617254   3.318   5.318  15.002  0.7998 -0.1657  0.2211
  145DOPC  H16R17255   3.423   5.316  14.968  1.2005  1.2557  1.3102
  145DOPC  H16S17256   3.249   5.369  14.930 -0.4193 -1.5852  0.3231
  145DOPC  C21717257   3.264   5.172  15.002 -0.0533  0.8228  0.4341
  145DOPC  H17R17258   3.158   5.175  15.035 -0.7141 -1.5512 -1.1984
  145DOPC  H17S17259   3.322   5.109  15.074 -0.8327  1.3272  1.5409
  145DOPC  C21817260   3.276   5.114  14.859 -0.2855  0.5459  0.5709
  145DOPC  H18R17261   3.209   5.026  14.849  0.4278 -0.3717  3.0911
  145DOPC  H18S17262   3.381   5.078  14.848 -0.5455 -1.6854  3.9061
  145DOPC  H18T17263   3.253   5.187  14.779 -2.6722 -0.5975  0.1402
  145DOPC   C3317264   3.556   5.853  16.185  0.2012 -0.2550  0.5200
  145DOPC   H3X17265   3.524   5.761  16.238 -0.9230  0.0446  0.3782
  145DOPC   H3Y17266   3.653   5.880  16.232  1.8635  2.4050 -3.8179
  145DOPC   C3417267   3.591   5.818  16.040  1.1399 -0.3969  0.7332
  145DOPC   H4X17268   3.690   5.767  16.040  1.6209  0.5033  0.1799
  145DOPC   H4Y17269   3.603   5.906  15.972 -0.7520  0.7442  1.8105
  145DOPC   C3517270   3.495   5.721  15.981 -0.2895  0.3229  0.3749
  145DOPC   H5X17271   3.393   5.762  16.000 -0.3960  0.1441  0.2008
  145DOPC   H5Y17272   3.518   5.626  16.033  2.5364  0.6630 -0.1247
  145DOPC   C3617273   3.512   5.704  15.827 -0.1105 -0.3955  0.1554
  145DOPC   H6X17274   3.428   5.638  15.797  0.2822 -0.0922 -1.7176
  145DOPC   H6Y17275   3.486   5.801  15.779 -3.4322 -0.4927  1.4844
  145DOPC   C3717276   3.648   5.650  15.787 -0.0880  0.2197  0.2442
  145DOPC   H7X17277   3.724   5.714  15.838  1.3973  0.5580 -2.2578
  145DOPC   H7Y17278   3.663   5.544  15.820  1.8451  0.1979 -0.5567
  145DOPC   C3817279   3.670   5.645  15.634 -0.2023  0.0379 -0.1563
  145DOPC   H8X17280   3.593   5.590  15.575 -0.7813  0.0429  0.5870
  145DOPC   H8Y17281   3.761   5.586  15.609 -0.3956 -0.4242  0.2082
  145DOPC   C3917282   3.678   5.784  15.574  0.0947 -0.6133  0.4998
  145DOPC   H9X17283   3.772   5.840  15.591  1.1630 -1.5642 -1.8635
  145DOPC  C31017284   3.584   5.852  15.503 -0.3199 -0.3962  0.5461
  145DOPC  H10X17285   3.598   5.959  15.481  0.7371 -0.3521  1.3484
  145DOPC  C31117286   3.446   5.810  15.473  0.4564  0.8119 -0.0468
  145DOPC  H11X17287   3.377   5.870  15.537  1.8516  0.4905  1.8436
  145DOPC  H11Y17288   3.426   5.705  15.504 -1.1721  0.4067 -2.2471
  145DOPC  C31217289   3.402   5.813  15.322  0.6077  0.4030 -0.2590
  145DOPC  H12X17290   3.466   5.743  15.264  1.2148 -0.1452  1.0470
  145DOPC  H12Y17291   3.407   5.915  15.278 -0.9554  0.5491 -0.1643
  145DOPC  C31317292   3.263   5.753  15.298  0.5529  0.1969 -0.1127
  145DOPC  H13X17293   3.270   5.647  15.329 -1.5814  0.7491  2.6302
  145DOPC  H13Y17294   3.186   5.802  15.361  1.9603  0.4181  1.5146
  145DOPC  C31417295   3.222   5.745  15.151  0.2725 -0.3844 -0.5061
  145DOPC  H14X17296   3.206   5.847  15.110 -3.5616  0.2043  1.9996
  145DOPC  H14Y17297   3.304   5.702  15.089  2.0783 -0.8264  2.0163
  145DOPC  C31517298   3.091   5.673  15.133  0.2242 -0.3433  0.2360
  145DOPC  H15X17299   3.015   5.745  15.171 -0.8985 -1.0846 -0.5382
  145DOPC  H15Y17300   3.062   5.582  15.189 -1.3845 -0.5816 -0.9052
  145DOPC  C31617301   3.071   5.656  14.982 -0.4124  0.2207 -0.1605
  145DOPC  H16X17302   3.114   5.744  14.930  1.7161 -2.0008 -2.4444
  145DOPC  H16Y17303   3.133   5.576  14.935  0.4485  0.8294 -0.0686
  145DOPC  C31717304   2.924   5.644  14.949  0.6389  0.0563  0.0147
  145DOPC  H17X17305   2.872   5.568  15.012  1.0504 -1.4929 -1.4452
  145DOPC  H17Y17306   2.866   5.738  14.965 -0.8160 -1.0466  1.5607
  145DOPC  C31817307   2.907   5.604  14.799 -0.4671 -0.2929 -0.1039
  145DOPC  H18X17308   2.972   5.521  14.764  0.2880  0.4861 -0.5866
  145DOPC  H18Y17309   2.803   5.569  14.782  0.1466 -2.5904  0.5539
  145DOPC  H18Z17310   2.928   5.691  14.733  1.8093 -1.0129 -0.3999
  146DOPC     N17311   5.088   3.632  17.067  0.2941  0.4052  0.9736
  146DOPC   C1217312   5.165   3.662  16.936  0.0083  0.2843  0.1143
  146DOPC  H12A17313   5.106   3.633  16.850  0.1418 -2.9822  0.9995
  146DOPC  H12B17314   5.256   3.603  16.935 -0.1577 -0.0431  1.8363
  146DOPC   C1317315   5.094   3.482  17.098  0.0959 -0.6922 -0.2765
  146DOPC  H13A17316   5.192   3.444  17.125  0.4000 -0.3330 -0.8569
  146DOPC  H13B17317   5.034   3.461  17.185  1.1737 -0.6033  0.5189
  146DOPC  H13C17318   5.038   3.428  17.023 -1.4355 -1.6872  1.5070
  146DOPC   C1417319   4.941   3.656  17.046 -0.4491 -0.5741 -0.1854
  146DOPC  H14A17320   4.884   3.641  17.136  0.8656  0.1350  0.8066
  146DOPC  H14B17321   4.936   3.761  17.021  0.9320  0.0514  1.9155
  146DOPC  H14C17322   4.911   3.599  16.959  0.4314 -0.0437 -0.8700
  146DOPC   C1517323   5.136   3.724  17.176 -0.3689  0.4866  0.5031
  146DOPC  H15A17324   5.070   3.702  17.259 -0.1984 -0.0927  0.4929
  146DOPC  H15B17325   5.116   3.825  17.144  1.3081  1.1117  1.2764
  146DOPC  H15C17326   5.242   3.716  17.196 -0.1140  0.9065 -0.6125
  146DOPC   C1117327   5.219   3.806  16.921  0.0241  0.6261 -0.1881
  146DOPC  H11A17328   5.293   3.831  17.000 -1.7764  3.3517  0.7890
  146DOPC  H11B17329   5.280   3.798  16.828 -0.3977  0.2508 -0.4367
  146DOPC     P17330   5.036   3.949  16.786 -0.0628  0.2072 -0.2303
  146DOPC   O1317331   5.070   4.084  16.746 -0.3515  0.2661 -0.4809
  146DOPC   O1417332   4.900   3.916  16.819 -0.0737 -0.7145 -0.6525
  146DOPC   O1217333   5.124   3.909  16.920  0.5115  0.2435  0.3037
  146DOPC   O1117334   5.100   3.848  16.682 -0.0387  0.0906  0.0613
  146DOPC    C117335   5.191   3.890  16.583  0.7483 -0.0882  0.1985
  146DOPC    HA17336   5.228   3.794  16.543  0.6425 -1.0030  2.1921
  146DOPC    HB17337   5.275   3.951  16.622 -0.1280  1.5775 -0.4142
  146DOPC    C217338   5.120   3.951  16.460  0.1165  0.3965  0.6111
  146DOPC    HS17339   5.098   4.054  16.494  2.5571  1.0426  0.4107
  146DOPC   O2117340   5.005   3.866  16.432  0.2888 -0.4622  0.1986
  146DOPC   C2117341   4.885   3.923  16.433 -0.3411  1.2912  0.4992
  146DOPC   O2217342   4.867   4.040  16.452 -0.0719 -0.2112  0.1462
  146DOPC   C2217343   4.780   3.819  16.407 -0.5714 -0.1386  0.1844
  146DOPC   H2R17344   4.709   3.822  16.493  1.4109 -1.3555  1.9669
  146DOPC   H2S17345   4.811   3.713  16.399 -1.0808 -0.1960 -1.6055
  146DOPC    C317346   5.210   3.965  16.329 -0.1129  0.1795 -0.3381
  146DOPC    HX17347   5.234   3.863  16.294 -0.9570 -0.7276  1.5447
  146DOPC    HY17348   5.311   4.007  16.348 -0.8193  2.4157 -1.1722
  146DOPC   O3117349   5.152   4.045  16.221 -0.5582  1.4010 -0.0564
  146DOPC   C3117350   5.162   4.175  16.241  0.1147 -0.1029 -0.6980
  146DOPC   O3217351   5.229   4.223  16.333 -0.5018  0.0358 -0.4980
  146DOPC   C3217352   5.088   4.236  16.126  0.2073  0.2809  0.2081
  146DOPC   H2X17353   5.148   4.316  16.077  0.8306 -0.0646  0.3924
  146DOPC   H2Y17354   5.070   4.161  16.046  1.4681  2.4972 -2.3318
  146DOPC   C2317355   4.695   3.870  16.281  0.0761  0.1958 -0.3957
  146DOPC   H3R17356   4.656   3.972  16.304 -1.9971 -0.2461 -1.7101
  146DOPC   H3S17357   4.613   3.796  16.268  0.6808 -0.4828 -0.4137
  146DOPC   C2417358   4.766   3.874  16.154  0.1842 -0.0349  0.7564
  146DOPC   H4R17359   4.823   3.782  16.126  2.0995  1.0210  1.0130
  146DOPC   H4S17360   4.847   3.950  16.151  0.8270 -0.7133  0.4237
  146DOPC   C2517361   4.678   3.902  16.033  0.1794 -0.6803 -0.2422
  146DOPC   H5R17362   4.612   3.987  16.062 -1.5501 -2.2483  0.6659
  146DOPC   H5S17363   4.616   3.816  15.997 -2.0814  0.7484  0.0158
  146DOPC   C2617364   4.758   3.949  15.913  0.5127  0.1842  0.0512
  146DOPC   H6R17365   4.814   3.867  15.863  0.0973 -1.0270  1.5220
  146DOPC   H6S17366   4.831   4.025  15.949  0.1419 -0.4410  2.3052
  146DOPC   C2717367   4.661   4.015  15.811 -0.5258  0.3043 -0.3116
  146DOPC   H7R17368   4.606   4.100  15.856  1.4296  1.0783  0.7637
  146DOPC   H7S17369   4.582   3.945  15.778 -0.2991  0.8748 -2.1367
  146DOPC   C2817370   4.730   4.071  15.683  0.6240 -0.1466  0.3139
  146DOPC   H8R17371   4.806   4.148  15.707 -1.0946  1.8848 -0.4692
  146DOPC   H8S17372   4.654   4.138  15.637  1.5821 -1.1861 -3.0462
  146DOPC   C2917373   4.778   3.970  15.580 -0.2033 -0.3523 -0.6630
  146DOPC   H9R17374   4.885   3.948  15.592 -0.2883 -0.1390  0.5579
  146DOPC  C21017375   4.697   3.905  15.500 -0.1141  0.1449  0.6031
  146DOPC  H10R17376   4.739   3.825  15.437 -3.0063 -1.4144  0.4850
  146DOPC  C21117377   4.552   3.918  15.489 -0.0166  0.3483 -0.1417
  146DOPC  H11R17378   4.520   3.947  15.387 -1.5289  0.3242  0.3022
  146DOPC  H11S17379   4.517   4.000  15.554  1.6716  0.7290  0.3519
  146DOPC  C21217380   4.470   3.791  15.531 -0.0637 -0.4445 -0.4342
  146DOPC  H12R17381   4.473   3.777  15.641  0.2062 -1.3932 -0.5515
  146DOPC  H12S17382   4.521   3.700  15.493 -1.9472 -1.0025 -1.8056
  146DOPC  C21317383   4.321   3.780  15.479  0.1386 -0.6083 -0.2691
  146DOPC  H13R17384   4.270   3.878  15.493  0.6814 -0.3972  0.2670
  146DOPC  H13S17385   4.266   3.706  15.541 -0.2919 -2.4666 -2.7232
  146DOPC  C21417386   4.315   3.744  15.329  0.3489  0.0973 -0.2553
  146DOPC  H14R17387   4.358   3.646  15.300 -4.2433 -1.7198 -1.9115
  146DOPC  H14S17388   4.381   3.811  15.270 -1.5391  2.6729  0.3377
  146DOPC  C21517389   4.177   3.760  15.260  0.0802 -0.4151 -0.0027
  146DOPC  H15R17390   4.196   3.781  15.153 -0.1434  3.3690  0.5726
  146DOPC  H15S17391   4.122   3.847  15.300 -3.7062 -2.3064 -0.6812
  146DOPC  C21617392   4.087   3.640  15.266  0.6766  0.9131 -0.2130
  146DOPC  H16R17393   4.079   3.605  15.371 -1.2086  3.2300  0.5168
  146DOPC  H16S17394   4.125   3.556  15.204  0.5071  1.1790 -0.6792
  146DOPC  C21717395   3.943   3.678  15.215 -0.6830 -0.1215 -0.2210
  146DOPC  H17R17396   3.953   3.717  15.112  0.7118  0.0948 -0.0224
  146DOPC  H17S17397   3.894   3.755  15.279  0.2855  0.4732 -0.1789
  146DOPC  C21817398   3.857   3.553  15.210  0.7959 -0.4729  0.2231
  146DOPC  H18R17399   3.867   3.491  15.301 -0.9013 -0.0700  0.7152
  146DOPC  H18S17400   3.894   3.483  15.132  0.0356  0.5053 -1.0573
  146DOPC  H18T17401   3.750   3.578  15.199  1.1371  0.5355 -1.2204
  146DOPC   C3317402   4.955   4.296  16.175 -0.1770  0.2562 -0.4480
  146DOPC   H3X17403   4.958   4.399  16.216 -1.8817  0.2304 -0.1935
  146DOPC   H3Y17404   4.909   4.243  16.261 -2.1545 -2.1094 -2.7898
  146DOPC   C3417405   4.847   4.295  16.065  0.1876  0.2468  0.3900
  146DOPC   H4X17406   4.759   4.347  16.107  0.5625  0.0757  1.4209
  146DOPC   H4Y17407   4.815   4.189  16.049 -0.2135  0.1679  1.6430
  146DOPC   C3517408   4.898   4.355  15.934  0.2534 -0.2202 -0.1341
  146DOPC   H5X17409   4.949   4.277  15.874 -1.0994 -2.0052  0.9257
  146DOPC   H5Y17410   4.960   4.442  15.961 -3.0909  1.8987  1.4140
  146DOPC   C3617411   4.792   4.438  15.857  0.1623 -0.1127  0.0457
  146DOPC   H6X17412   4.704   4.377  15.827  1.4637 -1.4555 -1.2317
  146DOPC   H6Y17413   4.763   4.513  15.933  2.5565  0.2583  0.6901
  146DOPC   C3717414   4.843   4.524  15.737  0.4669  0.7352  0.3394
  146DOPC   H7X17415   4.910   4.602  15.779  1.6144  0.4781 -0.9290
  146DOPC   H7Y17416   4.911   4.467  15.670  0.4242 -0.5373  1.3327
  146DOPC   C3817417   4.721   4.598  15.669  0.8254 -0.1956 -0.3136
  146DOPC   H8X17418   4.673   4.671  15.738 -0.6601  0.1092 -1.6139
  146DOPC   H8Y17419   4.637   4.525  15.658  0.8515 -0.2430 -0.1994
  146DOPC   C3917420   4.773   4.665  15.547 -0.0649  0.0098 -0.0329
  146DOPC   H9X17421   4.756   4.773  15.555 -0.6318 -0.0469 -0.4092
  146DOPC  C31017422   4.815   4.593  15.438 -0.0469 -0.5396 -0.3674
  146DOPC  H10X17423   4.856   4.648  15.352  3.4068  0.9764  2.0226
  146DOPC  C31117424   4.825   4.443  15.418 -0.1984  0.7865 -0.4773
  146DOPC  H11X17425   4.756   4.395  15.492 -0.1433  0.8415 -0.3898
  146DOPC  H11Y17426   4.929   4.411  15.442 -0.9549  0.2180  2.5043
  146DOPC  C31217427   4.768   4.395  15.284  0.5525 -0.6548 -0.0283
  146DOPC  H12X17428   4.834   4.437  15.206 -0.7692 -0.6407 -1.1879
  146DOPC  H12Y17429   4.665   4.437  15.275  1.1023  0.4980 -1.3930
  146DOPC  C31317430   4.763   4.245  15.259  1.0924  0.5708  0.0393
  146DOPC  H13X17431   4.706   4.202  15.344  1.3809  1.5098  0.7217
  146DOPC  H13Y17432   4.704   4.217  15.169  2.7887  1.0470 -1.2536
  146DOPC  C31417433   4.895   4.167  15.256  0.0370 -0.3918  0.4991
  146DOPC  H14X17434   4.936   4.182  15.359 -0.5320  1.3742  0.5119
  146DOPC  H14Y17435   4.887   4.057  15.247  0.3624 -0.3500 -0.4559
  146DOPC  C31517436   5.002   4.232  15.166  0.6679  0.0417 -0.6615
  146DOPC  H15X17437   5.027   4.337  15.193 -0.4608  0.4027 -0.9896
  146DOPC  H15Y17438   4.947   4.246  15.071 -0.5594  1.5376  0.2150
  146DOPC  C31617439   5.138   4.159  15.162  0.3525 -0.1358  0.2152
  146DOPC  H16X17440   5.116   4.059  15.119 -0.6445  0.0084  0.3527
  146DOPC  H16Y17441   5.201   4.211  15.087 -0.5033  0.0951 -0.3589
  146DOPC  C31717442   5.209   4.141  15.289 -0.6931 -0.0359  0.1121
  146DOPC  H17X17443   5.211   4.246  15.327 -1.1931 -0.3856  1.1275
  146DOPC  H17Y17444   5.159   4.078  15.365  3.8138 -2.1622  1.6566
  146DOPC  C31817445   5.346   4.085  15.272  0.4288 -0.0048  0.4725
  146DOPC  H18X17446   5.402   4.085  15.368  1.3857 -1.4292 -0.0653
  146DOPC  H18Y17447   5.336   3.981  15.235 -1.7818 -0.2224  1.4860
  146DOPC  H18Z17448   5.408   4.137  15.196  1.7191 -2.4107 -0.2415
  147DOPC     N17449   0.757   3.680  16.899  0.0494 -0.1803 -0.2771
  147DOPC   C1217450   0.803   3.812  16.843 -0.3936 -0.1313  0.7942
  147DOPC  H12A17451   0.835   3.879  16.922 -0.8625  3.8505 -2.1016
  147DOPC  H12B17452   0.710   3.856  16.811 -1.3187 -2.1249  0.6225
  147DOPC   C1317453   0.655   3.699  17.012 -0.0940 -0.3933 -0.2700
  147DOPC  H13A17454   0.621   3.601  17.043  0.3223 -1.4229 -2.8489
  147DOPC  H13B17455   0.701   3.743  17.100  0.1785  2.1035 -1.5852
  147DOPC  H13C17456   0.574   3.763  16.983 -0.6430 -1.3773 -0.9778
  147DOPC   C1417457   0.869   3.595  16.955 -0.6739  0.2361  0.5604
  147DOPC  H14A17458   0.946   3.567  16.885 -1.0177 -0.9100  0.6239
  147DOPC  H14B17459   0.921   3.647  17.035 -0.3881 -3.1849  2.7799
  147DOPC  H14C17460   0.830   3.500  16.987  0.4852 -0.2376  0.6326
  147DOPC   C1517461   0.694   3.591  16.802 -1.2650 -0.4860 -0.0776
  147DOPC  H15A17462   0.752   3.586  16.711  0.1511  0.8704  0.7080
  147DOPC  H15B17463   0.593   3.611  16.770 -0.5347  0.4193 -1.9905
  147DOPC  H15C17464   0.702   3.491  16.840  0.8492 -1.2359 -2.2495
  147DOPC   C1117465   0.905   3.807  16.724  0.5968 -0.0181  0.5594
  147DOPC  H11A17466   0.865   3.738  16.646 -0.5679 -1.1478  2.0998
  147DOPC  H11B17467   0.921   3.909  16.681  2.1195 -0.9646 -1.3008
  147DOPC     P17468   1.126   3.847  16.847 -0.3368 -0.0998  0.3794
  147DOPC   O1317469   1.242   3.782  16.902 -0.0078  0.5432  0.1427
  147DOPC   O1417470   1.049   3.919  16.950 -0.8139 -0.5985  0.9523
  147DOPC   O1217471   1.035   3.753  16.763 -0.4786 -0.7901  0.4765
  147DOPC   O1117472   1.179   3.965  16.745 -0.0774  0.1108  0.0072
  147DOPC    C117473   1.212   3.934  16.604  0.2706  0.8849  0.6524
  147DOPC    HA17474   1.207   4.015  16.529 -0.9867 -0.4159 -0.7592
  147DOPC    HB17475   1.130   3.871  16.562  0.2050  1.3080  0.1424
  147DOPC    C217476   1.355   3.866  16.595  0.2896 -0.1291  0.0987
  147DOPC    HS17477   1.361   3.776  16.660 -0.4564  0.8584  1.6129
  147DOPC   O2117478   1.450   3.967  16.630  0.7739  0.0464  0.0291
  147DOPC   C2117479   1.575   3.926  16.631  0.5846 -0.1654 -0.5415
  147DOPC   O2217480   1.610   3.812  16.658  1.1748 -0.3273 -0.2631
  147DOPC   C2217481   1.669   4.036  16.590  0.2632 -0.1039 -0.0533
  147DOPC   H2R17482   1.766   4.016  16.640  0.8847 -1.5448 -1.7037
  147DOPC   H2S17483   1.631   4.134  16.627 -1.8661 -1.8247  2.6524
  147DOPC    C317484   1.375   3.805  16.453  0.3821  0.1915 -0.4800
  147DOPC    HX17485   1.474   3.755  16.455  1.0430  1.4454 -1.0419
  147DOPC    HY17486   1.383   3.894  16.387  0.7047  1.2545  0.9357
  147DOPC   O3117487   1.268   3.706  16.417  0.0166 -1.2709  0.5669
  147DOPC   C3117488   1.303   3.582  16.386  0.3835  0.7694  0.3627
  147DOPC   O3217489   1.415   3.530  16.407  0.0742 -0.1474 -0.2465
  147DOPC   C3217490   1.189   3.503  16.320 -0.1632 -0.0098 -0.7971
  147DOPC   H2X17491   1.132   3.473  16.410 -0.3721 -0.9900 -1.2388
  147DOPC   H2Y17492   1.129   3.573  16.258 -2.4487 -1.6759 -0.6155
  147DOPC   C2317493   1.686   4.043  16.429 -0.1594 -1.2912  0.0057
  147DOPC   H3R17494   1.735   4.139  16.404 -2.7572 -0.0412 -0.6359
  147DOPC   H3S17495   1.584   4.052  16.384  0.2347 -0.9003 -0.8324
  147DOPC   C2417496   1.760   3.925  16.375 -0.3058 -0.2286  0.0326
  147DOPC   H4R17497   1.695   3.835  16.377 -0.0184 -0.4376  0.0861
  147DOPC   H4S17498   1.848   3.916  16.442 -1.3068 -0.3530  1.3624
  147DOPC   C2517499   1.805   3.944  16.231 -0.7620 -0.3578 -0.4148
  147DOPC   H5R17500   1.886   3.876  16.196 -2.1837 -2.0780 -0.5229
  147DOPC   H5S17501   1.852   4.044  16.232 -1.1761 -0.1575 -0.8861
  147DOPC   C2617502   1.698   3.948  16.122  0.1589  0.0456  0.2713
  147DOPC   H6R17503   1.748   4.001  16.038 -0.8020 -1.0835 -1.0709
  147DOPC   H6S17504   1.611   4.011  16.149 -0.2280 -0.2005 -0.3923
  147DOPC   C2717505   1.657   3.809  16.074 -0.0962  0.3446 -0.5785
  147DOPC   H7R17506   1.623   3.765  16.171 -0.3941  2.1543  0.1784
  147DOPC   H7S17507   1.745   3.748  16.044 -0.4840 -0.8274  0.5158
  147DOPC   C2817508   1.546   3.813  15.970  0.7515  0.2056  0.3250
  147DOPC   H8R17509   1.468   3.887  15.997 -0.4681 -0.8616 -0.1829
  147DOPC   H8S17510   1.489   3.718  15.965 -0.2138  0.7395  0.8739
  147DOPC   C2917511   1.584   3.837  15.827 -0.2606 -0.1171  0.0168
  147DOPC   H9R17512   1.570   3.941  15.794 -0.7507 -0.3969 -0.6626
  147DOPC  C21017513   1.623   3.743  15.735  1.0477 -0.7545 -0.0553
  147DOPC  H10R17514   1.635   3.772  15.630 -0.8553  1.9062  0.3470
  147DOPC  C21117515   1.634   3.596  15.762 -1.1067 -0.1329  0.3131
  147DOPC  H11R17516   1.586   3.564  15.857 -1.9409 -2.1559 -0.7490
  147DOPC  H11S17517   1.743   3.576  15.772 -0.7063  1.1834 -0.9345
  147DOPC  C21217518   1.597   3.510  15.640 -0.5921  0.0407  0.0550
  147DOPC  H12R17519   1.488   3.528  15.632 -0.3503  1.0175 -1.1952
  147DOPC  H12S17520   1.602   3.402  15.667 -1.4276 -0.2236 -0.8063
  147DOPC  C21317521   1.680   3.538  15.512 -0.7213  0.1791  0.1846
  147DOPC  H13R17522   1.789   3.522  15.528 -0.4421  0.0631 -1.5982
  147DOPC  H13S17523   1.673   3.643  15.475  3.0641  0.1949 -0.8727
  147DOPC  C21417524   1.641   3.452  15.400  0.2891 -0.3939  0.2611
  147DOPC  H14R17525   1.535   3.421  15.413  0.6566 -0.2815  5.3772
  147DOPC  H14S17526   1.689   3.352  15.404  0.5916 -0.2060  1.8993
  147DOPC  C21517527   1.680   3.514  15.270  0.1497  0.4694  0.4721
  147DOPC  H15R17528   1.776   3.569  15.280 -0.2619  0.9112  2.6468
  147DOPC  H15S17529   1.607   3.596  15.255 -0.4692 -0.4922 -2.2624
  147DOPC  C21617530   1.655   3.409  15.156 -0.1636 -0.2016 -0.1109
  147DOPC  H16R17531   1.553   3.366  15.172 -0.0081 -1.4062 -2.1105
  147DOPC  H16S17532   1.726   3.326  15.175  0.2215  0.4546  1.5895
  147DOPC  C21717533   1.659   3.476  15.021  0.3970  0.4082  0.1757
  147DOPC  H17R17534   1.766   3.495  14.999  0.7463 -3.0356 -2.0369
  147DOPC  H17S17535   1.607   3.574  15.023  0.5542  0.4889  2.0771
  147DOPC  C21817536   1.600   3.379  14.909 -0.3152  0.0725 -0.2298
  147DOPC  H18R17537   1.660   3.286  14.911 -1.7936 -0.8950  0.6296
  147DOPC  H18S17538   1.604   3.427  14.809 -0.3553  0.1648 -0.1868
  147DOPC  H18T17539   1.493   3.366  14.936  0.0168  1.2619  1.8553
  147DOPC   C3317540   1.239   3.381  16.243 -0.6326 -0.3695 -0.6305
  147DOPC   H3X17541   1.149   3.323  16.218 -1.7269  0.9561  0.0923
  147DOPC   H3Y17542   1.310   3.322  16.305 -0.3347  0.0722 -0.5433
  147DOPC   C3417543   1.306   3.424  16.113  0.0690  0.4708  0.0849
  147DOPC   H4X17544   1.411   3.455  16.128  0.2949  1.0842 -2.4155
  147DOPC   H4Y17545   1.262   3.516  16.070 -0.3553  1.8479  3.2088
  147DOPC   C3517546   1.295   3.312  16.010  0.1867 -0.8862  0.9594
  147DOPC   H5X17547   1.189   3.279  16.008 -0.1025 -0.0265  1.4968
  147DOPC   H5Y17548   1.354   3.225  16.045  1.4384 -0.4718 -0.0120
  147DOPC   C3617549   1.354   3.352  15.870  0.1343 -0.0173 -0.1550
  147DOPC   H6X17550   1.292   3.441  15.845 -0.8327 -1.1740 -1.9980
  147DOPC   H6Y17551   1.459   3.380  15.896  0.6882 -0.8475 -1.4124
  147DOPC   C3717552   1.366   3.245  15.761  0.0927  0.3394  0.0604
  147DOPC   H7X17553   1.474   3.231  15.737  0.3092 -3.0128  2.1993
  147DOPC   H7Y17554   1.344   3.152  15.819  1.0540 -0.9138 -1.4748
  147DOPC   C3817555   1.275   3.257  15.639 -0.1948  0.1290 -0.1949
  147DOPC   H8X17556   1.302   3.351  15.588  0.6520  0.2152  0.3993
  147DOPC   H8Y17557   1.172   3.280  15.674  0.0585  1.4534 -0.2987
  147DOPC   C3917558   1.278   3.139  15.541  0.5905 -0.7657  0.1186
  147DOPC   H9X17559   1.374   3.135  15.489 -1.2281  1.9272 -3.9443
  147DOPC  C31017560   1.176   3.064  15.494  0.0320 -0.3451 -0.8598
  147DOPC  H10X17561   1.211   2.994  15.417  0.0013 -0.8903 -0.3779
  147DOPC  C31117562   1.028   3.074  15.523 -0.6315 -0.4440  0.6063
  147DOPC  H11X17563   1.001   3.120  15.620 -0.9123 -1.8748  1.2238
  147DOPC  H11Y17564   0.995   2.969  15.510  0.5220 -0.6503 -1.1058
  147DOPC  C31217565   0.959   3.162  15.413  0.8303  0.4476  0.8331
  147DOPC  H12X17566   1.013   3.259  15.401  1.9726 -0.0393  1.8538
  147DOPC  H12Y17567   0.850   3.179  15.427  0.8716  0.3225  1.3236
  147DOPC  C31317568   0.970   3.095  15.271  0.6862  0.2003 -0.3945
  147DOPC  H13X17569   1.069   3.088  15.220  0.7389 -1.4344 -0.1054
  147DOPC  H13Y17570   0.944   2.988  15.284 -0.4054  0.4987 -0.0586
  147DOPC  C31417571   0.863   3.154  15.173 -0.3892 -0.2557  0.3645
  147DOPC  H14X17572   0.761   3.123  15.205 -1.5450  2.1546 -0.7516
  147DOPC  H14Y17573   0.866   3.265  15.180  3.3488 -0.0815 -1.7563
  147DOPC  C31517574   0.882   3.119  15.020  0.2537 -0.0265 -0.4229
  147DOPC  H15X17575   0.872   3.010  15.000 -0.7825  0.3689 -2.3080
  147DOPC  H15Y17576   0.988   3.138  14.991 -0.2175 -0.0911 -2.3663
  147DOPC  C31617577   0.786   3.197  14.929  0.1281 -0.2200  0.6598
  147DOPC  H16X17578   0.812   3.305  14.918 -1.0571 -0.1032 -1.5360
  147DOPC  H16Y17579   0.797   3.156  14.826  2.2827  0.2030  0.6865
  147DOPC  C31717580   0.631   3.192  14.955  0.6129  0.1238 -0.2318
  147DOPC  H17X17581   0.596   3.087  14.950  1.6500 -0.1827 -2.4661
  147DOPC  H17Y17582   0.620   3.227  15.060 -0.4419  1.6866 -0.8329
  147DOPC  C31817583   0.547   3.279  14.868  0.4976 -0.1134 -0.6121
  147DOPC  H18X17584   0.441   3.275  14.899  0.6801 -1.5010 -0.1003
  147DOPC  H18Y17585   0.583   3.384  14.858 -2.2391  0.8127 -1.5795
  147DOPC  H18Z17586   0.544   3.241  14.763  0.5569  3.3962 -2.0187
  148DOPC     N17587   1.343   5.737  17.207  0.5260  0.4013  1.5166
  148DOPC   C1217588   1.438   5.853  17.204 -0.0757  0.2232 -0.7548
  148DOPC  H12A17589   1.459   5.874  17.308 -0.2610 -1.5735 -0.3149
  148DOPC  H12B17590   1.388   5.942  17.170  0.0940  1.7687  2.6238
  148DOPC   C1317591   1.207   5.772  17.265  0.2852  0.0421  0.7420
  148DOPC  H13A17592   1.150   5.681  17.268  2.9710 -1.7712  0.4294
  148DOPC  H13B17593   1.214   5.818  17.362 -1.7944 -1.1154  1.4966
  148DOPC  H13C17594   1.156   5.844  17.203  0.3406  0.2555  0.9408
  148DOPC   C1417595   1.394   5.605  17.273  0.2348 -0.2128 -0.1156
  148DOPC  H14A17596   1.492   5.577  17.237  0.7154  1.3889 -0.1489
  148DOPC  H14B17597   1.400   5.616  17.380 -0.4426 -0.6808 -0.0318
  148DOPC  H14C17598   1.322   5.526  17.262 -0.0466  0.0988 -0.5271
  148DOPC   C1517599   1.313   5.691  17.070 -0.5505  0.2138  0.3406
  148DOPC  H15A17600   1.252   5.602  17.070 -1.6803  0.9677 -0.4529
  148DOPC  H15B17601   1.408   5.668  17.023 -0.4439  0.2998  0.5120
  148DOPC  H15C17602   1.268   5.774  17.018  0.6772  1.3833  1.0748
  148DOPC   C1117603   1.570   5.828  17.132  0.5779  0.9007 -0.0091
  148DOPC  H11A17604   1.556   5.814  17.022  2.1292  0.8845 -0.2288
  148DOPC  H11B17605   1.642   5.912  17.129 -0.1731  1.5356 -2.1843
  148DOPC     P17606   1.742   5.626  17.111 -0.4088  0.2583  0.4378
  148DOPC   O1317607   1.687   5.490  17.079 -0.3310 -0.3300  0.1780
  148DOPC   O1417608   1.866   5.628  17.194 -0.5202 -0.0478  0.1323
  148DOPC   O1217609   1.640   5.710  17.182  0.6932 -0.0830 -0.0306
  148DOPC   O1117610   1.772   5.701  16.977 -0.1936  0.3486  0.1322
  148DOPC    C117611   1.880   5.783  16.952  0.1261  0.3432 -0.2964
  148DOPC    HA17612   1.969   5.717  16.942 -0.9304 -1.3832  1.0141
  148DOPC    HB17613   1.897   5.852  17.038 -0.6587 -0.6529  0.6949
  148DOPC    C217614   1.871   5.876  16.827 -0.2289 -0.0290 -0.4956
  148DOPC    HS17615   1.791   5.950  16.851 -1.4914 -1.1934 -0.9947
  148DOPC   O2117616   1.830   5.790  16.716  0.3566  0.3775 -0.3782
  148DOPC   C2117617   1.733   5.847  16.643  0.4331 -0.3282 -0.3871
  148DOPC   O2217618   1.710   5.970  16.650 -0.1180  0.3333  0.2873
  148DOPC   C2217619   1.680   5.747  16.537 -0.1813  0.0828  0.2689
  148DOPC   H2R17620   1.570   5.734  16.547 -0.7472  1.9539 -2.4129
  148DOPC   H2S17621   1.726   5.649  16.561 -0.5522 -1.0328 -3.0356
  148DOPC    C317622   2.012   5.943  16.801  0.0404  0.2348  0.0805
  148DOPC    HX17623   2.076   5.855  16.775  0.4277  0.0868  1.4661
  148DOPC    HY17624   2.052   5.980  16.898  0.0297 -0.8012  0.4936
  148DOPC   O3117625   2.009   6.035  16.690  0.2803  0.3532  0.1131
  148DOPC   C3117626   1.978   6.159  16.733 -0.5399  0.0671 -1.1077
  148DOPC   O3217627   1.939   6.191  16.846 -0.1971 -0.9632  0.3625
  148DOPC   C3217628   2.000   6.256  16.613 -0.3998  0.0574 -0.0474
  148DOPC   H2X17629   2.027   6.356  16.653 -0.3662 -0.0247  0.1370
  148DOPC   H2Y17630   2.087   6.220  16.554 -1.7146 -2.9750 -0.3475
  148DOPC   C2317631   1.694   5.794  16.389 -0.0222 -0.4900  0.0754
  148DOPC   H3R17632   1.656   5.896  16.368  2.1395  0.3890  0.1702
  148DOPC   H3S17633   1.632   5.729  16.324 -0.7944  1.3404 -1.0734
  148DOPC   C2417634   1.844   5.806  16.349 -0.2118 -0.8089  0.5573
  148DOPC   H4R17635   1.862   5.721  16.281  1.2240  0.4863 -0.7656
  148DOPC   H4S17636   1.909   5.798  16.438  0.0510 -0.3736  0.4054
  148DOPC   C2517637   1.870   5.931  16.260  0.3980 -0.0971  0.4939
  148DOPC   H5R17638   1.855   6.019  16.325 -1.8231  1.8326 -2.3777
  148DOPC   H5S17639   1.783   5.940  16.191  1.1745 -1.0369 -0.6477
  148DOPC   C2617640   2.001   5.922  16.179 -0.0032  0.0159 -0.5849
  148DOPC   H6R17641   2.009   5.824  16.126 -1.4776 -1.7234  2.1177
  148DOPC   H6S17642   2.094   5.922  16.239 -0.1740 -2.1994 -0.2129
  148DOPC   C2717643   2.026   6.029  16.070  0.0249 -0.2398  0.0879
  148DOPC   H7R17644   1.990   6.126  16.111 -1.8606 -1.2985  1.0596
  148DOPC   H7S17645   1.963   6.004  15.982  1.0205  0.8057 -0.9514
  148DOPC   C2817646   2.174   6.042  16.025 -0.8274  0.0924  0.7706
  148DOPC   H8R17647   2.234   6.065  16.116  1.2844 -0.7364 -0.3288
  148DOPC   H8S17648   2.175   6.133  15.961 -0.3515 -0.0614  0.5549
  148DOPC   C2917649   2.243   5.928  15.960  0.2569  0.3478  0.0020
  148DOPC   H9R17650   2.315   5.891  16.034  0.4330  1.2498  0.2955
  148DOPC  C21017651   2.221   5.864  15.846  0.6591 -0.1793  0.4023
  148DOPC  H10R17652   2.298   5.791  15.818 -0.2079 -1.9468  2.3543
  148DOPC  C21117653   2.115   5.885  15.732 -0.0222  0.0081 -0.6554
  148DOPC  H11R17654   2.055   5.976  15.753  0.4576  0.5291 -1.4620
  148DOPC  H11S17655   2.043   5.801  15.735 -0.5875  0.4540  3.4793
  148DOPC  C21217656   2.189   5.900  15.598 -0.5052  0.6356  0.3222
  148DOPC  H12R17657   2.282   5.959  15.611 -0.8072  0.7514  2.3067
  148DOPC  H12S17658   2.123   5.952  15.525 -0.9064 -0.0712  0.1785
  148DOPC  C21317659   2.231   5.773  15.537 -0.4188  1.0431 -0.2558
  148DOPC  H13R17660   2.141   5.709  15.526 -0.3716  0.5713  1.6974
  148DOPC  H13S17661   2.304   5.724  15.605  1.0024 -0.8807 -2.9980
  148DOPC  C21417662   2.295   5.793  15.401 -0.0626 -0.4731 -0.4316
  148DOPC  H14R17663   2.395   5.840  15.417 -0.0928 -0.4450 -0.3257
  148DOPC  H14S17664   2.228   5.859  15.342  0.4314  0.2745 -0.1739
  148DOPC  C21517665   2.331   5.664  15.330  0.1627 -0.3763  0.1686
  148DOPC  H15R17666   2.234   5.614  15.305  0.6469 -2.2386  1.7952
  148DOPC  H15S17667   2.381   5.587  15.392 -0.3323 -1.0505 -0.2459
  148DOPC  C21617668   2.399   5.681  15.189 -0.5835  0.2183  0.1602
  148DOPC  H16R17669   2.486   5.751  15.190 -0.8263  0.6163 -1.6852
  148DOPC  H16S17670   2.326   5.726  15.118  0.2997 -0.9227 -1.5323
  148DOPC  C21717671   2.450   5.553  15.127  0.2635  0.2149  0.3413
  148DOPC  H17R17672   2.355   5.500  15.103  0.7197 -0.0724 -0.9094
  148DOPC  H17S17673   2.501   5.489  15.202 -1.0632  1.5649  2.4823
  148DOPC  C21817674   2.535   5.567  15.000  0.4553 -0.1558 -0.2011
  148DOPC  H18R17675   2.560   5.464  14.968  1.5209  0.5221 -1.6366
  148DOPC  H18S17676   2.629   5.624  15.016 -0.5444  1.5420 -0.0812
  148DOPC  H18T17677   2.479   5.622  14.921 -1.2795  0.4618  1.3677
  148DOPC   C3317678   1.872   6.272  16.523  0.3386  0.2928 -0.1509
  148DOPC   H3X17679   1.798   6.338  16.573 -1.2452 -1.9525  0.6463
  148DOPC   H3Y17680   1.826   6.175  16.495 -0.5102  0.1462  1.5682
  148DOPC   C3417681   1.919   6.338  16.391 -0.3550 -0.4793  0.2556
  148DOPC   H4X17682   2.015   6.287  16.366 -0.4942 -0.9943  0.7433
  148DOPC   H4Y17683   1.953   6.439  16.423  1.2504 -1.7834  3.0518
  148DOPC   C3517684   1.820   6.349  16.279 -0.7383 -0.1220  0.6957
  148DOPC   H5X17685   1.734   6.281  16.297 -1.8343  1.1134  0.3522
  148DOPC   H5Y17686   1.870   6.312  16.188  0.0938 -0.1038  1.1377
  148DOPC   C3617687   1.762   6.484  16.240  0.9813 -0.4576  0.0013
  148DOPC   H6X17688   1.700   6.518  16.326 -0.4629  1.0099 -1.5373
  148DOPC   H6Y17689   1.847   6.555  16.233  0.5949  0.1777  1.3615
  148DOPC   C3717690   1.683   6.471  16.105  0.1002 -0.2629  0.0918
  148DOPC   H7X17691   1.744   6.414  16.032 -2.3378 -2.3007 -0.4923
  148DOPC   H7Y17692   1.601   6.403  16.137 -1.1203  1.1142  0.0275
  148DOPC   C3817693   1.630   6.610  16.051  0.1353  0.7604 -0.3453
  148DOPC   H8X17694   1.586   6.663  16.138 -2.8233  2.6388 -2.7766
  148DOPC   H8Y17695   1.548   6.591  15.979  1.8778  0.8131 -2.4458
  148DOPC   C3917696   1.739   6.684  15.988 -0.3492 -0.0916 -0.2690
  148DOPC   H9X17697   1.808   6.740  16.052  0.6497  1.1928 -2.3364
  148DOPC  C31017698   1.762   6.708  15.857 -1.1164 -0.1215 -0.5477
  148DOPC  H10X17699   1.840   6.779  15.825 -1.4747 -0.3722 -2.0434
  148DOPC  C31117700   1.686   6.660  15.732 -0.3083 -0.7263  0.0540
  148DOPC  H11X17701   1.625   6.750  15.713  0.5971  0.1548  1.1566
  148DOPC  H11Y17702   1.621   6.574  15.760 -0.7376 -1.0575 -1.8656
  148DOPC  C31217703   1.784   6.622  15.618  0.5448  0.1873 -0.1560
  148DOPC  H12X17704   1.847   6.537  15.651  0.2114 -0.4021 -0.9991
  148DOPC  H12Y17705   1.846   6.712  15.597 -1.8193  2.3330  1.4921
  148DOPC  C31317706   1.708   6.576  15.496 -0.3597  0.4855 -0.1945
  148DOPC  H13X17707   1.659   6.478  15.517 -0.8972  1.0017  1.0286
  148DOPC  H13Y17708   1.631   6.649  15.463 -1.0107  0.0182  0.2635
  148DOPC  C31417709   1.802   6.544  15.381 -0.1257  0.2041 -0.3820
  148DOPC  H14X17710   1.850   6.630  15.329  0.1765 -0.0949 -0.6005
  148DOPC  H14Y17711   1.879   6.473  15.419 -0.2095  1.1028  1.5871
  148DOPC  C31517712   1.729   6.465  15.276  0.2875  0.6061  0.1356
  148DOPC  H15X17713   1.655   6.536  15.234 -0.2364  0.0974  0.1840
  148DOPC  H15Y17714   1.672   6.382  15.324  0.7420  0.7039  0.8671
  148DOPC  C31617715   1.828   6.423  15.166  0.3485  0.1976  0.6732
  148DOPC  H16X17716   1.869   6.518  15.125  1.9430 -0.2466  1.1655
  148DOPC  H16Y17717   1.902   6.347  15.199 -2.6392 -1.7199  3.5173
  148DOPC  C31717718   1.754   6.348  15.054  0.2964 -0.3725 -0.8820
  148DOPC  H17X17719   1.700   6.267  15.107 -0.0966  0.2687 -0.2849
  148DOPC  H17Y17720   1.667   6.407  15.018 -0.9143 -1.0384  0.8159
  148DOPC  C31817721   1.840   6.293  14.939 -0.5129 -0.2028 -0.2086
  148DOPC  H18X17722   1.876   6.367  14.864  1.1885 -0.0379  0.7199
  148DOPC  H18Y17723   1.922   6.224  14.968 -1.3887 -1.4220 -0.5406
  148DOPC  H18Z17724   1.771   6.233  14.876 -0.5368 -0.5333  0.1286
  149DOPC     N17725   2.166   2.600  17.158 -0.0560 -0.2481  0.6664
  149DOPC   C1217726   2.183   2.728  17.073  0.2798  0.5308  0.6585
  149DOPC  H12A17727   2.111   2.734  16.993  1.2693 -1.0163 -0.3918
  149DOPC  H12B17728   2.280   2.723  17.024  0.9525 -4.1479  2.0205
  149DOPC   C1317729   2.158   2.484  17.060  0.3160 -0.6532 -0.0517
  149DOPC  H13A17730   2.086   2.503  16.982 -0.0355 -3.5815 -0.5812
  149DOPC  H13B17731   2.253   2.475  17.009  1.0169  0.5703  0.9790
  149DOPC  H13C17732   2.112   2.392  17.094 -0.9884 -0.4716 -1.2524
  149DOPC   C1417733   2.037   2.614  17.237  0.6627 -0.8060  0.5033
  149DOPC  H14A17734   2.017   2.532  17.305  1.8788 -0.5550  1.1847
  149DOPC  H14B17735   2.038   2.704  17.296 -1.9573 -0.5720  0.3125
  149DOPC  H14C17736   1.956   2.629  17.166  1.8744 -0.6049 -0.8870
  149DOPC   C1517737   2.281   2.577  17.248 -0.4416 -0.2869 -0.4011
  149DOPC  H15A17738   2.302   2.655  17.319 -0.4528 -0.0655 -0.6374
  149DOPC  H15B17739   2.367   2.547  17.190 -0.8848  0.2992 -1.4043
  149DOPC  H15C17740   2.263   2.493  17.312 -1.4731 -1.4758 -2.1514
  149DOPC   C1117741   2.175   2.861  17.138  0.6991  0.1201 -0.5195
  149DOPC  H11A17742   2.218   2.859  17.241  0.0714  0.6343 -0.2420
  149DOPC  H11B17743   2.232   2.940  17.085  0.7523  0.3068 -0.1822
  149DOPC     P17744   1.972   2.961  17.016 -0.7283 -0.2159  0.3583
  149DOPC   O1317745   2.040   3.093  17.000  0.1695 -0.4665  0.5115
  149DOPC   O1417746   1.826   2.962  17.026  0.5001  0.4140 -0.1426
  149DOPC   O1217747   2.035   2.898  17.150 -0.1847  0.0594 -0.6369
  149DOPC   O1117748   2.016   2.870  16.898  0.1420  0.0980  0.5773
  149DOPC    C117749   1.994   2.904  16.761  0.2351  0.0239 -0.3612
  149DOPC    HA17750   2.013   3.009  16.729  1.4132 -0.6559 -1.9826
  149DOPC    HB17751   1.891   2.869  16.737  0.2799 -1.5319  1.5164
  149DOPC    C217752   2.080   2.800  16.665  0.6719  0.1487 -0.4524
  149DOPC    HS17753   2.183   2.802  16.707  1.1667  1.2007 -1.6517
  149DOPC   O2117754   2.067   2.848  16.525 -0.1061  0.2165 -0.6700
  149DOPC   C2117755   2.183   2.826  16.456  0.4746 -0.3428  0.2251
  149DOPC   O2217756   2.279   2.779  16.509 -0.0700 -0.1558  0.2618
  149DOPC   C2217757   2.178   2.881  16.320 -0.7394 -0.0676  0.0983
  149DOPC   H2R17758   2.198   2.990  16.319 -0.6907 -0.0779 -0.2194
  149DOPC   H2S17759   2.072   2.867  16.288 -1.1470 -1.2249  1.8072
  149DOPC    C317760   2.037   2.645  16.679  0.2857 -0.1284  0.4523
  149DOPC    HX17761   1.939   2.634  16.629  0.7400 -2.8366  0.0044
  149DOPC    HY17762   2.035   2.630  16.789 -1.1430  1.4821  0.6858
  149DOPC   O3117763   2.123   2.548  16.615  0.0886 -0.1164 -0.1769
  149DOPC   C3117764   2.234   2.509  16.680  1.0270  0.0482  0.4744
  149DOPC   O3217765   2.262   2.544  16.791 -0.0921 -0.2675  0.5973
  149DOPC   C3217766   2.296   2.396  16.594 -0.8501 -0.1424 -0.3537
  149DOPC   H2X17767   2.379   2.347  16.649 -0.9386  1.2966  1.1095
  149DOPC   H2Y17768   2.209   2.330  16.571 -0.5096 -0.7089 -0.0310
  149DOPC   C2317769   2.286   2.825  16.218 -0.0684 -0.0160  1.0695
  149DOPC   H3R17770   2.274   2.717  16.196  1.8347 -0.3969  1.7648
  149DOPC   H3S17771   2.386   2.845  16.262  0.1841  0.9718  0.0935
  149DOPC   C2417772   2.268   2.901  16.083  0.0432  0.1257  0.1915
  149DOPC   H4R17773   2.311   3.003  16.094  2.2508 -0.9030  1.9218
  149DOPC   H4S17774   2.161   2.921  16.060  0.5119  0.7445 -1.5741
  149DOPC   C2517775   2.319   2.815  15.971  0.1839  0.0116  0.1382
  149DOPC   H5R17776   2.265   2.717  15.971 -1.1691  0.7322  0.5645
  149DOPC   H5S17777   2.430   2.807  15.976  0.0681 -1.0433  2.5015
  149DOPC   C2617778   2.295   2.893  15.838 -0.0574  0.1625 -0.1019
  149DOPC   H6R17779   2.334   2.996  15.828 -1.3142  0.5020 -2.0197
  149DOPC   H6S17780   2.185   2.906  15.827 -0.6042 -1.1929  2.6645
  149DOPC   C2717781   2.341   2.818  15.718  0.0347  0.6706  0.1792
  149DOPC   H7R17782   2.324   2.709  15.717  1.1551  0.4567 -1.8156
  149DOPC   H7S17783   2.447   2.853  15.717  0.5332 -0.7958  0.2150
  149DOPC   C2817784   2.265   2.866  15.600  0.0237  0.0757  0.0371
  149DOPC   H8R17785   2.333   2.839  15.516 -0.6335 -2.3448  0.1964
  149DOPC   H8S17786   2.262   2.977  15.600 -1.0408  0.0657  1.1357
  149DOPC   C2917787   2.118   2.814  15.586 -0.1873 -0.2204  0.3108
  149DOPC   H9R17788   2.045   2.874  15.643  0.6676 -0.1151  1.3293
  149DOPC  C21017789   2.068   2.712  15.513 -0.4882  0.4386 -0.3822
  149DOPC  H10R17790   1.961   2.694  15.523 -0.0146 -2.3822  0.3539
  149DOPC  C21117791   2.157   2.623  15.419  0.2307 -0.9556 -0.3356
  149DOPC  H11R17792   2.121   2.518  15.420 -0.0276 -0.9204  2.2888
  149DOPC  H11S17793   2.262   2.620  15.454  0.6039  0.5119 -1.2661
  149DOPC  C21217794   2.160   2.687  15.283 -0.0773 -0.2755 -0.3154
  149DOPC  H12R17795   2.223   2.778  15.284  0.8184 -0.7463 -3.6236
  149DOPC  H12S17796   2.055   2.717  15.259 -0.3689 -0.6233  0.4822
  149DOPC  C21317797   2.213   2.592  15.169 -0.0606  0.1681  0.4408
  149DOPC  H13R17798   2.211   2.642  15.070  0.8219 -1.4432 -0.4242
  149DOPC  H13S17799   2.157   2.496  15.168  2.3401 -1.3109 -0.4892
  149DOPC  C21417800   2.361   2.552  15.204  0.0068  0.1375  0.0368
  149DOPC  H14R17801   2.352   2.472  15.281 -1.1302 -1.7699 -1.9628
  149DOPC  H14S17802   2.423   2.633  15.247 -0.1719  0.8470 -0.9925
  149DOPC  C21517803   2.426   2.475  15.091 -0.4611  0.3106  0.7305
  149DOPC  H15R17804   2.419   2.520  14.989  0.0786  0.7395  0.8742
  149DOPC  H15S17805   2.385   2.373  15.082  2.3958 -0.7674 -2.1602
  149DOPC  C21617806   2.582   2.452  15.103 -0.1331  0.4753 -0.1282
  149DOPC  H16R17807   2.630   2.541  15.151  1.2919 -0.8839  1.1200
  149DOPC  H16S17808   2.620   2.445  14.999 -0.6548 -0.7080 -0.2585
  149DOPC  C21717809   2.614   2.326  15.174 -0.5957  0.7859 -0.0032
  149DOPC  H17R17810   2.570   2.237  15.125  0.3774  0.0330  0.4490
  149DOPC  H17S17811   2.571   2.334  15.276  0.2710  1.1199  0.3503
  149DOPC  C21817812   2.769   2.299  15.190 -0.9038  0.3965  0.5759
  149DOPC  H18R17813   2.790   2.203  15.242  0.1545  1.0593  1.4041
  149DOPC  H18S17814   2.835   2.378  15.231 -0.4107  0.5255 -0.4450
  149DOPC  H18T17815   2.799   2.300  15.083  0.7208  2.0779  0.9895
  149DOPC   C3317816   2.357   2.450  16.463  0.0950  0.0471  0.2144
  149DOPC   H3X17817   2.402   2.550  16.481  2.3669 -1.2996  2.5863
  149DOPC   H3Y17818   2.278   2.464  16.386 -0.5203 -0.0088  0.8286
  149DOPC   C3417819   2.474   2.368  16.403 -0.2208 -0.2539  0.7514
  149DOPC   H4X17820   2.437   2.265  16.383  3.2802 -1.7548  1.2009
  149DOPC   H4Y17821   2.556   2.375  16.477 -0.1294 -1.3920  0.7860
  149DOPC   C3517822   2.524   2.441  16.274  0.4875  0.8389 -0.2101
  149DOPC   H5X17823   2.433   2.472  16.217  1.0378  0.5124 -1.2902
  149DOPC   H5Y17824   2.583   2.371  16.212 -2.4824  0.0222 -2.3626
  149DOPC   C3617825   2.610   2.568  16.291  0.0715  0.5787  0.5756
  149DOPC   H6X17826   2.582   2.641  16.212  0.1973 -1.6567 -1.6620
  149DOPC   H6Y17827   2.572   2.612  16.386 -2.3652 -0.5536  0.2153
  149DOPC   C3717828   2.760   2.540  16.309 -0.3856  0.4805 -0.6145
  149DOPC   H7X17829   2.813   2.631  16.345  0.1838 -0.4281  0.9124
  149DOPC   H7Y17830   2.778   2.453  16.375 -1.6340  1.4921  1.1263
  149DOPC   C3817831   2.837   2.502  16.180  0.2507  0.1390 -0.5383
  149DOPC   H8X17832   2.799   2.400  16.154 -0.4370 -0.4055  2.2876
  149DOPC   H8Y17833   2.939   2.475  16.214 -1.1640 -1.6622  2.7341
  149DOPC   C3917834   2.843   2.615  16.079  0.0116 -0.1204 -0.4318
  149DOPC   H9X17835   2.779   2.701  16.102  1.2514  0.3089  1.5949
  149DOPC  C31017836   2.928   2.633  15.974 -0.8424  0.1930  0.0741
  149DOPC  H10X17837   2.924   2.723  15.910  1.4130  0.4916  0.2417
  149DOPC  C31117838   3.050   2.544  15.937 -0.3694 -0.7174 -0.0262
  149DOPC  H11X17839   3.066   2.467  16.015 -0.6484 -0.7767 -0.0261
  149DOPC  H11Y17840   3.135   2.615  15.948  0.2658 -1.4107 -0.3416
  149DOPC  C31217841   3.040   2.460  15.811  0.7746  0.2129  0.0739
  149DOPC  H12X17842   3.130   2.404  15.776  0.2642  0.3116 -1.4763
  149DOPC  H12Y17843   3.019   2.529  15.727 -0.8956 -0.0053  0.2732
  149DOPC  C31317844   2.926   2.352  15.823  0.1146  0.1183 -0.3145
  149DOPC  H13X17845   2.969   2.283  15.899  2.6758 -2.0491 -3.4421
  149DOPC  H13Y17846   2.837   2.412  15.852 -0.4784 -0.9463  0.1208
  149DOPC  C31417847   2.894   2.275  15.694  0.2779  0.3716 -0.3343
  149DOPC  H14X17848   2.865   2.353  15.619  0.2098  0.8866  0.2184
  149DOPC  H14Y17849   2.992   2.230  15.667 -0.3022 -1.8741  1.0645
  149DOPC  C31517850   2.789   2.166  15.712 -0.8084  0.1111 -1.1216
  149DOPC  H15X17851   2.698   2.218  15.749  0.0048 -0.3233  1.7142
  149DOPC  H15Y17852   2.834   2.099  15.787  0.3102  1.4854 -0.5160
  149DOPC  C31617853   2.757   2.067  15.597 -0.0296 -0.2510  0.2745
  149DOPC  H16X17854   2.714   2.117  15.507 -0.2294 -0.0474  0.4822
  149DOPC  H16Y17855   2.851   2.023  15.558  0.6419 -0.3386  1.9112
  149DOPC  C31717856   2.661   1.957  15.650  0.5454 -0.5379  0.1495
  149DOPC  H17X17857   2.713   1.916  15.740 -0.6738  0.4414  1.3370
  149DOPC  H17Y17858   2.565   2.009  15.673 -0.1773 -1.1461 -1.3877
  149DOPC  C31817859   2.642   1.849  15.545 -0.0923 -0.6544  1.3283
  149DOPC  H18X17860   2.733   1.788  15.525  0.8645  0.4142  2.3099
  149DOPC  H18Y17861   2.569   1.779  15.593 -3.7008  0.2533 -2.2296
  149DOPC  H18Z17862   2.603   1.893  15.451  0.7727 -2.7739 -0.0963
  150DOPC     N17863   6.377   5.040  16.850 -0.4915  0.4189 -0.1614
  150DOPC   C1217864   6.427   5.046  16.707 -0.1224 -0.0020  0.0908
  150DOPC  H12A17865   6.366   5.108  16.643 -0.3903 -1.5119 -1.1595
  150DOPC  H12B17866   6.412   4.947  16.669 -0.5489  0.2907 -0.5097
  150DOPC   C1317867   6.459   4.939  16.932 -0.3009  0.0432 -0.2989
  150DOPC  H13A17868   6.567   4.936  16.920 -0.4895 -1.1681 -2.1704
  150DOPC  H13B17869   6.432   4.942  17.036  0.8610  1.6501 -0.0025
  150DOPC  H13C17870   6.445   4.841  16.889 -0.7415  0.6713 -1.6593
  150DOPC   C1417871   6.235   5.007  16.861  0.7096  0.3912 -0.6134
  150DOPC  H14A17872   6.188   5.039  16.952  0.3120  1.2797 -1.1154
  150DOPC  H14B17873   6.178   5.068  16.792 -2.2458 -0.4673  0.9210
  150DOPC  H14C17874   6.225   4.903  16.835 -0.5501  0.1167  0.8722
  150DOPC   C1517875   6.397   5.172  16.911 -0.4370  0.2052 -0.5306
  150DOPC  H15A17876   6.499   5.206  16.895 -0.5324  0.4834 -0.5442
  150DOPC  H15B17877   6.369   5.174  17.015 -1.6180  1.2332 -0.8508
  150DOPC  H15C17878   6.331   5.241  16.861  0.6290  0.4265 -1.6850
  150DOPC   C1117879   6.572   5.091  16.679  0.3406  0.0142 -0.3183
  150DOPC  H11A17880   6.639   5.010  16.715  1.6930  0.8711 -0.8060
  150DOPC  H11B17881   6.575   5.093  16.568 -3.0917  0.6678 -0.4978
  150DOPC     P17882   6.575   5.363  16.668  0.0345 -0.2041 -0.3842
  150DOPC   O1317883   6.696   5.428  16.609  0.1226  0.8144  0.1393
  150DOPC   O1417884   6.510   5.453  16.766  0.5065  0.2958 -0.5289
  150DOPC   O1217885   6.603   5.218  16.736  0.3609 -0.1852  0.4556
  150DOPC   O1117886   6.476   5.330  16.554  0.4570  0.7919 -0.3229
  150DOPC    C117887   6.480   5.409  16.436  0.2382 -0.3229 -0.1378
  150DOPC    HA17888   6.424   5.343  16.366  0.9768 -0.8123 -0.2765
  150DOPC    HB17889   6.580   5.435  16.395  0.0149  1.5135  0.3897
  150DOPC    C217890   6.394   5.536  16.452 -0.1116  0.3633  0.1650
  150DOPC    HS17891   6.419   5.584  16.549 -1.4024  0.9328  0.2394
  150DOPC   O2117892   6.255   5.506  16.437  0.4709  0.6773  0.1568
  150DOPC   C2117893   6.169   5.588  16.484  0.9368 -0.2280  0.7275
  150DOPC   O2217894   6.192   5.686  16.556 -0.1570 -0.5880 -0.2218
  150DOPC   C2217895   6.033   5.558  16.407 -0.4967 -0.6018 -0.0580
  150DOPC   H2R17896   6.011   5.452  16.434  2.4170 -1.3869 -0.4257
  150DOPC   H2S17897   6.043   5.564  16.297  0.6559  0.4692  0.0912
  150DOPC    C317898   6.429   5.633  16.329  0.1161 -0.1248 -0.2031
  150DOPC    HX17899   6.353   5.713  16.330  0.9219  0.6779  1.1439
  150DOPC    HY17900   6.433   5.587  16.228  0.7180 -1.1854  0.2892
  150DOPC   O3117901   6.560   5.683  16.341 -0.4072  0.1805 -0.3395
  150DOPC   C3117902   6.588   5.766  16.446  0.9122  0.4578  0.5977
  150DOPC   O3217903   6.506   5.809  16.526 -0.0374 -0.4758 -0.1194
  150DOPC   C3217904   6.743   5.786  16.461 -0.5858  0.4062  0.4985
  150DOPC   H2X17905   6.788   5.712  16.530  1.2202  1.4362  0.5100
  150DOPC   H2Y17906   6.786   5.779  16.358  0.4664 -1.3941  1.0181
  150DOPC   C2317907   5.911   5.644  16.446  0.0698  0.1426 -0.4793
  150DOPC   H3R17908   5.902   5.669  16.554 -0.8266 -2.1656  0.0571
  150DOPC   H3S17909   5.819   5.589  16.415  0.8230 -3.0802  2.3151
  150DOPC   C2417910   5.914   5.780  16.378 -0.5042 -0.2133  0.1717
  150DOPC   H4R17911   6.005   5.838  16.406 -0.1589 -0.2260 -0.8707
  150DOPC   H4S17912   5.826   5.834  16.418  0.7808  0.6856  1.9269
  150DOPC   C2517913   5.919   5.782  16.226  0.3889 -0.2207  0.3010
  150DOPC   H5R17914   5.832   5.720  16.196  1.2129 -1.3716  0.2104
  150DOPC   H5S17915   6.015   5.744  16.187  0.8918 -2.1292  3.0831
  150DOPC   C2617916   5.886   5.922  16.172  0.5554 -0.5484  0.7422
  150DOPC   H6R17917   5.976   5.983  16.195  2.0563 -1.7443 -1.5816
  150DOPC   H6S17918   5.794   5.962  16.219 -1.3730  1.2505 -3.9231
  150DOPC   C2717919   5.868   5.933  16.018  0.5655 -0.3261  0.6688
  150DOPC   H7R17920   5.778   5.883  15.976  0.9080  1.0647 -1.9091
  150DOPC   H7S17921   5.953   5.888  15.962  0.0775  1.8238 -2.0058
  150DOPC   C2817922   5.857   6.083  15.971 -0.0450  0.1361 -0.4752
  150DOPC   H8R17923   5.786   6.141  16.034 -2.6265 -1.7416 -1.5009
  150DOPC   H8S17924   5.808   6.070  15.872  0.0853  2.6187 -0.9487
  150DOPC   C2917925   5.988   6.157  15.963  0.3366  0.4436  0.4130
  150DOPC   H9R17926   6.019   6.173  16.067 -0.3128  1.4890  0.4691
  150DOPC  C21017927   6.073   6.183  15.856 -0.4047 -0.2656 -0.3021
  150DOPC  H10R17928   6.166   6.237  15.879 -2.4315  3.4793 -0.1471
  150DOPC  C21117929   6.046   6.133  15.721 -0.4870 -0.4784  1.0199
  150DOPC  H11R17930   5.960   6.063  15.711  0.1431 -1.1476  0.0423
  150DOPC  H11S17931   6.136   6.085  15.676 -0.8717  1.0878 -1.6267
  150DOPC  C21217932   6.032   6.242  15.615 -0.5117 -0.1733  0.1289
  150DOPC  H12R17933   6.114   6.317  15.624 -1.2659  0.5719  1.1393
  150DOPC  H12S17934   5.950   6.309  15.648 -0.4677 -0.0493 -0.0135
  150DOPC  C21317935   5.996   6.194  15.472 -0.7092 -0.3671  0.1891
  150DOPC  H13R17936   5.889   6.167  15.474 -1.1116  1.1634  0.7618
  150DOPC  H13S17937   6.061   6.105  15.454  2.4431  1.7211  0.4701
  150DOPC  C21417938   6.026   6.299  15.366  1.0858 -0.1417 -0.7992
  150DOPC  H14R17939   6.136   6.300  15.347  1.6857  0.4104  2.2187
  150DOPC  H14S17940   5.991   6.397  15.404 -0.0789 -0.5486 -0.7938
  150DOPC  C21517941   5.964   6.281  15.226 -0.0389  0.3261  0.0880
  150DOPC  H15R17942   5.994   6.179  15.195  1.2879  0.9453 -0.7478
  150DOPC  H15S17943   6.008   6.339  15.143 -0.7002 -2.7451 -2.6141
  150DOPC  C21617944   5.806   6.289  15.234  0.3817 -0.1773 -0.2878
  150DOPC  H16R17945   5.773   6.391  15.264  0.3388 -0.8047  1.9784
  150DOPC  H16S17946   5.779   6.227  15.322  1.2672 -1.9071 -1.1866
  150DOPC  C21717947   5.743   6.230  15.109 -0.1020 -0.6564 -0.0319
  150DOPC  H17R17948   5.759   6.121  15.116  0.8629 -0.5827 -0.7700
  150DOPC  H17S17949   5.782   6.270  15.012  0.6454  0.8093  0.8259
  150DOPC  C21817950   5.592   6.239  15.110  0.2225  0.6285  0.0853
  150DOPC  H18R17951   5.567   6.347  15.125  1.7543  1.0295 -0.1051
  150DOPC  H18S17952   5.546   6.186  15.196 -1.7998 -1.9110 -2.3853
  150DOPC  H18T17953   5.547   6.195  15.018  0.3301  0.5855  0.0533
  150DOPC   C3317954   6.773   5.920  16.526  0.1560  0.1361 -0.2656
  150DOPC   H3X17955   6.873   5.912  16.574 -0.5264  0.6653  1.2901
  150DOPC   H3Y17956   6.698   5.932  16.606  0.0392 -1.7794 -0.0403
  150DOPC   C3417957   6.757   6.042  16.434  0.4757  0.6331 -0.2199
  150DOPC   H4X17958   6.649   6.064  16.418 -0.2242  1.1807  4.1362
  150DOPC   H4Y17959   6.804   6.007  16.339 -1.8760 -1.7495 -0.6289
  150DOPC   C3517960   6.816   6.176  16.480  0.3914 -0.0363  0.3121
  150DOPC   H5X17961   6.753   6.209  16.565 -1.6541 -0.8657 -0.8163
  150DOPC   H5Y17962   6.797   6.246  16.396 -0.9924 -1.1792 -0.3708
  150DOPC   C3617963   6.964   6.187  16.527 -0.0957 -0.1059 -0.3689
  150DOPC   H6X17964   6.980   6.287  16.573 -0.9483  0.9890 -2.3238
  150DOPC   H6Y17965   6.982   6.110  16.604  0.4045  0.2197 -0.1560
  150DOPC   C3717966   7.064   6.164  16.410  0.3188  0.0912 -0.3914
  150DOPC   H7X17967   7.162   6.151  16.461 -0.0739  1.5380  0.8214
  150DOPC   H7Y17968   7.030   6.067  16.368 -1.5502  1.1900 -1.5570
  150DOPC   C3817969   7.066   6.277  16.303 -0.0597  0.1584 -0.3265
  150DOPC   H8X17970   7.110   6.369  16.348  0.7570 -1.6774  2.9510
  150DOPC   H8Y17971   6.962   6.296  16.269 -0.3020 -2.5987 -1.4123
  150DOPC   C3917972   7.158   6.236  16.191  0.4775 -0.0989 -0.0042
  150DOPC   H9X17973   7.266   6.236  16.214  0.5062  1.4046  0.0196
  150DOPC  C31017974   7.128   6.217  16.057  0.1245 -0.0197 -0.1800
  150DOPC  H10X17975   7.215   6.189  15.996 -0.1955 -1.3279 -0.0620
  150DOPC  C31117976   6.991   6.234  16.002 -0.0305 -0.2443 -0.3947
  150DOPC  H11X17977   6.951   6.337  16.010 -0.0469 -0.3284  0.7012
  150DOPC  H11Y17978   6.913   6.167  16.044  1.1737 -2.0533 -0.9220
  150DOPC  C31217979   6.989   6.195  15.850 -0.0273 -0.5907 -0.3862
  150DOPC  H12X17980   7.033   6.274  15.785 -2.6148  0.2187 -1.3022
  150DOPC  H12Y17981   6.881   6.190  15.825 -0.3828 -2.3867  1.2598
  150DOPC  C31317982   7.055   6.070  15.800 -0.1990  0.1473  0.0410
  150DOPC  H13X17983   7.159   6.058  15.839  0.0179 -1.9027 -1.0232
  150DOPC  H13Y17984   6.989   5.989  15.838 -0.4830 -0.2708 -1.3057
  150DOPC  C31417985   7.039   6.065  15.650 -0.0889 -0.1012  0.1319
  150DOPC  H14X17986   6.935   6.086  15.616 -0.2804 -1.1381  0.0505
  150DOPC  H14Y17987   7.118   6.132  15.611  0.9108  0.6257  3.1130
  150DOPC  C31517988   7.069   5.919  15.593  0.2432 -0.4091 -0.3239
  150DOPC  H15X17989   7.010   5.845  15.652 -1.0279 -0.3952 -1.5299
  150DOPC  H15Y17990   7.176   5.896  15.616  0.6123 -0.9231 -2.3592
  150DOPC  C31617991   7.044   5.913  15.443  0.3569 -0.2606  0.3765
  150DOPC  H16X17992   7.060   5.805  15.423  2.4436  0.1024 -0.1034
  150DOPC  H16Y17993   6.941   5.935  15.408  0.9407  0.6359 -0.8334
  150DOPC  C31717994   7.153   5.973  15.358 -0.7113 -0.7154  0.4257
  150DOPC  H17X17995   7.140   6.083  15.353 -0.2883 -0.7147 -1.5033
  150DOPC  H17Y17996   7.246   5.950  15.415 -0.5564 -1.6094 -0.1810
  150DOPC  C31817997   7.159   5.918  15.215 -0.1760  0.7826 -0.6164
  150DOPC  H18X17998   7.239   5.962  15.151 -1.0119  0.5156 -1.8806
  150DOPC  H18Y17999   7.195   5.814  15.227 -1.1248  0.5369  0.2290
  150DOPC  H18Z18000   7.063   5.902  15.162  1.2472 -0.3049 -3.0330
  151DOPC     N18001   0.385   4.862  17.141  0.1690  0.0405 -0.9837
  151DOPC   C1218002   0.243   4.801  17.143 -0.1269  0.2859 -0.5443
  151DOPC  H12A18003   0.179   4.857  17.210  1.4160  1.2173  0.1947
  151DOPC  H12B18004   0.247   4.701  17.182  2.1513  0.3841 -0.4288
  151DOPC   C1318005   0.428   4.896  17.279  0.2486  0.0482  0.6177
  151DOPC  H13A18006   0.451   4.803  17.329 -1.9757 -0.9160 -0.0006
  151DOPC  H13B18007   0.520   4.952  17.284  0.6383 -0.5698  0.5274
  151DOPC  H13C18008   0.350   4.943  17.336  0.3835 -1.5839  2.2312
  151DOPC   C1418009   0.395   4.992  17.062  0.6319  0.2839  0.1507
  151DOPC  H14A18010   0.336   5.063  17.117 -0.6810  0.3171 -1.2430
  151DOPC  H14B18011   0.496   5.028  17.051  1.0383 -0.9887 -0.4622
  151DOPC  H14C18012   0.353   4.991  16.963 -0.6368  0.6577  0.6716
  151DOPC   C1518013   0.485   4.768  17.075 -0.3999  0.0420 -0.4355
  151DOPC  H15A18014   0.584   4.811  17.068 -0.0906 -0.5287  0.2765
  151DOPC  H15B18015   0.451   4.745  16.975  2.6378 -2.8036 -1.0163
  151DOPC  H15C18016   0.483   4.667  17.114 -0.7614 -0.7946 -2.5015
  151DOPC   C1118017   0.181   4.808  17.001  0.1969  0.7094 -0.7617
  151DOPC  H11A18018   0.081   4.770  17.031  1.8815 -2.2974  1.6233
  151DOPC  H11B18019   0.170   4.914  16.968 -1.9528  1.2121  1.3292
  151DOPC     P18020   0.229   4.571  16.894 -0.1419  0.3605 -0.4923
  151DOPC   O1318021   0.215   4.503  17.025  0.1277  0.0890  0.0294
  151DOPC   O1418022   0.328   4.512  16.806 -0.3786 -0.1496 -0.5378
  151DOPC   O1218023   0.251   4.731  16.905 -0.1297  0.6246 -0.0296
  151DOPC   O1118024   0.095   4.563  16.814  0.3960  0.6529  0.1685
  151DOPC    C118025   0.058   4.643  16.700 -0.0437 -0.5656  0.3003
  151DOPC    HA18026   0.117   4.737  16.691 -1.4418  0.2505 -0.6794
  151DOPC    HB18027  -0.049   4.669  16.706 -0.6069 -2.9536  1.6858
  151DOPC    C218028   0.074   4.565  16.565 -0.7614  0.0534 -0.0598
  151DOPC    HS18029   0.022   4.467  16.574 -0.8091  0.2089  2.0902
  151DOPC   O2118030   0.214   4.546  16.547  0.0351 -0.3365  0.3517
  151DOPC   C2118031   0.254   4.430  16.484  0.1361 -0.5555 -0.4014
  151DOPC   O2218032   0.173   4.345  16.450  0.5593  0.1424 -0.3114
  151DOPC   C2218033   0.407   4.431  16.479  0.2558  0.3035 -0.4848
  151DOPC   H2R18034   0.434   4.332  16.521  1.1371  1.5036  1.9835
  151DOPC   H2S18035   0.450   4.512  16.542 -2.1931 -0.2501  2.1067
  151DOPC    C318036   0.012   4.641  16.441 -0.2289  0.1789 -0.5039
  151DOPC    HX18037   0.092   4.711  16.408  1.4266 -0.9261  0.9891
  151DOPC    HY18038  -0.070   4.706  16.477  0.7090  0.7412  0.7027
  151DOPC   O3118039  -0.028   4.558  16.338 -0.0751  0.4103  0.1122
  151DOPC   C3118040  -0.143   4.495  16.348  0.1866  0.0189 -0.2155
  151DOPC   O3218041  -0.224   4.507  16.440  0.3047 -0.8273  0.0251
  151DOPC   C3218042  -0.150   4.400  16.227 -0.0902 -0.9561 -0.0259
  151DOPC   H2X18043  -0.050   4.373  16.187  0.3366  0.3940  0.0867
  151DOPC   H2Y18044  -0.185   4.298  16.255 -0.5786 -0.9550 -0.6104
  151DOPC   C2318045   0.457   4.427  16.328 -0.5033 -0.6259 -0.3052
  151DOPC   H3R18046   0.565   4.453  16.321 -0.9967  1.2389 -2.1518
  151DOPC   H3S18047   0.404   4.497  16.260  2.8437  0.4934 -1.9454
  151DOPC   C2418048   0.444   4.293  16.267  0.0988 -0.4300 -0.4228
  151DOPC   H4R18049   0.341   4.290  16.224  0.7906  1.8564 -2.5186
  151DOPC   H4S18050   0.459   4.212  16.341  2.6411  0.0342 -0.3201
  151DOPC   C2518051   0.543   4.268  16.151 -0.4303  0.1552 -0.4062
  151DOPC   H5R18052   0.646   4.260  16.191 -0.6817  1.1273  0.4863
  151DOPC   H5S18053   0.534   4.358  16.086  0.8433  0.1670 -0.5834
  151DOPC   C2618054   0.516   4.141  16.071  0.3351 -0.1279  0.1420
  151DOPC   H6R18055   0.409   4.145  16.040 -0.0651  1.8233  1.5509
  151DOPC   H6S18056   0.527   4.049  16.132  3.6084 -1.3557 -2.0667
  151DOPC   C2718057   0.607   4.137  15.954  0.0744  0.1041  0.0557
  151DOPC   H7R18058   0.710   4.145  15.995  0.5532 -0.0531 -1.0789
  151DOPC   H7S18059   0.594   4.235  15.903  0.2682  1.1787  1.9843
  151DOPC   C2818060   0.584   4.018  15.858  0.2331 -0.3059 -0.4282
  151DOPC   H8R18061   0.483   4.039  15.816  1.1781  1.8062 -1.8379
  151DOPC   H8S18062   0.587   3.920  15.910 -0.5165 -0.8848 -1.4269
  151DOPC   C2918063   0.691   4.001  15.750 -0.0460  0.2991 -0.8186
  151DOPC   H9R18064   0.785   3.961  15.792  0.9937  2.8523 -0.5114
  151DOPC  C21018065   0.680   4.031  15.621 -0.1199  0.2132 -0.6308
  151DOPC  H10R18066   0.773   4.019  15.563  0.1681 -1.9302  0.1797
  151DOPC  C21118067   0.557   4.088  15.558 -0.1824  0.1169  0.2397
  151DOPC  H11R18068   0.492   4.140  15.631 -1.5748 -1.3504  0.1025
  151DOPC  H11S18069   0.506   4.009  15.499  0.5914  0.2916 -0.6911
  151DOPC  C21218070   0.588   4.204  15.466  0.6417 -0.3596 -0.0927
  151DOPC  H12R18071   0.647   4.173  15.377  0.3229  0.0853 -0.4658
  151DOPC  H12S18072   0.632   4.287  15.525 -1.0492  0.0686  0.6521
  151DOPC  C21318073   0.453   4.258  15.401  0.1788 -0.0272  0.0526
  151DOPC  H13R18074   0.388   4.312  15.473 -2.9379 -0.5442 -2.1394
  151DOPC  H13S18075   0.403   4.167  15.361  0.6787 -1.3278  2.2522
  151DOPC  C21418076   0.491   4.347  15.280  0.5887  0.1622 -0.1074
  151DOPC  H14R18077   0.569   4.295  15.221  0.7179  0.4521 -0.1935
  151DOPC  H14S18078   0.540   4.435  15.327  1.2346  0.3832 -1.1494
  151DOPC  C21518079   0.365   4.388  15.204  0.3525 -0.0627  0.2229
  151DOPC  H15R18080   0.303   4.459  15.264  0.2480  0.9269 -1.0126
  151DOPC  H15S18081   0.302   4.299  15.185  0.1762 -0.5379  2.7625
  151DOPC  C21618082   0.409   4.446  15.070  0.2013  0.5596  0.3111
  151DOPC  H16R18083   0.446   4.367  15.002  1.2454  0.3298  1.1070
  151DOPC  H16S18084   0.507   4.496  15.089  0.5096 -0.3393  1.1948
  151DOPC  C21718085   0.305   4.541  14.992 -0.8659 -0.6707 -0.4597
  151DOPC  H17R18086   0.347   4.578  14.896 -0.6087 -1.8603 -0.8179
  151DOPC  H17S18087   0.294   4.625  15.065  1.4676 -1.1692  0.5500
  151DOPC  C21818088   0.177   4.468  14.953  0.0735  0.1835 -0.4911
  151DOPC  H18R18089   0.192   4.396  14.870 -0.8423  0.6154 -1.0476
  151DOPC  H18S18090   0.087   4.531  14.940 -1.2169 -0.8696  2.4624
  151DOPC  H18T18091   0.158   4.397  15.037  0.8388 -1.3101 -1.5336
  151DOPC   C3318092  -0.236   4.450  16.113 -0.6527 -0.3653 -0.4359
  151DOPC   H3X18093  -0.202   4.548  16.072  1.3170 -0.2300  1.3189
  151DOPC   H3Y18094  -0.333   4.461  16.166 -0.2708  0.5273  0.1120
  151DOPC   C3418095  -0.253   4.358  15.993 -0.4442  0.2908  0.3914
  151DOPC   H4X18096  -0.333   4.285  16.017  0.4500 -0.6237  0.6499
  151DOPC   H4Y18097  -0.159   4.305  15.969 -0.2890  2.1977 -4.3499
  151DOPC   C3518098  -0.279   4.424  15.864 -0.0316  0.0903 -0.5213
  151DOPC   H5X18099  -0.190   4.482  15.831  1.4660  0.2944  3.3754
  151DOPC   H5Y18100  -0.367   4.492  15.874 -0.1124  0.6015 -3.6105
  151DOPC   C3618101  -0.309   4.313  15.763 -0.5921 -0.1006 -0.1032
  151DOPC   H6X18102  -0.226   4.241  15.773  0.0360  0.3609 -1.6421
  151DOPC   H6Y18103  -0.400   4.251  15.779  0.2675 -1.4495 -0.3102
  151DOPC   C3718104  -0.313   4.368  15.614 -0.4724 -0.4000 -0.5064
  151DOPC   H7X18105  -0.363   4.295  15.547 -1.3602 -1.4869  1.2650
  151DOPC   H7Y18106  -0.382   4.455  15.623  0.2098  0.1139 -0.1987
  151DOPC   C3818107  -0.170   4.406  15.560  0.4428  0.1117 -0.0227
  151DOPC   H8X18108  -0.112   4.312  15.571 -1.7848 -1.4957 -1.1678
  151DOPC   H8Y18109  -0.123   4.489  15.616  0.1258  0.3283 -0.0750
  151DOPC   C3918110  -0.182   4.444  15.412  0.3014 -0.2172 -0.2689
  151DOPC   H9X18111  -0.251   4.528  15.395  0.3337  0.0454  0.8250
  151DOPC  C31018112  -0.109   4.394  15.311  0.6691  0.6253  0.1817
  151DOPC  H10X18113  -0.127   4.435  15.210  0.1746  1.1933  0.4903
  151DOPC  C31118114  -0.005   4.285  15.315  0.0807 -0.3788 -0.1156
  151DOPC  H11X18115   0.009   4.245  15.417 -1.3895  0.4415  0.4438
  151DOPC  H11Y18116   0.095   4.329  15.297  0.9162 -1.9198  0.6077
  151DOPC  C31218117  -0.015   4.178  15.208 -0.4530  0.6761  0.6315
  151DOPC  H12X18118   0.079   4.118  15.203 -0.5376  0.6471 -2.1474
  151DOPC  H12Y18119  -0.005   4.217  15.105 -1.0881  2.8281  1.3353
  151DOPC  C31318120  -0.137   4.085  15.226 -0.0245  1.0868  0.0183
  151DOPC  H13X18121  -0.106   3.983  15.197 -0.7017  0.8189  0.2095
  151DOPC  H13Y18122  -0.169   4.094  15.333  3.9439 -0.9327  1.5626
  151DOPC  C31418123  -0.259   4.117  15.143  0.0051 -0.0342 -0.3352
  151DOPC  H14X18124  -0.279   4.224  15.163  3.9348  1.0181 -1.1157
  151DOPC  H14Y18125  -0.226   4.107  15.038  1.7717 -3.1328  0.3625
  151DOPC  C31518126  -0.383   4.035  15.173 -0.3514 -0.0884 -0.6607
  151DOPC  H15X18127  -0.425   4.065  15.271  0.4441 -0.1054 -0.3031
  151DOPC  H15Y18128  -0.362   3.927  15.185 -1.9363 -0.8880 -4.0172
  151DOPC  C31618129  -0.478   4.039  15.055  0.4493  0.3224 -0.0284
  151DOPC  H16X18130  -0.438   4.018  14.953 -0.1621  0.9237 -0.3974
  151DOPC  H16Y18131  -0.567   3.975  15.075 -0.1292  0.7214 -1.2144
  151DOPC  C31718132  -0.544   4.182  15.036  0.6098 -0.1986 -0.1686
  151DOPC  H17X18133  -0.460   4.254  15.021  2.0967 -2.0920 -1.4682
  151DOPC  H17Y18134  -0.614   4.183  14.950 -0.1897  1.5035  0.4466
  151DOPC  C31818135  -0.613   4.238  15.163  0.9262 -0.4020  0.3842
  151DOPC  H18X18136  -0.622   4.348  15.160  0.9349 -0.4140 -1.0505
  151DOPC  H18Y18137  -0.712   4.188  15.170  1.5959 -1.9769 -0.6317
  151DOPC  H18Z18138  -0.563   4.225  15.261 -0.2904  1.0646  1.2243
  152DOPC     N18139   2.755   1.444  17.154  0.1740 -0.1094  0.3729
  152DOPC   C1218140   2.778   1.347  17.039 -0.7979 -0.1673 -0.0869
  152DOPC  H12A18141   2.683   1.299  17.022 -0.4767 -0.3353 -1.5497
  152DOPC  H12B18142   2.843   1.269  17.077 -0.0219  0.7257  0.4437
  152DOPC   C1318143   2.660   1.552  17.108 -0.3990 -0.1138  0.0289
  152DOPC  H13A18144   2.712   1.628  17.052  1.0430 -0.3190  1.0330
  152DOPC  H13B18145   2.579   1.513  17.049 -2.6106  2.7874  0.9399
  152DOPC  H13C18146   2.627   1.601  17.199  2.3078 -0.5147  1.3402
  152DOPC   C1418147   2.877   1.504  17.210 -0.2309  0.2189 -0.4109
  152DOPC  H14A18148   2.856   1.581  17.283  0.4588  0.8405 -0.8545
  152DOPC  H14B18149   2.944   1.431  17.252  1.3207  0.9346 -1.5440
  152DOPC  H14C18150   2.935   1.546  17.129  1.5665 -1.6612 -0.1869
  152DOPC   C1518151   2.694   1.371  17.269  0.2084 -0.4694 -0.1552
  152DOPC  H15A18152   2.613   1.310  17.231  0.3253  0.4709 -2.0171
  152DOPC  H15B18153   2.639   1.438  17.334  1.4999 -0.0002  0.4925
  152DOPC  H15C18154   2.760   1.316  17.334 -2.4921 -0.8504  2.5186
  152DOPC   C1118155   2.826   1.400  16.906  0.3012  0.0823 -0.3809
  152DOPC  H11A18156   2.818   1.313  16.837  1.4046 -0.1970 -0.1713
  152DOPC  H11B18157   2.757   1.472  16.856  0.1099  0.3432  0.2554
  152DOPC     P18158   3.088   1.356  16.960 -0.3982  0.3656  0.1526
  152DOPC   O1318159   3.058   1.211  16.932 -0.0374  0.5261 -0.0319
  152DOPC   O1418160   3.119   1.398  17.097 -0.0982 -0.0350 -0.4168
  152DOPC   O1218161   2.965   1.441  16.918 -0.3083 -0.5993  0.2409
  152DOPC   O1118162   3.209   1.402  16.860 -0.1559  0.1842 -0.1530
  152DOPC    C118163   3.216   1.526  16.797  0.2008 -1.0957 -0.1136
  152DOPC    HA18164   3.302   1.586  16.835 -1.8892  2.5767 -0.7727
  152DOPC    HB18165   3.132   1.594  16.822  1.5370  0.0993  1.3708
  152DOPC    C218166   3.234   1.512  16.642 -0.0345  0.1043 -1.0754
  152DOPC    HS18167   3.274   1.607  16.599  2.0450 -0.3127 -0.1958
  152DOPC   O2118168   3.110   1.479  16.583 -0.4459  0.8322  0.2230
  152DOPC   C2118169   3.013   1.564  16.572  0.4710 -0.6454 -0.0222
  152DOPC   O2218170   3.003   1.673  16.631  0.3122 -0.1633 -0.0792
  152DOPC   C2218171   2.901   1.512  16.474 -0.7408 -0.5077 -0.4828
  152DOPC   H2R18172   2.812   1.578  16.471 -1.0154 -0.8959 -2.8862
  152DOPC   H2S18173   2.863   1.423  16.529 -1.5829 -0.4322 -0.9331
  152DOPC    C318174   3.341   1.403  16.604  0.2478  0.1984  0.8810
  152DOPC    HX18175   3.294   1.309  16.640  2.6293 -1.2750  0.3304
  152DOPC    HY18176   3.443   1.421  16.645  1.4325 -2.2351 -0.7552
  152DOPC   O3118177   3.354   1.391  16.459  0.2494  0.1539  0.3549
  152DOPC   C3118178   3.439   1.473  16.399  0.0170 -0.2939  0.1846
  152DOPC   O3218179   3.490   1.573  16.449 -0.3737 -0.6239  0.1328
  152DOPC   C3218180   3.465   1.432  16.253  0.2462  0.8920 -0.4054
  152DOPC   H2X18181   3.571   1.398  16.254 -0.7472 -2.7242 -1.8720
  152DOPC   H2Y18182   3.399   1.346  16.228  0.9230 -0.1531  1.2333
  152DOPC   C2318183   2.941   1.472  16.335 -0.3972 -0.0860  0.2933
  152DOPC   H3R18184   2.854   1.410  16.305 -0.3420 -0.4486  0.8707
  152DOPC   H3S18185   3.038   1.417  16.329  0.8261  2.1083 -2.8351
  152DOPC   C2418186   2.932   1.596  16.231 -0.5194 -0.2394  0.2052
  152DOPC   H4R18187   3.030   1.648  16.236 -1.1444  0.9891 -0.0392
  152DOPC   H4S18188   2.846   1.659  16.263 -0.7574 -1.0558  1.2502
  152DOPC   C2518189   2.921   1.527  16.093 -0.1395 -0.0891  0.1051
  152DOPC   H5R18190   2.822   1.480  16.074 -0.5849  0.8032  0.1603
  152DOPC   H5S18191   3.001   1.450  16.101 -0.7701 -0.6928  0.7865
  152DOPC   C2618192   2.941   1.633  15.980  0.5822  1.1675 -0.1948
  152DOPC   H6R18193   3.037   1.688  15.992 -0.8981  3.7332  0.4644
  152DOPC   H6S18194   2.862   1.710  15.989  0.4797  0.8415  2.3653
  152DOPC   C2718195   2.922   1.555  15.850 -0.6352 -0.2853  0.1871
  152DOPC   H7R18196   2.836   1.487  15.867  0.6023 -2.1960 -0.9105
  152DOPC   H7S18197   3.013   1.493  15.835 -1.2296 -1.2905  0.6415
  152DOPC   C2818198   2.893   1.631  15.724  0.6033  0.2520 -0.3456
  152DOPC   H8R18199   2.801   1.690  15.745 -0.8613 -1.7093 -0.8870
  152DOPC   H8S18200   2.867   1.550  15.652 -0.5380  0.9692 -0.7850
  152DOPC   C2918201   2.993   1.725  15.672 -0.5325  0.6991 -0.4559
  152DOPC   H9R18202   2.983   1.827  15.711 -0.2184  0.3655  0.5286
  152DOPC  C21018203   3.097   1.701  15.589  0.3422  0.4261 -0.6403
  152DOPC  H10R18204   3.153   1.790  15.557  1.4444 -0.4996 -1.4180
  152DOPC  C21118205   3.142   1.577  15.518 -0.0997 -0.2234  0.0679
  152DOPC  H11R18206   3.057   1.506  15.526 -0.5751  0.0080 -2.2176
  152DOPC  H11S18207   3.234   1.535  15.563  2.2162  3.1742 -1.0662
  152DOPC  C21218208   3.169   1.598  15.362  0.5726  0.1551 -0.2520
  152DOPC  H12R18209   3.254   1.669  15.365  1.5421 -0.9992  0.9937
  152DOPC  H12S18210   3.084   1.653  15.316  1.4186  0.2164 -1.7846
  152DOPC  C21318211   3.223   1.476  15.291  0.4489 -0.2541 -0.7883
  152DOPC  H13R18212   3.143   1.399  15.301 -0.2720  0.3725 -1.5835
  152DOPC  H13S18213   3.306   1.453  15.361 -1.7500 -0.6698  1.9019
  152DOPC  C21418214   3.263   1.501  15.137  0.2638 -0.5810 -0.1603
  152DOPC  H14R18215   3.336   1.584  15.148  1.4834 -1.2608 -2.5693
  152DOPC  H14S18216   3.176   1.545  15.084  1.1029  2.0535  0.4496
  152DOPC  C21518217   3.329   1.382  15.080 -0.6641  0.3653 -0.6930
  152DOPC  H15R18218   3.273   1.288  15.102  0.6581 -0.0458  1.1125
  152DOPC  H15S18219   3.425   1.373  15.136 -1.8976  0.0472  1.4826
  152DOPC  C21618220   3.362   1.394  14.938 -0.7361  0.1207  0.5463
  152DOPC  H16R18221   3.452   1.452  14.907  0.1581 -1.7959 -0.6245
  152DOPC  H16S18222   3.267   1.423  14.888 -1.9273  2.5438  3.8254
  152DOPC  C21718223   3.410   1.254  14.885 -0.4185  0.2382  0.3929
  152DOPC  H17R18224   3.319   1.192  14.871  0.2503 -0.6066 -0.4242
  152DOPC  H17S18225   3.478   1.207  14.960  0.2539 -0.1454 -0.4373
  152DOPC  C21818226   3.489   1.266  14.750  1.4137  0.0404 -0.3671
  152DOPC  H18R18227   3.588   1.316  14.763  0.7014  1.2697  0.6466
  152DOPC  H18S18228   3.428   1.329  14.681  0.9721 -0.2755 -0.2717
  152DOPC  H18T18229   3.509   1.168  14.703  0.8135 -1.1614  1.7436
  152DOPC   C3318230   3.448   1.540  16.153 -0.1551  0.2086  0.1698
  152DOPC   H3X18231   3.514   1.623  16.188 -1.2512  0.7933  0.9191
  152DOPC   H3Y18232   3.349   1.591  16.148 -1.2061 -1.7373  0.1458
  152DOPC   C3418233   3.489   1.516  16.011 -0.1817 -0.4703 -0.1660
  152DOPC   H4X18234   3.597   1.500  15.989  0.2644 -0.9834  2.1363
  152DOPC   H4Y18235   3.442   1.600  15.956 -1.9975 -1.3101  0.0300
  152DOPC   C3518236   3.412   1.397  15.955 -0.3413  0.3236  0.4938
  152DOPC   H5X18237   3.305   1.413  15.979 -1.1601 -1.5297 -1.5932
  152DOPC   H5Y18238   3.450   1.299  15.992 -0.7735  0.3966  1.1463
  152DOPC   C3618239   3.419   1.379  15.798 -0.0942 -0.0335  0.3884
  152DOPC   H6X18240   3.392   1.474  15.747 -1.7460 -1.0019 -0.6280
  152DOPC   H6Y18241   3.525   1.351  15.779 -0.4477 -0.7212 -0.6242
  152DOPC   C3718242   3.323   1.277  15.736 -0.3417 -0.1746  0.4431
  152DOPC   H7X18243   3.337   1.188  15.801  0.7062 -0.2821  0.1005
  152DOPC   H7Y18244   3.222   1.323  15.740 -0.4352 -0.4389  1.1670
  152DOPC   C3818245   3.352   1.251  15.588 -0.0298  0.5545 -0.3452
  152DOPC   H8X18246   3.462   1.240  15.579 -0.0068 -1.7441  1.6562
  152DOPC   H8Y18247   3.318   1.340  15.533  2.9177  2.0120 -0.0216
  152DOPC   C3918248   3.282   1.125  15.542  0.2560  0.2114  0.2914
  152DOPC   H9X18249   3.173   1.119  15.555 -0.0556 -0.1038 -1.9293
  152DOPC  C31018250   3.343   1.017  15.489  0.8327  0.3088  0.1168
  152DOPC  H10X18251   3.284   0.931  15.455 -2.9870  1.6930  2.6032
  152DOPC  C31118252   3.486   1.007  15.466 -0.7888 -0.3121  0.3100
  152DOPC  H11X18253   3.541   0.977  15.558 -0.5642 -0.0496  0.2627
  152DOPC  H11Y18254   3.531   1.103  15.433 -0.4555 -0.0457  1.4699
  152DOPC  C31218255   3.537   0.893  15.376 -0.6084 -0.2600  0.9313
  152DOPC  H12X18256   3.503   0.796  15.418  0.8193 -0.7864  0.9314
  152DOPC  H12Y18257   3.648   0.897  15.374 -0.5301 -1.8861 -1.5478
  152DOPC  C31318258   3.483   0.904  15.237  0.8179  0.2179 -0.1084
  152DOPC  H13X18259   3.384   0.855  15.252  1.1003  0.0810  1.4691
  152DOPC  H13Y18260   3.476   1.013  15.214 -1.2501 -0.4915 -3.6001
  152DOPC  C31418261   3.560   0.828  15.120  0.9954  0.3137 -0.2924
  152DOPC  H14X18262   3.666   0.860  15.120  0.8911  0.7421 -2.4602
  152DOPC  H14Y18263   3.560   0.721  15.153  1.7438  0.3418 -0.1734
  152DOPC  C31518264   3.502   0.847  14.979  0.1849 -0.4907 -0.0764
  152DOPC  H15X18265   3.468   0.951  14.964  0.6475  0.2280  3.0293
  152DOPC  H15Y18266   3.414   0.781  14.965  0.4890 -0.5481 -1.8928
  152DOPC  C31618267   3.605   0.796  14.881 -0.6546  1.0029  0.0260
  152DOPC  H16X18268   3.709   0.799  14.921 -0.9018 -1.2766  0.9861
  152DOPC  H16Y18269   3.583   0.687  14.871  2.8433  0.1715 -0.1096
  152DOPC  C31718270   3.594   0.861  14.743  1.0117  0.6652 -0.1455
  152DOPC  H17X18271   3.489   0.842  14.712  0.7422 -0.6652  1.4570
  152DOPC  H17Y18272   3.604   0.972  14.739 -1.0170  0.9141  0.6231
  152DOPC  C31818273   3.677   0.792  14.639 -0.2070  0.0800 -0.7341
  152DOPC  H18X18274   3.779   0.835  14.637  0.6429 -1.8144 -0.5549
  152DOPC  H18Y18275   3.687   0.682  14.655 -2.4251 -0.1576 -0.6365
  152DOPC  H18Z18276   3.631   0.805  14.539  0.4496 -2.3335 -1.4196
  153DOPC     N18277   5.354   6.638  16.620  0.1080 -0.1403  0.6417
  153DOPC   C1218278   5.230   6.542  16.603 -0.0873 -0.2903  1.0126
  153DOPC  H12A18279   5.210   6.479  16.687 -1.4149  1.2786  1.9400
  153DOPC  H12B18280   5.250   6.464  16.531 -1.4732 -0.7400  1.0920
  153DOPC   C1318281   5.477   6.555  16.636  0.5669 -0.4039 -0.3222
  153DOPC  H13A18282   5.460   6.466  16.696  1.4086 -0.3109  0.0724
  153DOPC  H13B18283   5.502   6.528  16.535 -2.1151 -1.1095 -0.8592
  153DOPC  H13C18284   5.548   6.615  16.693  0.6410 -0.0082 -0.8313
  153DOPC   C1418285   5.333   6.724  16.743 -0.7588  0.2127 -0.4744
  153DOPC  H14A18286   5.408   6.801  16.736 -1.1828  0.6185 -0.6308
  153DOPC  H14B18287   5.232   6.762  16.738 -0.1592  1.7523 -3.6423
  153DOPC  H14C18288   5.355   6.669  16.833 -2.4904 -0.0183 -0.1580
  153DOPC   C1518289   5.380   6.722  16.500  0.0879 -0.1836 -0.1115
  153DOPC  H15A18290   5.477   6.770  16.510  0.1598 -0.6404  2.0570
  153DOPC  H15B18291   5.307   6.801  16.508 -1.7116 -1.8941  1.4143
  153DOPC  H15C18292   5.379   6.658  16.413  2.4636 -0.9883  0.3771
  153DOPC   C1118293   5.090   6.610  16.579 -0.8871  0.2211  0.4685
  153DOPC  H11A18294   5.102   6.690  16.503 -0.8528 -0.4536 -0.2479
  153DOPC  H11B18295   5.031   6.532  16.526 -0.8561 -1.2100  2.4613
  153DOPC     P18296   4.976   6.576  16.810  0.0389 -0.0642 -0.0392
  153DOPC   O1318297   4.994   6.661  16.927 -0.2272  0.0173 -0.0104
  153DOPC   O1418298   5.051   6.451  16.812 -0.0423  0.1721  0.2061
  153DOPC   O1218299   5.023   6.666  16.691  0.0762  0.4798  0.1895
  153DOPC   O1118300   4.827   6.543  16.784 -0.1446  0.1721  0.0529
  153DOPC    C118301   4.738   6.649  16.751  0.5713 -0.0107 -0.1250
  153DOPC    HA18302   4.783   6.702  16.664  0.0723 -0.3383 -0.5887
  153DOPC    HB18303   4.725   6.720  16.836 -0.7254 -0.3229 -0.0319
  153DOPC    C218304   4.594   6.595  16.723  0.2908  0.9157  0.1179
  153DOPC    HS18305   4.596   6.519  16.804  2.9109  2.0624  1.2628
  153DOPC   O2118306   4.596   6.540  16.596  0.4353  0.2521  0.0782
  153DOPC   C2118307   4.494   6.460  16.572 -0.8073  0.0475  0.5233
  153DOPC   O2218308   4.426   6.399  16.653  0.2425  0.0925  0.1734
  153DOPC   C2218309   4.488   6.452  16.412  0.5931 -0.6886  0.2421
  153DOPC   H2R18310   4.586   6.426  16.367  0.1962  0.0010 -1.0799
  153DOPC   H2S18311   4.473   6.558  16.383 -1.5340 -0.8301  0.6510
  153DOPC    C318312   4.479   6.699  16.745  0.4497  0.0171 -0.1254
  153DOPC    HX18313   4.512   6.765  16.828 -0.8604  0.7178 -0.1393
  153DOPC    HY18314   4.388   6.642  16.774  0.8830 -0.2677  0.7289
  153DOPC   O3118315   4.450   6.786  16.631  0.5720  0.6311  0.3530
  153DOPC   C3118316   4.545   6.868  16.592 -0.4788  0.0186 -0.7620
  153DOPC   O3218317   4.643   6.908  16.659  0.3610  0.0447 -0.4225
  153DOPC   C3218318   4.540   6.869  16.443 -0.4744  0.6133 -0.2566
  153DOPC   H2X18319   4.455   6.809  16.404 -1.0116  1.1609  0.0665
  153DOPC   H2Y18320   4.524   6.971  16.404  1.1152  0.3876 -1.6034
  153DOPC   C2318321   4.374   6.354  16.367  0.2803  0.2622 -0.5700
  153DOPC   H3R18322   4.279   6.401  16.401  0.5815  0.6125 -0.1962
  153DOPC   H3S18323   4.383   6.260  16.426 -1.6744  1.1491  1.2946
  153DOPC   C2418324   4.370   6.326  16.220 -0.1087 -0.5060  0.4679
  153DOPC   H4R18325   4.472   6.301  16.184  0.3137  0.7457  0.7169
  153DOPC   H4S18326   4.343   6.414  16.158  1.8356 -0.7704 -0.8603
  153DOPC   C2518327   4.276   6.204  16.189 -0.4204  0.7606  0.8185
  153DOPC   H5R18328   4.168   6.232  16.197 -0.8070 -0.3588 -0.2770
  153DOPC   H5S18329   4.291   6.132  16.272 -1.0734 -1.0091 -0.5462
  153DOPC   C2618330   4.305   6.139  16.052 -0.2804  0.9823  0.7890
  153DOPC   H6R18331   4.236   6.052  16.052 -0.6843  1.2726 -1.2014
  153DOPC   H6S18332   4.414   6.122  16.040 -0.0115 -0.4297  4.0359
  153DOPC   C2718333   4.245   6.222  15.941  1.0241 -0.0433  0.5882
  153DOPC   H7R18334   4.288   6.324  15.936 -0.2090  0.4792  0.0383
  153DOPC   H7S18335   4.139   6.244  15.968  1.6678  2.8277  1.0667
  153DOPC   C2818336   4.246   6.161  15.801 -0.0329 -0.4783 -0.0293
  153DOPC   H8R18337   4.147   6.110  15.794 -0.1368 -0.5395  1.6807
  153DOPC   H8S18338   4.332   6.091  15.810 -0.9152 -1.8052 -1.4383
  153DOPC   C2918339   4.258   6.255  15.685 -0.2070 -0.2789  0.2334
  153DOPC   H9R18340   4.269   6.362  15.706 -3.0424  0.5369 -1.7507
  153DOPC  C21018341   4.260   6.215  15.559 -0.3888  0.3471  0.1492
  153DOPC  H10R18342   4.282   6.292  15.484  1.7181  0.3270  0.7081
  153DOPC  C21118343   4.250   6.078  15.506 -0.2027  0.3842 -0.4008
  153DOPC  H11R18344   4.145   6.047  15.486  0.5264 -2.9832  0.2747
  153DOPC  H11S18345   4.268   5.999  15.582 -0.7333 -0.5337 -1.1976
  153DOPC  C21218346   4.348   6.041  15.383  0.4522  0.6242  0.4980
  153DOPC  H12R18347   4.386   5.938  15.396  1.4704  0.7640 -1.1920
  153DOPC  H12S18348   4.435   6.111  15.378  2.1201 -1.3386  0.7969
  153DOPC  C21318349   4.273   6.024  15.243  0.7727 -0.6084 -0.1810
  153DOPC  H13R18350   4.253   6.127  15.207  3.5047 -0.1540 -0.6058
  153DOPC  H13S18351   4.177   5.968  15.252  0.6221 -0.6994 -2.0616
  153DOPC  C21418352   4.359   5.952  15.139  0.0030  0.8927  0.1605
  153DOPC  H14R18353   4.469   5.965  15.155  0.1023  0.2112  0.0479
  153DOPC  H14S18354   4.333   5.977  15.034  1.2182 -2.9489 -1.2111
  153DOPC  C21518355   4.332   5.799  15.159  0.0731 -0.3002  0.5343
  153DOPC  H15R18356   4.222   5.782  15.151  0.0486  0.7249 -2.5032
  153DOPC  H15S18357   4.360   5.769  15.262  1.1829  1.0224  0.6536
  153DOPC  C21618358   4.400   5.708  15.054  0.6657 -0.2721  0.4212
  153DOPC  H16R18359   4.509   5.727  15.049  0.7003 -0.4671  0.4056
  153DOPC  H16S18360   4.353   5.717  14.954  2.9035 -0.2254 -0.6636
  153DOPC  C21718361   4.374   5.559  15.088  0.0077  0.6736  0.0820
  153DOPC  H17R18362   4.267   5.530  15.079  0.5444 -1.6210  0.7023
  153DOPC  H17S18363   4.404   5.542  15.194 -0.6377 -1.2207 -0.0090
  153DOPC  C21818364   4.456   5.452  15.000 -1.0336 -0.1829  0.5469
  153DOPC  H18R18365   4.562   5.484  15.012 -1.4580  0.6614  2.3655
  153DOPC  H18S18366   4.428   5.445  14.893  0.0807 -1.0745  0.2934
  153DOPC  H18T18367   4.435   5.353  15.045  1.3492 -0.0602  2.1055
  153DOPC   C3318368   4.675   6.819  16.389 -0.2644 -0.7661 -0.2063
  153DOPC   H3X18369   4.703   6.719  16.429  0.4373 -0.6942 -0.5060
  153DOPC   H3Y18370   4.756   6.888  16.422  0.3309 -0.4213 -2.2875
  153DOPC   C3418371   4.679   6.814  16.234  0.0948  0.0283 -0.4481
  153DOPC   H4X18372   4.624   6.907  16.208  0.5582  1.2746  2.5876
  153DOPC   H4Y18373   4.613   6.732  16.199 -0.6339  1.6073 -3.0750
  153DOPC   C3518374   4.822   6.812  16.176 -0.6019 -0.2891 -0.1045
  153DOPC   H5X18375   4.883   6.724  16.205 -0.6518  0.1051  1.2838
  153DOPC   H5Y18376   4.884   6.889  16.227  1.1400 -1.4323 -0.3997
  153DOPC   C3618377   4.830   6.836  16.023 -0.1879 -0.3218 -0.8547
  153DOPC   H6X18378   4.765   6.763  15.970 -1.9713  1.4046 -1.1761
  153DOPC   H6Y18379   4.809   6.942  15.999  1.3598  0.6732  1.8063
  153DOPC   C3718380   4.966   6.797  15.962  0.4199 -0.4739 -0.9519
  153DOPC   H7X18381   5.039   6.879  15.982 -1.2520  1.3442 -1.8934
  153DOPC   H7Y18382   5.009   6.706  16.009  1.4147  1.4699  2.2447
  153DOPC   C3818383   4.954   6.772  15.814 -0.0641 -0.2565 -0.3154
  153DOPC   H8X18384   4.890   6.683  15.797 -0.5071 -0.3182  1.4315
  153DOPC   H8Y18385   5.057   6.748  15.781  0.6559  1.5132  0.5064
  153DOPC   C3918386   4.905   6.888  15.731 -0.1228 -0.7740 -0.4099
  153DOPC   H9X18387   4.830   6.953  15.779  1.0409 -1.4420  2.4571
  153DOPC  C31018388   4.944   6.933  15.614  0.1149 -0.1572  0.9484
  153DOPC  H10X18389   4.884   7.005  15.557  1.0798 -2.6170 -3.6293
  153DOPC  C31118390   5.054   6.863  15.532 -0.1493 -0.5610 -0.6637
  153DOPC  H11X18391   5.006   6.804  15.451 -1.1806 -0.2906 -0.2672
  153DOPC  H11Y18392   5.100   6.786  15.597 -0.9549  1.3147  2.2999
  153DOPC  C31218393   5.162   6.957  15.467  0.1192  0.3020  0.6245
  153DOPC  H12X18394   5.111   7.036  15.407  0.7160 -1.2017 -2.0564
  153DOPC  H12Y18395   5.215   6.885  15.400 -0.1734 -1.1057  1.8703
  153DOPC  C31318396   5.250   7.019  15.567 -0.0645 -0.0869  0.2590
  153DOPC  H13X18397   5.189   7.078  15.639 -0.1253 -0.1633  0.2710
  153DOPC  H13Y18398   5.302   6.941  15.627  0.1106  0.0929  0.3406
  153DOPC  C31418399   5.362   7.099  15.496 -0.3845 -0.0797  0.3618
  153DOPC  H14X18400   5.398   7.040  15.409 -3.3999 -1.6546  0.0393
  153DOPC  H14Y18401   5.316   7.196  15.469  1.9579  0.4788 -2.0153
  153DOPC  C31518402   5.479   7.125  15.588  0.7230 -0.0332 -0.1171
  153DOPC  H15X18403   5.515   7.037  15.646 -0.0941 -0.2813  0.0310
  153DOPC  H15Y18404   5.448   7.205  15.659 -2.8622 -0.4597 -1.0090
  153DOPC  C31618405   5.598   7.190  15.516  0.2748  0.0715  0.1289
  153DOPC  H16X18406   5.557   7.276  15.459 -1.7312 -2.5790 -2.7909
  153DOPC  H16Y18407   5.676   7.232  15.582  1.5223  0.6112 -1.5939
  153DOPC  C31718408   5.681   7.112  15.413  0.1442 -0.8229  0.4822
  153DOPC  H17X18409   5.695   7.003  15.428  1.5979 -1.0280 -1.8936
  153DOPC  H17Y18410   5.620   7.110  15.320  1.7202  0.5244 -0.6298
  153DOPC  C31818411   5.810   7.182  15.379  0.9145 -0.1621  0.1964
  153DOPC  H18X18412   5.866   7.125  15.301  0.7231  2.1031 -1.7032
  153DOPC  H18Y18413   5.796   7.285  15.340 -0.8586 -1.3617 -2.6058
  153DOPC  H18Z18414   5.875   7.179  15.470  0.5532 -1.6607  0.4298
  154DOPC     N18415   5.997   5.717  16.980 -0.1449  0.1162  0.7650
  154DOPC   C1218416   5.991   5.660  16.835 -0.8228  0.0892  0.3590
  154DOPC  H12A18417   6.077   5.598  16.817 -0.1733  0.3101  2.4410
  154DOPC  H12B18418   5.995   5.750  16.775  0.6714  1.7101  2.7199
  154DOPC   C1318419   6.110   5.806  16.986  0.2616 -0.5485  0.2556
  154DOPC  H13A18420   6.108   5.866  17.075  0.8419  2.9163 -1.8786
  154DOPC  H13B18421   6.205   5.757  16.977  0.6560  0.5036 -2.0514
  154DOPC  H13C18422   6.098   5.887  16.916 -0.6145 -0.1944  0.7924
  154DOPC   C1418423   6.026   5.616  17.083 -0.4096 -0.3122 -0.4294
  154DOPC  H14A18424   6.111   5.558  17.053 -1.0102 -0.5182 -1.8539
  154DOPC  H14B18425   6.044   5.661  17.179 -1.3899  1.6109 -1.0775
  154DOPC  H14C18426   5.935   5.559  17.088 -0.9826  0.5117 -1.0386
  154DOPC   C1518427   5.868   5.792  17.025 -0.3020 -0.2737 -0.0380
  154DOPC  H15A18428   5.861   5.889  16.979 -1.3234 -0.5898 -0.5906
  154DOPC  H15B18429   5.878   5.798  17.132  0.4802 -1.9686  0.0129
  154DOPC  H15C18430   5.782   5.731  17.000 -0.2235  0.2671 -1.7720
  154DOPC   C1118431   5.874   5.570  16.800  0.6289  0.0685  0.2038
  154DOPC  H11A18432   5.784   5.634  16.800  2.0534  2.1441  0.6022
  154DOPC  H11B18433   5.887   5.530  16.697  0.8062 -1.6913  0.8623
  154DOPC     P18434   5.940   5.317  16.838  0.0344  0.1484 -0.3885
  154DOPC   O1318435   5.946   5.230  16.958  0.1962 -0.4267  0.3390
  154DOPC   O1418436   6.068   5.351  16.772 -0.1016 -0.2462 -0.2307
  154DOPC   O1218437   5.865   5.456  16.884 -0.0210 -0.0231 -0.1637
  154DOPC   O1118438   5.845   5.248  16.728 -0.4074 -0.3124  0.3757
  154DOPC    C118439   5.718   5.219  16.770  0.2511 -0.2329 -0.2750
  154DOPC    HA18440   5.668   5.319  16.770  1.1365  0.2283 -1.3739
  154DOPC    HB18441   5.715   5.182  16.875  1.2227 -2.2746 -0.9338
  154DOPC    C218442   5.646   5.118  16.688  0.6815  0.6517  0.7749
  154DOPC    HS18443   5.701   5.022  16.705 -2.0948 -1.4953 -1.2862
  154DOPC   O2118444   5.652   5.149  16.547  0.3674  0.2397 -0.5015
  154DOPC   C2118445   5.754   5.113  16.479  0.3269 -0.1646 -0.3332
  154DOPC   O2218446   5.839   5.032  16.505  0.0018 -0.2031 -0.3858
  154DOPC   C2218447   5.752   5.200  16.354  0.3113  0.7943 -0.1225
  154DOPC   H2R18448   5.804   5.147  16.271 -1.9528 -0.3372 -0.8966
  154DOPC   H2S18449   5.815   5.290  16.371  1.8653 -0.0790 -1.0764
  154DOPC    C318450   5.496   5.107  16.725 -0.2904  0.7231  0.2973
  154DOPC    HX18451   5.467   5.214  16.719 -0.2109  0.6578 -3.5002
  154DOPC    HY18452   5.490   5.065  16.828  0.7429  0.1198  0.1274
  154DOPC   O3118453   5.411   5.046  16.626  0.3047  0.5706 -0.0268
  154DOPC   C3118454   5.391   4.913  16.648  0.4751 -0.4850  0.3559
  154DOPC   O3218455   5.442   4.851  16.742 -0.3754 -0.2449 -0.3210
  154DOPC   C3218456   5.314   4.843  16.540 -0.4159  0.3203  0.1217
  154DOPC   H2X18457   5.318   4.736  16.571  1.2118 -0.7457 -3.1973
  154DOPC   H2Y18458   5.207   4.872  16.541 -0.5183  0.1350 -1.7500
  154DOPC   C2318459   5.613   5.233  16.300 -0.2278  0.2562 -0.0834
  154DOPC   H3R18460   5.560   5.310  16.361 -1.5049 -1.3437  0.9148
  154DOPC   H3S18461   5.543   5.147  16.290 -1.9248  1.5856 -0.1676
  154DOPC   C2418462   5.623   5.289  16.160 -0.1389  0.5941 -0.1291
  154DOPC   H4R18463   5.520   5.294  16.118  0.0294  1.5096 -0.4769
  154DOPC   H4S18464   5.670   5.221  16.086 -0.3994  0.6425 -0.3419
  154DOPC   C2518465   5.692   5.427  16.157 -0.3194  0.3078 -0.0762
  154DOPC   H5R18466   5.792   5.426  16.206  0.4264 -1.3038 -1.5686
  154DOPC   H5S18467   5.630   5.495  16.221 -1.2310 -0.8473  0.3211
  154DOPC   C2618468   5.709   5.485  16.019  0.5514  0.0655 -0.7448
  154DOPC   H6R18469   5.785   5.424  15.966 -0.9892 -1.2520 -1.5532
  154DOPC   H6S18470   5.753   5.586  16.031  0.3268 -0.0767  1.9797
  154DOPC   C2718471   5.579   5.471  15.935 -0.0751 -0.0455  0.4577
  154DOPC   H7R18472   5.490   5.517  15.983 -0.3901 -0.4468  0.2620
  154DOPC   H7S18473   5.559   5.363  15.921 -0.9224  0.0862  0.6487
  154DOPC   C2818474   5.583   5.545  15.797  0.6018  0.1134  0.4151
  154DOPC   H8R18475   5.588   5.654  15.817 -3.9094  0.2059  2.3469
  154DOPC   H8S18476   5.478   5.525  15.767 -0.6259  2.3403  2.8120
  154DOPC   C2918477   5.684   5.489  15.702 -0.9392  0.3800 -0.2024
  154DOPC   H9R18478   5.664   5.385  15.670 -0.1378 -0.0986  0.7879
  154DOPC  C21018479   5.795   5.554  15.668 -0.3865 -0.4679  0.3345
  154DOPC  H10R18480   5.876   5.503  15.613  2.3853  1.7361  2.1210
  154DOPC  C21118481   5.835   5.698  15.704  0.0520  0.3774  0.0576
  154DOPC  H11R18482   5.848   5.709  15.814 -0.4038  2.3851 -0.0634
  154DOPC  H11S18483   5.756   5.772  15.680 -0.7367 -0.9381 -1.6963
  154DOPC  C21218484   5.962   5.746  15.623 -0.6756 -0.4152 -0.6013
  154DOPC  H12R18485   6.041   5.668  15.625 -0.1215  0.1599  1.1392
  154DOPC  H12S18486   5.999   5.834  15.678  2.0679 -1.2275 -0.9821
  154DOPC  C21318487   5.927   5.789  15.479  0.3693  0.1027  0.7231
  154DOPC  H13R18488   5.883   5.886  15.509  2.5458  1.2092  0.5677
  154DOPC  H13S18489   5.846   5.730  15.431 -0.2074  0.7725  0.8573
  154DOPC  C21418490   6.042   5.791  15.382 -0.1746 -0.3069 -0.1435
  154DOPC  H14R18491   6.081   5.689  15.358  0.5543 -1.1778  3.9981
  154DOPC  H14S18492   6.133   5.841  15.421  1.2840 -0.2321 -3.3281
  154DOPC  C21518493   6.004   5.867  15.253 -0.6170 -0.2710  0.6325
  154DOPC  H15R18494   5.968   5.965  15.291  2.6828  1.7618 -1.0081
  154DOPC  H15S18495   5.915   5.819  15.207  0.7092 -1.2285 -1.0591
  154DOPC  C21618496   6.122   5.886  15.150  0.3387 -0.3551 -0.9176
  154DOPC  H16R18497   6.074   5.941  15.066 -0.9382  0.6032  0.3963
  154DOPC  H16S18498   6.158   5.789  15.111  0.1780 -1.9549  2.6240
  154DOPC  C21718499   6.235   5.976  15.198 -0.1324  0.3779 -0.4236
  154DOPC  H17R18500   6.300   5.918  15.267 -1.1095 -1.9736 -1.3660
  154DOPC  H17S18501   6.196   6.055  15.265  0.9717 -0.0593  0.7685
  154DOPC  C21818502   6.315   6.040  15.086  0.0138 -0.3626  0.0887
  154DOPC  H18R18503   6.257   6.114  15.027  1.7317  0.1445 -1.0322
  154DOPC  H18S18504   6.355   5.962  15.019 -1.9834 -1.4521  0.0709
  154DOPC  H18T18505   6.402   6.091  15.133 -0.1582  0.5352 -0.5224
  154DOPC   C3318506   5.361   4.864  16.390  0.6957 -0.8808 -0.3974
  154DOPC   H3X18507   5.472   4.860  16.386  0.7580 -0.0557  0.2001
  154DOPC   H3Y18508   5.332   4.962  16.348  0.2800 -1.4158 -1.3723
  154DOPC   C3418509   5.303   4.764  16.293 -0.7427 -0.5103  0.0904
  154DOPC   H4X18510   5.194   4.785  16.292 -0.6825 -0.0410  1.3265
  154DOPC   H4Y18511   5.320   4.663  16.334  1.4915 -0.6616 -1.0535
  154DOPC   C3518512   5.375   4.781  16.154  0.0637 -0.0140 -0.9405
  154DOPC   H5X18513   5.481   4.794  16.186 -0.6992  1.2599  1.2826
  154DOPC   H5Y18514   5.335   4.873  16.105  0.1401  0.5965  0.1050
  154DOPC   C3618515   5.361   4.662  16.057  0.3284 -0.4818 -0.2563
  154DOPC   H6X18516   5.431   4.675  15.972 -0.0403 -1.6937 -0.7784
  154DOPC   H6Y18517   5.386   4.563  16.100  0.1730 -0.4929 -0.1882
  154DOPC   C3718518   5.220   4.647  15.998  0.1707 -0.9179 -0.0671
  154DOPC   H7X18519   5.208   4.565  15.925  0.1727  1.5537 -3.0445
  154DOPC   H7Y18520   5.147   4.637  16.081 -1.1059 -1.2426 -1.2090
  154DOPC   C3818521   5.173   4.767  15.907 -0.4383  0.6219 -0.6007
  154DOPC   H8X18522   5.157   4.848  15.981  0.4462  0.3566 -0.1093
  154DOPC   H8Y18523   5.072   4.742  15.867  0.2257 -1.1157 -1.3232
  154DOPC   C3918524   5.262   4.818  15.797 -0.4485  0.3774  0.2793
  154DOPC   H9X18525   5.358   4.863  15.827  0.1373 -1.3752  1.1939
  154DOPC  C31018526   5.245   4.800  15.667  0.2904 -0.1447  0.0143
  154DOPC  H10X18527   5.316   4.848  15.597 -1.3657 -0.3587 -1.9103
  154DOPC  C31118528   5.130   4.728  15.600  0.4447  0.1004 -0.0228
  154DOPC  H11X18529   5.031   4.750  15.645 -2.0178 -0.5419 -4.5761
  154DOPC  H11Y18530   5.154   4.620  15.615 -0.5470 -0.1988 -0.5203
  154DOPC  C31218531   5.121   4.757  15.446 -0.0422 -0.0361  0.3112
  154DOPC  H12X18532   5.064   4.682  15.387 -0.1094  0.7156 -0.6126
  154DOPC  H12Y18533   5.227   4.739  15.415 -0.6508 -2.1148 -0.7528
  154DOPC  C31318534   5.088   4.901  15.403 -0.7550  0.4042 -0.3926
  154DOPC  H13X18535   4.988   4.930  15.440 -0.0993  0.5288  1.3800
  154DOPC  H13Y18536   5.162   4.974  15.443  1.7387 -1.5046 -1.2463
  154DOPC  C31418537   5.094   4.920  15.248 -0.1305 -0.1242 -0.1857
  154DOPC  H14X18538   5.064   5.027  15.237 -1.6195 -0.3584  1.2670
  154DOPC  H14Y18539   5.194   4.905  15.202  0.6244  1.7155  0.7521
  154DOPC  C31518540   4.986   4.831  15.179 -0.1636 -0.1470 -0.4207
  154DOPC  H15X18541   4.896   4.857  15.239  0.4702  1.7849 -0.2154
  154DOPC  H15Y18542   5.007   4.725  15.202 -0.1641  0.0592  0.5825
  154DOPC  C31618543   4.962   4.839  15.028  0.0927  0.4660  0.5165
  154DOPC  H16X18544   4.891   4.762  14.990  1.3856  0.2515 -1.6233
  154DOPC  H16Y18545   4.902   4.927  14.997  0.5353  0.1842 -1.2579
  154DOPC  C31718546   5.090   4.831  14.941 -0.0808  0.2852 -0.5503
  154DOPC  H17X18547   5.144   4.924  14.968 -1.1842  0.4388  1.3020
  154DOPC  H17Y18548   5.148   4.741  14.970 -1.4215  0.1437  2.0478
  154DOPC  C31818549   5.063   4.841  14.788  0.4117  0.4874 -0.1302
  154DOPC  H18X18550   5.157   4.857  14.731  0.2167 -0.1590 -0.6564
  154DOPC  H18Y18551   5.024   4.752  14.735  0.5688  0.7205 -0.6539
  154DOPC  H18Z18552   4.992   4.924  14.767 -1.4772 -0.7851  0.9124
  155DOPC     N18553   0.726   2.607  17.156  0.5094  0.2705 -0.3001
  155DOPC   C1218554   0.712   2.542  17.026 -0.1904 -0.1060  0.3230
  155DOPC  H12A18555   0.786   2.585  16.961 -0.4393 -0.6145 -0.3081
  155DOPC  H12B18556   0.621   2.572  16.978  0.4389 -0.5656 -1.1953
  155DOPC   C1318557   0.612   2.590  17.251  0.5739  0.3934  0.0879
  155DOPC  H13A18558   0.619   2.650  17.341 -1.3199  1.1735 -0.2470
  155DOPC  H13B18559   0.519   2.618  17.205  1.0918  3.1569  0.5168
  155DOPC  H13C18560   0.601   2.490  17.289 -0.3679  0.5957  0.3729
  155DOPC   C1418561   0.724   2.755  17.130 -0.2915  0.2482 -0.4174
  155DOPC  H14A18562   0.809   2.781  17.068  1.9038 -4.6670  0.1150
  155DOPC  H14B18563   0.627   2.779  17.089 -0.6428 -1.6715 -0.7884
  155DOPC  H14C18564   0.734   2.803  17.227 -0.9502 -0.7912  0.1741
  155DOPC   C1518565   0.853   2.562  17.226  0.8833 -0.4087  0.0272
  155DOPC  H15A18566   0.860   2.594  17.328 -1.3897  0.9143 -0.1765
  155DOPC  H15B18567   0.938   2.605  17.175  1.4437 -0.9300  0.5087
  155DOPC  H15C18568   0.855   2.455  17.209 -0.9739 -0.2416 -1.6747
  155DOPC   C1118569   0.739   2.391  17.015 -1.0836  0.2312  0.1653
  155DOPC  H11A18570   0.681   2.338  17.093  2.1515 -2.3794  1.0155
  155DOPC  H11B18571   0.693   2.357  16.920 -2.0506  0.5468  0.5012
  155DOPC     P18572   0.995   2.422  16.933  0.1256 -0.0489 -0.2188
  155DOPC   O1318573   1.099   2.326  16.910  0.3497  0.0893  0.4882
  155DOPC   O1418574   1.044   2.553  16.988 -0.2435 -0.0673  0.1737
  155DOPC   O1218575   0.881   2.364  17.022 -0.6083 -0.3432  0.6669
  155DOPC   O1118576   0.926   2.450  16.796 -0.1890  0.2180 -0.6881
  155DOPC    C118577   0.893   2.340  16.712 -0.1731 -1.0124 -0.6058
  155DOPC    HA18578   0.797   2.365  16.662 -0.7301  0.7931  1.2003
  155DOPC    HB18579   0.878   2.243  16.763 -0.7431 -0.3504  0.5301
  155DOPC    C218580   0.999   2.310  16.602 -0.9841  0.0918 -0.4892
  155DOPC    HS18581   1.103   2.295  16.637  0.6277  0.5050 -4.5451
  155DOPC   O2118582   0.996   2.410  16.508 -0.0042  0.0172  0.6440
  155DOPC   C2118583   1.083   2.506  16.514  0.2218 -0.7569 -0.4846
  155DOPC   O2218584   1.187   2.502  16.581  0.2250 -0.1694 -0.3674
  155DOPC   C2218585   1.048   2.615  16.407  0.6021  0.2744 -0.1149
  155DOPC   H2R18586   1.006   2.701  16.464  1.5279  1.5033 -1.2156
  155DOPC   H2S18587   0.967   2.581  16.339 -1.2107  2.1168  1.0148
  155DOPC    C318588   0.975   2.164  16.550  0.0601 -0.3082  0.1702
  155DOPC    HX18589   0.864   2.160  16.553  0.0943 -0.7955  1.5425
  155DOPC    HY18590   1.021   2.092  16.621  2.6058  0.9775 -0.0504
  155DOPC   O3118591   1.020   2.142  16.413 -0.2431 -0.2570  0.0749
  155DOPC   C3118592   0.938   2.173  16.314  0.1072  0.0271 -0.2434
  155DOPC   O3218593   0.828   2.224  16.335  0.3202  0.2042  0.1745
  155DOPC   C3218594   1.009   2.137  16.182  0.1610  0.0915  0.2835
  155DOPC   H2X18595   1.097   2.204  16.177  0.2821 -0.1365 -1.0070
  155DOPC   H2Y18596   1.033   2.028  16.185 -1.2530 -0.2622 -0.2397
  155DOPC   C2318597   1.165   2.661  16.316  0.2207 -0.6820 -0.1403
  155DOPC   H3R18598   1.254   2.693  16.374  0.0889  1.2712 -0.9518
  155DOPC   H3S18599   1.134   2.753  16.262 -1.0846 -0.2805  1.2192
  155DOPC   C2418600   1.199   2.559  16.217  0.5179 -0.9286  0.3664
  155DOPC   H4R18601   1.109   2.526  16.161  0.6436  0.0113 -0.4056
  155DOPC   H4S18602   1.240   2.474  16.275  2.5328 -0.6871 -0.6431
  155DOPC   C2518603   1.331   2.591  16.138  0.3890 -0.0614 -0.0888
  155DOPC   H5R18604   1.417   2.581  16.207  0.1544 -1.8193 -0.0040
  155DOPC   H5S18605   1.325   2.698  16.110 -0.8215 -0.3318 -0.9610
  155DOPC   C2618606   1.359   2.516  16.012  0.2845  0.4814  0.3792
  155DOPC   H6R18607   1.447   2.569  15.971 -0.2832  1.4198  0.3487
  155DOPC   H6S18608   1.276   2.513  15.938  1.6439  0.1078 -1.1685
  155DOPC   C2718609   1.383   2.364  16.037  0.1108  0.2076 -0.1380
  155DOPC   H7R18610   1.293   2.306  16.066  0.8760  0.0047  2.0273
  155DOPC   H7S18611   1.453   2.353  16.122  0.4247 -1.7171 -0.6130
  155DOPC   C2818612   1.456   2.294  15.913  0.3093  0.7079 -0.1352
  155DOPC   H8R18613   1.503   2.205  15.962 -0.4452  1.2909  1.7388
  155DOPC   H8S18614   1.542   2.361  15.892  1.3114 -0.2366  0.7455
  155DOPC   C2918615   1.370   2.266  15.790  0.7023 -0.2188 -0.0502
  155DOPC   H9R18616   1.302   2.350  15.768  0.1731  0.1705  2.7382
  155DOPC  C21018617   1.375   2.149  15.722  0.9370  0.6543  0.2737
  155DOPC  H10R18618   1.304   2.132  15.640  1.3812  3.6379 -0.8470
  155DOPC  C21118619   1.473   2.032  15.749  0.4894  0.1176 -0.3078
  155DOPC  H11R18620   1.548   2.059  15.826  0.2597  1.1246 -0.4223
  155DOPC  H11S18621   1.530   1.999  15.659  2.1309  0.6183  0.5026
  155DOPC  C21218622   1.416   1.898  15.812 -0.2454  0.0745 -0.6628
  155DOPC  H12R18623   1.484   1.813  15.835 -2.1424 -0.4432  4.1269
  155DOPC  H12S18624   1.334   1.866  15.744 -0.2491  0.7509 -0.9851
  155DOPC  C21318625   1.354   1.919  15.948  0.3022 -0.3109 -0.8216
  155DOPC  H13R18626   1.289   1.835  15.983 -1.3259  1.7046  1.2938
  155DOPC  H13S18627   1.291   2.010  15.955 -0.0577 -0.6898  2.1051
  155DOPC  C21418628   1.458   1.922  16.059 -0.1753  0.6142  0.1067
  155DOPC  H14R18629   1.543   1.988  16.030 -0.1383 -0.4904 -2.5648
  155DOPC  H14S18630   1.498   1.819  16.057  0.8908  1.0252 -0.3459
  155DOPC  C21518631   1.396   1.962  16.193  0.3394 -0.2036 -0.5904
  155DOPC  H15R18632   1.311   1.894  16.217 -0.9013  1.0639 -1.2484
  155DOPC  H15S18633   1.362   2.067  16.180  0.1382 -0.2881 -0.7635
  155DOPC  C21618634   1.492   1.963  16.316  0.0270  0.1659 -1.1740
  155DOPC  H16R18635   1.567   2.042  16.297 -0.7836  0.9406 -1.2399
  155DOPC  H16S18636   1.542   1.864  16.310 -0.4284 -0.1725  0.2437
  155DOPC  C21718637   1.426   1.988  16.450 -0.0690  0.3271  0.3169
  155DOPC  H17R18638   1.493   1.970  16.537 -0.1537  0.1630  0.3495
  155DOPC  H17S18639   1.348   1.909  16.454  0.6592 -0.4278 -0.1254
  155DOPC  C21818640   1.363   2.125  16.467  0.0189 -0.0677  0.1186
  155DOPC  H18R18641   1.320   2.138  16.569  2.0088  1.6083  0.8079
  155DOPC  H18S18642   1.284   2.147  16.392  1.2961  1.8301 -0.7450
  155DOPC  H18T18643   1.441   2.204  16.459 -0.5401  0.2910 -3.1635
  155DOPC   C3318644   0.925   2.159  16.061  0.4722  0.2468  0.4407
  155DOPC   H3X18645   0.879   2.260  16.066 -0.9487 -0.3127 -0.7000
  155DOPC   H3Y18646   0.836   2.093  16.067  0.6495 -0.0572 -0.2132
  155DOPC   C3418647   0.998   2.138  15.928 -0.0396 -0.1193  0.2961
  155DOPC   H4X18648   1.105   2.111  15.941  0.2560  1.4259  1.3353
  155DOPC   H4Y18649   0.989   2.228  15.863 -2.4427  0.9702  1.9561
  155DOPC   C3518650   0.938   2.023  15.837 -0.4947  0.0398  0.3438
  155DOPC   H5X18651   0.839   2.067  15.811  0.3524  2.3426  0.8765
  155DOPC   H5Y18652   0.936   1.924  15.888  2.0708 -0.3695 -0.2361
  155DOPC   C3618653   1.025   1.996  15.710 -0.9274 -0.1265 -0.0571
  155DOPC   H6X18654   1.051   2.091  15.659 -1.2554 -0.1128 -0.2026
  155DOPC   H6Y18655   1.117   1.943  15.742 -0.6571  0.2113 -0.2698
  155DOPC   C3718656   0.953   1.901  15.615  0.5943  0.2462  0.6150
  155DOPC   H7X18657   0.912   1.807  15.658 -2.0291  1.6680  1.4449
  155DOPC   H7Y18658   0.856   1.952  15.599 -0.5934 -0.6269  4.1034
  155DOPC   C3818659   1.017   1.868  15.479 -0.3633 -0.2738 -0.1327
  155DOPC   H8X18660   1.049   1.956  15.419 -1.4504  0.4429  0.3062
  155DOPC   H8Y18661   0.941   1.815  15.419 -0.6910  2.0079 -1.8465
  155DOPC   C3918662   1.138   1.780  15.503  0.0644 -0.1423  0.4295
  155DOPC   H9X18663   1.222   1.829  15.552  0.9524  0.5289 -1.6382
  155DOPC  C31018664   1.159   1.654  15.459  0.2929  0.7894 -0.1584
  155DOPC  H10X18665   1.249   1.594  15.479 -1.1363 -1.7430 -0.9282
  155DOPC  C31118666   1.064   1.562  15.377  0.6160 -0.6693 -0.0105
  155DOPC  H11X18667   0.977   1.621  15.341  2.1943  2.4660  0.8998
  155DOPC  H11Y18668   1.042   1.472  15.438  0.7950 -0.7482 -0.0635
  155DOPC  C31218669   1.132   1.524  15.242 -0.7540  0.4440 -0.6974
  155DOPC  H12X18670   1.053   1.468  15.189 -0.5853 -0.2000 -0.2837
  155DOPC  H12Y18671   1.231   1.475  15.260 -2.0709 -2.6579 -1.3313
  155DOPC  C31318672   1.159   1.638  15.148  0.0301 -0.3693 -0.2560
  155DOPC  H13X18673   1.069   1.704  15.143  0.7650  0.8034  1.3324
  155DOPC  H13Y18674   1.237   1.704  15.191 -0.1582  0.8332 -1.6264
  155DOPC  C31418675   1.199   1.597  15.011 -0.5526 -0.8901  0.0304
  155DOPC  H14X18676   1.222   1.683  14.944 -0.1443  0.5283  1.8997
  155DOPC  H14Y18677   1.295   1.546  15.034  0.1122 -0.6918 -2.1044
  155DOPC  C31518678   1.104   1.505  14.945  0.3764  0.7176  0.5435
  155DOPC  H15X18679   1.014   1.569  14.939  0.0047  0.0537 -2.4722
  155DOPC  H15Y18680   1.085   1.413  15.006  1.6398 -0.1338 -0.3024
  155DOPC  C31618681   1.138   1.456  14.801  0.5284 -0.3280  0.2042
  155DOPC  H16X18682   1.050   1.401  14.761  0.5451  0.0564 -0.3645
  155DOPC  H16Y18683   1.150   1.547  14.739  1.9820  1.6333  3.1779
  155DOPC  C31718684   1.271   1.383  14.803 -0.2589 -0.0698  0.0910
  155DOPC  H17X18685   1.359   1.446  14.829 -0.9032  1.5626 -1.4492
  155DOPC  H17Y18686   1.265   1.305  14.882 -0.4003 -1.2121 -1.0090
  155DOPC  C31818687   1.311   1.317  14.669  0.5043  0.1925  0.2883
  155DOPC  H18X18688   1.415   1.279  14.664  1.2546  2.1421  0.2284
  155DOPC  H18Y18689   1.258   1.219  14.668  2.3311 -0.8822 -2.3644
  155DOPC  H18Z18690   1.297   1.379  14.578  1.0974 -0.2950 -0.1458
  156DOPC     N18691   6.663   6.917  17.205  0.2616  0.7060 -0.3826
  156DOPC   C1218692   6.532   6.986  17.240 -0.0453  0.1378  0.1976
  156DOPC  H12A18693   6.562   7.039  17.329  0.5482 -0.5471  0.4184
  156DOPC  H12B18694   6.454   6.921  17.277 -0.9577  1.6332  0.9728
  156DOPC   C1318695   6.653   6.854  17.074  0.5911 -0.3287 -0.1807
  156DOPC  H13A18696   6.599   6.761  17.077  0.1599 -0.1011 -0.6656
  156DOPC  H13B18697   6.624   6.933  17.006 -1.3966  0.3756  1.3918
  156DOPC  H13C18698   6.755   6.833  17.045  1.2103  0.7893  1.0526
  156DOPC   C1418699   6.708   6.811  17.304 -0.5797  0.6051  0.0049
  156DOPC  H14A18700   6.805   6.768  17.283  0.2323  1.3020  2.0326
  156DOPC  H14B18701   6.727   6.859  17.399  1.5904 -0.2055  0.0381
  156DOPC  H14C18702   6.637   6.731  17.319  0.0800  0.1222  0.6786
  156DOPC   C1518703   6.766   7.016  17.192  0.1237 -0.4701  0.1627
  156DOPC  H15A18704   6.865   6.974  17.193  0.0705 -0.6543 -1.0693
  156DOPC  H15B18705   6.750   7.086  17.273  1.3423  1.3091 -1.0720
  156DOPC  H15C18706   6.760   7.075  17.102  0.2184  1.5312  1.3949
  156DOPC   C1118707   6.461   7.073  17.138  0.2271 -0.0400  0.2521
  156DOPC  H11A18708   6.435   7.001  17.057 -0.3922  0.6073 -0.1410
  156DOPC  H11B18709   6.371   7.123  17.179 -0.1011  0.1269 -0.6511
  156DOPC     P18710   6.546   7.228  16.940  0.2689  0.1465  0.2388
  156DOPC   O1318711   6.665   7.309  16.916 -0.3704  0.0420 -0.3700
  156DOPC   O1418712   6.416   7.284  16.902 -0.1066  0.0098 -0.0561
  156DOPC   O1218713   6.542   7.183  17.093  0.5425  0.0573 -0.3234
  156DOPC   O1118714   6.564   7.097  16.859 -0.1617  0.5520  0.3835
  156DOPC    C118715   6.488   7.052  16.749 -0.1645  0.4241  0.4084
  156DOPC    HA18716   6.393   7.107  16.734  1.1916  2.9158  0.5114
  156DOPC    HB18717   6.466   6.944  16.763 -0.8730  0.7024  1.5467
  156DOPC    C218718   6.560   7.066  16.612  0.2648 -0.1122  0.0210
  156DOPC    HS18719   6.664   7.031  16.627  0.6163  0.6632 -0.5502
  156DOPC   O2118720   6.557   7.205  16.576  0.2637  0.7420  0.6409
  156DOPC   C2118721   6.657   7.232  16.488  0.2376 -0.2806  0.0054
  156DOPC   O2218722   6.751   7.165  16.452  0.1011  0.9260  0.4087
  156DOPC   C2218723   6.637   7.380  16.460  0.1605  1.2473  0.3513
  156DOPC   H2R18724   6.741   7.419  16.452  0.5972  0.2239  0.8849
  156DOPC   H2S18725   6.578   7.422  16.544  0.1602  0.9189  0.5149
  156DOPC    C318726   6.480   6.985  16.502 -0.5585  0.0803  0.3121
  156DOPC    HX18727   6.385   7.038  16.483  0.2852  1.3755 -0.4572
  156DOPC    HY18728   6.443   6.888  16.543 -0.2178 -0.3618 -0.3999
  156DOPC   O3118729   6.561   6.966  16.383  0.0940  0.1338  0.4123
  156DOPC   C3118730   6.484   6.938  16.276 -0.1828 -0.3339 -0.0962
  156DOPC   O3218731   6.366   6.929  16.275  0.4458  0.3629  0.0815
  156DOPC   C3218732   6.578   6.940  16.150  0.7772 -0.5754  0.0649
  156DOPC   H2X18733   6.638   7.032  16.160  2.6725 -1.8252  0.6921
  156DOPC   H2Y18734   6.645   6.854  16.168  0.6894 -0.8126 -0.7248
  156DOPC   C2318735   6.568   7.404  16.322 -0.1225  0.8072 -0.2240
  156DOPC   H3R18736   6.632   7.360  16.242  0.4183 -0.8393  1.0635
  156DOPC   H3S18737   6.570   7.514  16.304 -0.2396  0.6632 -1.1517
  156DOPC   C2418738   6.436   7.334  16.297 -0.3188  0.5656  0.5485
  156DOPC   H4R18739   6.356   7.374  16.361  0.1862  0.3018  1.3628
  156DOPC   H4S18740   6.453   7.226  16.317  2.2623  0.4399 -1.6880
  156DOPC   C2518741   6.400   7.327  16.142 -0.0253 -0.0223  0.1574
  156DOPC   H5R18742   6.486   7.271  16.099  0.7303  0.0739  1.4880
  156DOPC   H5S18743   6.394   7.433  16.109 -1.2075  0.3456  1.4628
  156DOPC   C2618744   6.266   7.256  16.117 -0.6989 -0.2034  0.1226
  156DOPC   H6R18745   6.177   7.308  16.159 -1.4546 -1.5991  0.3051
  156DOPC   H6S18746   6.273   7.161  16.173 -0.6143 -0.0418  0.3918
  156DOPC   C2718747   6.237   7.218  15.970  0.3108  0.8097  0.3383
  156DOPC   H7R18748   6.334   7.215  15.916  0.2795  1.6822  0.2172
  156DOPC   H7S18749   6.192   7.311  15.930 -0.5971 -0.1614 -1.0015
  156DOPC   C2818750   6.148   7.096  15.939 -0.0747 -0.1394 -0.6484
  156DOPC   H8R18751   6.064   7.107  16.010  1.5544 -1.0370  1.5607
  156DOPC   H8S18752   6.205   7.001  15.952 -0.5669 -0.3861 -0.2228
  156DOPC   C2918753   6.112   7.102  15.793  0.5463 -0.0946  0.5390
  156DOPC   H9R18754   6.182   7.154  15.726  0.4106  0.5733  0.9084
  156DOPC  C21018755   6.002   7.048  15.743  0.1670 -0.3794 -0.1724
  156DOPC  H10R18756   6.004   7.049  15.633  0.5779  0.5052 -0.1650
  156DOPC  C21118757   5.897   6.969  15.814  0.4963 -0.5412  0.1218
  156DOPC  H11R18758   5.925   6.926  15.913  0.3133  0.8562  0.8105
  156DOPC  H11S18759   5.883   6.880  15.748  0.6552 -0.4236 -0.0708
  156DOPC  C21218760   5.759   7.033  15.837  0.9114  0.6949 -0.3842
  156DOPC  H12R18761   5.688   6.957  15.874  2.1003  0.2601  1.0958
  156DOPC  H12S18762   5.727   7.065  15.735  0.3589  0.9527 -0.1312
  156DOPC  C21318763   5.765   7.151  15.932 -0.4105 -0.4771 -0.0630
  156DOPC  H13R18764   5.801   7.241  15.877 -2.5948  0.1659 -0.5309
  156DOPC  H13S18765   5.827   7.136  16.023  3.4073  0.7399 -2.2230
  156DOPC  C21418766   5.623   7.196  15.978  0.5088  0.4573  0.1745
  156DOPC  H14R18767   5.550   7.182  15.895 -2.1258  2.1592  2.0644
  156DOPC  H14S18768   5.632   7.306  15.983 -0.7432  0.5462  0.7498
  156DOPC  C21518769   5.576   7.130  16.104 -0.2765 -0.0304 -0.1837
  156DOPC  H15R18770   5.545   7.204  16.181 -0.0075 -0.3149  0.2017
  156DOPC  H15S18771   5.630   7.042  16.145  0.0218 -0.4555 -1.4689
  156DOPC  C21618772   5.445   7.049  16.074 -0.2560  0.0381  0.0044
  156DOPC  H16R18773   5.460   6.976  15.991  2.2600  2.1517 -1.5672
  156DOPC  H16S18774   5.358   7.111  16.045 -0.9818 -1.5427 -1.4309
  156DOPC  C21718775   5.407   6.953  16.191  0.3762  0.1471 -0.1633
  156DOPC  H17R18776   5.386   7.022  16.276 -1.3302  1.2729 -1.4142
  156DOPC  H17S18777   5.490   6.885  16.219  0.1604  0.9239  2.6599
  156DOPC  C21818778   5.282   6.869  16.170 -0.5462  0.0208  0.6282
  156DOPC  H18R18779   5.277   6.790  16.247  0.4956 -1.3742 -0.6971
  156DOPC  H18S18780   5.295   6.806  16.079  1.9383 -0.0885  0.9970
  156DOPC  H18T18781   5.191   6.934  16.169 -0.8920 -0.3118  3.3583
  156DOPC   C3318782   6.512   6.927  16.015  0.3393 -0.1569  0.0974
  156DOPC   H3X18783   6.418   6.986  16.018 -0.1111 -0.8791  0.7890
  156DOPC   H3Y18784   6.495   6.821  15.986  1.1274 -0.7725  1.7423
  156DOPC   C3418785   6.595   6.987  15.905  1.0882 -0.2047  0.2992
  156DOPC   H4X18786   6.690   6.930  15.898  0.3431 -1.6572  1.4770
  156DOPC   H4Y18787   6.618   7.092  15.932  0.7601  0.7642 -2.8860
  156DOPC   C3518788   6.520   6.993  15.766  0.0969  0.1327  0.4502
  156DOPC   H5X18789   6.419   7.039  15.763  0.6139  1.2498 -0.8332
  156DOPC   H5Y18790   6.505   6.885  15.745  0.9484  0.0162  0.4118
  156DOPC   C3618791   6.608   7.048  15.649 -0.0421 -0.0172  0.0323
  156DOPC   H6X18792   6.643   7.149  15.678 -1.1526  0.1810  0.7597
  156DOPC   H6Y18793   6.698   6.985  15.631 -1.0926 -1.8322  0.7890
  156DOPC   C3718794   6.521   7.065  15.527 -0.3502 -0.8660  0.1656
  156DOPC   H7X18795   6.495   6.970  15.476  2.3292 -2.5128  1.5857
  156DOPC   H7Y18796   6.421   7.103  15.556 -0.2244  0.2572 -0.7793
  156DOPC   C3818797   6.588   7.157  15.424  0.2101 -0.0142 -0.3398
  156DOPC   H8X18798   6.695   7.127  15.411  0.6931  1.6648 -0.4082
  156DOPC   H8Y18799   6.587   7.257  15.472 -0.5985 -1.4974  3.1011
  156DOPC   C3918800   6.538   7.153  15.281  0.2648 -0.3068 -0.6276
  156DOPC   H9X18801   6.569   7.065  15.222  0.4669  0.2259 -1.3365
  156DOPC  C31018802   6.454   7.239  15.223  0.1651 -0.1724  0.3561
  156DOPC  H10X18803   6.424   7.218  15.119 -1.8158 -0.4394  0.9592
  156DOPC  C31118804   6.395   7.359  15.287  0.7605 -0.3406  0.5821
  156DOPC  H11X18805   6.396   7.445  15.216  0.5493 -1.0994 -0.3603
  156DOPC  H11Y18806   6.440   7.396  15.382 -0.1035 -0.5138  1.0639
  156DOPC  C31218807   6.241   7.341  15.319  0.1971  0.2828  1.3395
  156DOPC  H12X18808   6.222   7.420  15.394  2.5555 -0.5040  2.8749
  156DOPC  H12Y18809   6.231   7.244  15.373 -1.4997 -0.7870 -0.7773
  156DOPC  C31318810   6.135   7.337  15.208 -0.4324  0.8775  0.2023
  156DOPC  H13X18811   6.168   7.297  15.110  0.6209 -4.0114  2.2666
  156DOPC  H13Y18812   6.054   7.268  15.240  0.3190  0.5080  1.3501
  156DOPC  C31418813   6.076   7.479  15.170  0.1579  1.4910 -0.1555
  156DOPC  H14X18814   6.156   7.553  15.149 -0.6228  2.3282 -0.2217
  156DOPC  H14Y18815   6.018   7.465  15.077 -1.5405  1.1438  0.9070
  156DOPC  C31518816   5.983   7.540  15.281  0.1395 -0.1766 -0.1411
  156DOPC  H15X18817   6.045   7.568  15.368  0.4810 -0.2102 -0.3703
  156DOPC  H15Y18818   5.908   7.466  15.315 -0.3237  0.8260  1.1111
  156DOPC  C31618819   5.909   7.662  15.223 -0.5983 -0.6240  0.2551
  156DOPC  H16X18820   5.981   7.744  15.198  0.0277 -0.9806  0.8465
  156DOPC  H16Y18821   5.856   7.648  15.127  1.9054 -2.1234 -1.0194
  156DOPC  C31718822   5.803   7.719  15.325 -0.9437  1.2978  0.2940
  156DOPC  H17X18823   5.852   7.696  15.422  0.9509  0.7893 -0.7315
  156DOPC  H17Y18824   5.792   7.830  15.326 -1.6532  1.2308  0.4336
  156DOPC  C31818825   5.666   7.653  15.324  0.2959 -1.4400  0.0231
  156DOPC  H18X18826   5.669   7.543  15.338  0.0259 -1.6141 -1.1701
  156DOPC  H18Y18827   5.609   7.709  15.401 -0.5498 -2.6852  0.3300
  156DOPC  H18Z18828   5.628   7.670  15.221 -2.1509 -2.5369  0.6699
  157DOPC     N18829   5.616   2.256  16.653 -0.2573  0.4571  0.1170
  157DOPC   C1218830   5.522   2.300  16.772  0.1213  0.3870 -0.1381
  157DOPC  H12A18831   5.460   2.383  16.741 -1.9827 -0.2045  2.1510
  157DOPC  H12B18832   5.591   2.333  16.849 -0.3937  0.6221  0.2280
  157DOPC   C1318833   5.706   2.141  16.692 -0.3540  0.0887  0.2865
  157DOPC  H13A18834   5.759   2.099  16.608  1.2566  0.4718  1.0743
  157DOPC  H13B18835   5.775   2.167  16.770  0.7913  1.0463 -0.9982
  157DOPC  H13C18836   5.642   2.056  16.712 -0.4595  0.0111 -0.3510
  157DOPC   C1418837   5.703   2.371  16.610 -0.1859  0.5660  0.0788
  157DOPC  H14A18838   5.762   2.417  16.688  0.1968 -1.4584  1.0591
  157DOPC  H14B18839   5.775   2.351  16.532 -0.3918  1.2084 -0.2817
  157DOPC  H14C18840   5.636   2.449  16.577  0.2975  1.2868  0.7639
  157DOPC   C1518841   5.537   2.207  16.541  0.2214 -0.0950 -0.2936
  157DOPC  H15A18842   5.473   2.122  16.559  1.3225 -0.9054 -0.1522
  157DOPC  H15B18843   5.604   2.166  16.468 -0.6192 -2.9379  0.4117
  157DOPC  H15C18844   5.483   2.289  16.495 -0.2246 -0.2964 -0.1351
  157DOPC   C1118845   5.412   2.195  16.818  0.6073  0.7153  1.2463
  157DOPC  H11A18846   5.347   2.157  16.737  2.0682 -2.7648  1.5449
  157DOPC  H11B18847   5.473   2.110  16.853  0.6041 -1.0177 -2.4671
  157DOPC     P18848   5.230   2.369  16.893  0.0088  0.6035  0.0984
  157DOPC   O1318849   5.284   2.492  16.955  0.5205 -0.7703  0.1943
  157DOPC   O1418850   5.102   2.325  16.945 -0.2642  0.2122  0.5192
  157DOPC   O1218851   5.331   2.253  16.923 -0.2099  0.2734  0.1490
  157DOPC   O1118852   5.225   2.384  16.736  0.2265  0.3417  0.0019
  157DOPC    C118853   5.115   2.337  16.666  0.1733 -0.1590 -0.4596
  157DOPC    HA18854   5.080   2.234  16.688 -0.9587 -0.3914 -2.9662
  157DOPC    HB18855   5.144   2.336  16.558  1.2712 -3.4492 -0.2516
  157DOPC    C218856   4.995   2.435  16.675 -0.0068 -0.2765  0.2049
  157DOPC    HS18857   4.984   2.467  16.781 -1.5284  0.3283 -0.1041
  157DOPC   O2118858   4.878   2.364  16.636 -0.2876 -0.3772 -0.3484
  157DOPC   C2118859   4.766   2.426  16.670  0.3585 -0.2939  0.7128
  157DOPC   O2218860   4.749   2.534  16.720  0.0001  0.2951  0.3905
  157DOPC   C2218861   4.650   2.332  16.625  0.7146 -0.0370  0.5880
  157DOPC   H2R18862   4.579   2.338  16.711  0.2722 -0.1160  0.2320
  157DOPC   H2S18863   4.704   2.235  16.626  1.1337  0.0976 -2.1973
  157DOPC    C318864   5.017   2.567  16.599 -0.3295  0.5425  0.3093
  157DOPC    HX18865   5.100   2.603  16.664 -0.4300  1.3406  0.0087
  157DOPC    HY18866   4.930   2.637  16.600 -0.1403  0.7882 -0.0427
  157DOPC   O3118867   5.063   2.542  16.465  0.3726 -0.7031  0.3838
  157DOPC   C3118868   5.083   2.661  16.403  0.0060  0.0657  0.5740
  157DOPC   O3218869   5.096   2.773  16.454 -0.2257 -0.1238  0.5817
  157DOPC   C3218870   5.084   2.641  16.252  0.3274  0.1908 -0.0184
  157DOPC   H2X18871   5.134   2.547  16.223 -2.0986 -1.2333  0.1117
  157DOPC   H2Y18872   4.977   2.625  16.224 -0.2395  1.3040  1.3558
  157DOPC   C2318873   4.554   2.377  16.510 -0.1934  0.0521 -0.1920
  157DOPC   H3R18874   4.520   2.482  16.522 -0.5982 -0.0168 -0.7089
  157DOPC   H3S18875   4.464   2.314  16.525 -1.1455  1.6160  0.9579
  157DOPC   C2418876   4.608   2.359  16.370  0.3296 -0.0494 -0.1439
  157DOPC   H4R18877   4.603   2.248  16.359 -1.8884 -0.0453  0.2978
  157DOPC   H4S18878   4.715   2.389  16.373 -0.0250  1.3852 -1.0446
  157DOPC   C2518879   4.524   2.432  16.271  0.7771 -0.3183  0.8236
  157DOPC   H5R18880   4.540   2.540  16.290 -0.1907 -0.3436  1.9109
  157DOPC   H5S18881   4.422   2.403  16.303 -0.1849  2.3635  0.3989
  157DOPC   C2618882   4.534   2.392  16.120 -0.3173  0.1320 -0.8564
  157DOPC   H6R18883   4.469   2.451  16.052  0.2060  0.9775 -0.6413
  157DOPC   H6S18884   4.519   2.283  16.108 -1.1261  0.4422 -2.9326
  157DOPC   C2718885   4.681   2.409  16.066 -0.1183 -0.0551  0.0941
  157DOPC   H7R18886   4.694   2.341  15.979  0.9065 -1.8247  1.5459
  157DOPC   H7S18887   4.746   2.360  16.142 -2.2335 -1.2608  1.2026
  157DOPC   C2818888   4.726   2.552  16.032  0.0537 -0.4305 -0.1774
  157DOPC   H8R18889   4.837   2.549  16.021  0.0038 -0.4489 -0.6800
  157DOPC   H8S18890   4.706   2.623  16.116  1.9118 -2.8538  2.5233
  157DOPC   C2918891   4.661   2.601  15.911 -0.1730 -0.0906  0.1353
  157DOPC   H9R18892   4.553   2.625  15.906 -0.8055 -2.7436 -0.4483
  157DOPC  C21018893   4.721   2.605  15.789  0.0379  1.4819 -0.1775
  157DOPC  H10R18894   4.667   2.626  15.695 -1.3060  1.1251  0.4832
  157DOPC  C21118895   4.857   2.555  15.751  0.5866 -0.0162  0.6623
  157DOPC  H11R18896   4.893   2.492  15.835  0.4998  2.1596  2.4299
  157DOPC  H11S18897   4.923   2.645  15.748  0.0455  0.4065 -2.8345
  157DOPC  C21218898   4.868   2.494  15.609 -0.1277 -0.0993 -0.1214
  157DOPC  H12R18899   4.853   2.576  15.536 -0.0686 -0.1629 -0.2050
  157DOPC  H12S18900   4.791   2.414  15.597 -0.8700  0.0277  2.8561
  157DOPC  C21318901   5.011   2.442  15.583  0.7120  0.5380  0.0290
  157DOPC  H13R18902   5.015   2.354  15.651  1.0726  0.1487 -0.4879
  157DOPC  H13S18903   5.090   2.512  15.617  2.4697 -2.0881  1.7111
  157DOPC  C21418904   5.022   2.392  15.437 -0.6670 -0.0022 -0.1509
  157DOPC  H14R18905   5.130   2.379  15.414 -0.6295 -1.8726  0.8740
  157DOPC  H14S18906   4.974   2.469  15.373  0.4636  1.3484  0.5822
  157DOPC  C21518907   4.953   2.253  15.420  0.2746  0.7426  0.3108
  157DOPC  H15R18908   4.843   2.258  15.440  0.3777 -0.7855  1.3992
  157DOPC  H15S18909   4.991   2.185  15.499  0.7431 -1.9041 -2.0241
  157DOPC  C21618910   4.975   2.182  15.283  0.2734  0.2586  0.3925
  157DOPC  H16R18911   4.967   2.072  15.297 -0.4668  0.0550 -1.3647
  157DOPC  H16S18912   5.083   2.190  15.260 -0.1911 -0.1749 -2.2804
  157DOPC  C21718913   4.902   2.230  15.169  0.3422 -0.4162  0.3397
  157DOPC  H17R18914   4.945   2.168  15.088 -1.0874  0.0821 -0.8498
  157DOPC  H17S18915   4.912   2.339  15.150  1.0881 -0.1967  1.8526
  157DOPC  C21818916   4.751   2.220  15.183 -0.1160  0.1354 -0.1403
  157DOPC  H18R18917   4.714   2.126  15.230 -0.6021  0.8479  0.9288
  157DOPC  H18S18918   4.705   2.230  15.082  3.0623  0.8608 -1.6534
  157DOPC  H18T18919   4.708   2.300  15.247 -1.5771 -0.0156 -0.9028
  157DOPC   C3318920   5.145   2.765  16.168 -0.8425 -0.6421  0.1298
  157DOPC   H3X18921   5.244   2.801  16.203 -1.3434  0.9070 -0.0045
  157DOPC   H3Y18922   5.066   2.841  16.184 -0.1281 -0.0053  0.7035
  157DOPC   C3418923   5.152   2.743  16.013 -0.2608  0.0065  0.0288
  157DOPC   H4X18924   5.070   2.673  15.986 -2.1899  0.9822  2.8019
  157DOPC   H4Y18925   5.248   2.693  15.990 -0.5141  0.7101 -2.9859
  157DOPC   C3518926   5.160   2.867  15.930  0.6385 -0.3625  0.4067
  157DOPC   H5X18927   5.233   2.932  15.983  2.6196 -0.8265 -1.6416
  157DOPC   H5Y18928   5.072   2.935  15.938  1.2930  0.4568  0.8710
  157DOPC   C3618929   5.208   2.843  15.787 -0.0796 -0.0786 -0.4197
  157DOPC   H6X18930   5.315   2.819  15.807 -0.3641 -1.0924 -0.0089
  157DOPC   H6Y18931   5.159   2.760  15.732  1.2096 -1.4089  0.3447
  157DOPC   C3718932   5.219   2.974  15.695 -0.7809 -0.2530 -0.1978
  157DOPC   H7X18933   5.116   3.009  15.674 -0.3122  0.6901 -0.9812
  157DOPC   H7Y18934   5.269   3.049  15.759 -2.0090 -0.0947  0.6245
  157DOPC   C3818935   5.302   2.950  15.562  0.6389 -0.0090 -0.7074
  157DOPC   H8X18936   5.240   2.888  15.494 -2.1472  3.5932 -1.7849
  157DOPC   H8Y18937   5.384   2.879  15.583  1.1483  0.4173 -1.2265
  157DOPC   C3918938   5.343   3.085  15.490  0.1413 -0.0830  0.2296
  157DOPC   H9X18939   5.296   3.098  15.391 -2.4613 -0.6814  1.3109
  157DOPC  C31018940   5.433   3.177  15.530 -0.5218  1.2058  0.3264
  157DOPC  H10X18941   5.459   3.261  15.463 -0.0316  0.1411 -0.8700
  157DOPC  C31118942   5.514   3.164  15.657  0.5017 -0.2495  0.6602
  157DOPC  H11X18943   5.462   3.101  15.732 -1.1513 -1.2044 -1.2130
  157DOPC  H11Y18944   5.504   3.259  15.713 -2.1789  0.0987 -0.2720
  157DOPC  C31218945   5.659   3.113  15.642 -0.4370 -0.6966  0.6601
  157DOPC  H12X18946   5.662   3.038  15.560  0.7186 -0.0081  0.0536
  157DOPC  H12Y18947   5.701   3.062  15.732  0.2229 -0.5428  0.4464
  157DOPC  C31318948   5.753   3.238  15.608  0.4814 -0.1910  0.3348
  157DOPC  H13X18949   5.710   3.295  15.523  1.8269 -0.6471 -0.6918
  157DOPC  H13Y18950   5.748   3.302  15.699  2.3453  0.4812  0.0068
  157DOPC  C31418951   5.898   3.191  15.577  0.0144 -0.1152  0.3128
  157DOPC  H14X18952   5.929   3.105  15.640 -2.5484 -1.3598  0.0060
  157DOPC  H14Y18953   5.899   3.160  15.470 -2.0461  0.1650  0.1734
  157DOPC  C31518954   6.007   3.294  15.592  0.2782  0.1604 -0.2244
  157DOPC  H15X18955   6.105   3.251  15.564 -0.7431 -1.5970 -1.2555
  157DOPC  H15Y18956   6.016   3.319  15.700  1.2062 -0.6531 -0.0988
  157DOPC  C31618957   5.993   3.415  15.498  0.3723  0.2450  0.0435
  157DOPC  H16X18958   5.999   3.386  15.391 -1.1961  3.4621 -1.0557
  157DOPC  H16Y18959   5.893   3.463  15.512 -0.9627 -1.9705 -1.3221
  157DOPC  C31718960   6.106   3.517  15.532  0.2034  0.6859  0.2541
  157DOPC  H17X18961   6.085   3.571  15.627 -0.8997  1.6255 -0.4967
  157DOPC  H17Y18962   6.207   3.472  15.542 -0.0283 -0.1626 -1.0420
  157DOPC  C31818963   6.116   3.623  15.426 -0.4844  0.6309  0.1389
  157DOPC  H18X18964   6.176   3.595  15.337 -0.4781  0.3345  0.2357
  157DOPC  H18Y18965   6.018   3.666  15.396 -0.3728  1.3183  0.7226
  157DOPC  H18Z18966   6.176   3.702  15.476  1.2858 -1.0788  0.8186
  158DOPC     N18967   3.172   7.037  16.948  0.7780  0.0407 -0.4290
  158DOPC   C1218968   3.222   7.155  17.034  0.3202 -0.2635 -0.5263
  158DOPC  H12A18969   3.318   7.135  17.079 -0.3116 -0.5343  0.7577
  158DOPC  H12B18970   3.159   7.159  17.122  1.6962 -1.1592  0.5350
  158DOPC   C1318971   3.035   7.061  16.900 -0.7333  0.0679 -0.3107
  158DOPC  H13A18972   2.979   6.973  16.873 -0.3216 -1.1204  2.3543
  158DOPC  H13B18973   2.974   7.102  16.979  1.6218 -0.5781  1.9787
  158DOPC  H13C18974   3.039   7.122  16.810  1.1109  0.1456 -0.2193
  158DOPC   C1418975   3.163   6.906  17.011 -0.5822 -0.1746 -0.2381
  158DOPC  H14A18976   3.093   6.895  17.092  1.1808 -1.4646  1.1818
  158DOPC  H14B18977   3.155   6.831  16.934 -3.2428  0.2145 -0.4334
  158DOPC  H14C18978   3.261   6.881  17.050 -1.4900 -1.7776  1.1329
  158DOPC   C1518979   3.263   7.021  16.831 -0.1461 -0.2094  0.4277
  158DOPC  H15A18980   3.243   7.107  16.770 -0.3742 -0.9527 -0.5697
  158DOPC  H15B18981   3.235   6.938  16.768  1.0989 -0.0343 -0.3787
  158DOPC  H15C18982   3.367   7.005  16.853 -0.1072 -0.3465  0.1476
  158DOPC   C1118983   3.217   7.294  16.962  0.3232 -0.0104 -0.5044
  158DOPC  H11A18984   3.111   7.304  16.930  0.8817  1.3491 -2.1191
  158DOPC  H11B18985   3.241   7.378  17.030  0.6771 -1.6473  1.4702
  158DOPC     P18986   3.449   7.338  16.856  0.3030 -0.0317 -0.1549
  158DOPC   O1318987   3.534   7.216  16.874  0.3528  0.3619  0.0154
  158DOPC   O1418988   3.460   7.448  16.956 -0.0568 -0.2935 -0.1814
  158DOPC   O1218989   3.294   7.303  16.838  0.0246 -0.5732  0.3625
  158DOPC   O1118990   3.479   7.397  16.718 -0.3935 -0.1339  0.5285
  158DOPC    C118991   3.610   7.433  16.670 -0.1060  0.1682 -0.6067
  158DOPC    HA18992   3.631   7.364  16.586 -1.4996 -1.1645  0.0886
  158DOPC    HB18993   3.687   7.426  16.750  0.0246 -0.0117 -0.7476
  158DOPC    C218994   3.604   7.574  16.604  0.8833 -0.2894 -0.3175
  158DOPC    HS18995   3.608   7.652  16.684  0.7777  0.3539 -0.9302
  158DOPC   O2118996   3.484   7.585  16.528  0.4752  0.3368  0.3357
  158DOPC   C2118997   3.383   7.663  16.578 -0.0954 -0.1080  0.1226
  158DOPC   O2218998   3.395   7.718  16.689 -0.4004  0.1308  0.6883
  158DOPC   C2218999   3.271   7.679  16.476  0.5123  0.2319 -0.1086
  158DOPC   H2R19000   3.167   7.684  16.516 -0.0323  0.4081 -1.5053
  158DOPC   H2S19001   3.275   7.592  16.407 -0.0375  0.8690 -0.9666
  158DOPC    C319002   3.729   7.594  16.519 -0.4916  0.5080 -0.3014
  158DOPC    HX19003   3.810   7.608  16.595  0.5475  1.1796 -1.4931
  158DOPC    HY19004   3.723   7.690  16.464  0.2544  0.6749 -0.1076
  158DOPC   O3119005   3.759   7.486  16.430 -0.4246 -0.1995  0.2634
  158DOPC   C3119006   3.869   7.491  16.359  0.2058  0.4518 -0.2639
  158DOPC   O3219007   3.963   7.568  16.383  0.1510 -0.0759  0.7598
  158DOPC   C3219008   3.866   7.379  16.260 -0.1309  0.6400 -0.0180
  158DOPC   H2X19009   3.932   7.299  16.297  0.8020  1.1194 -0.6136
  158DOPC   H2Y19010   3.763   7.336  16.252 -0.5271  1.6723 -0.8002
  158DOPC   C2319011   3.280   7.810  16.394 -1.1525 -0.2448  0.1827
  158DOPC   H3R19012   3.335   7.888  16.452 -1.7400 -1.0148  1.8308
  158DOPC   H3S19013   3.181   7.861  16.388 -0.3229  1.4793  0.4561
  158DOPC   C2419014   3.341   7.784  16.258  0.5849 -0.1796  0.6793
  158DOPC   H4R19015   3.304   7.872  16.201 -4.0958 -2.7749 -0.8364
  158DOPC   H4S19016   3.289   7.705  16.200 -0.0882 -0.1184  1.1767
  158DOPC   C2519017   3.485   7.752  16.241 -0.6922  0.1651 -0.4225
  158DOPC   H5R19018   3.502   7.653  16.289  1.2694 -0.1891 -1.7600
  158DOPC   H5S19019   3.549   7.816  16.306  0.7480 -0.6908 -0.9730
  158DOPC   C2619020   3.544   7.775  16.108 -0.5401 -0.1308  0.0992
  158DOPC   H6R19021   3.475   7.740  16.028  0.3154  0.0322 -0.7163
  158DOPC   H6S19022   3.641   7.721  16.101  0.2214  0.9525  1.6016
  158DOPC   C2719023   3.572   7.924  16.086  0.5602  0.3226  0.0743
  158DOPC   H7R19024   3.643   7.957  16.165 -1.1515  0.5746  1.5906
  158DOPC   H7S19025   3.475   7.975  16.102  0.4024 -0.5249  2.1734
  158DOPC   C2819026   3.628   7.970  15.950  0.0848  0.0455  0.7368
  158DOPC   H8R19027   3.736   7.948  15.937 -0.0354  0.6475 -1.7526
  158DOPC   H8S19028   3.639   8.081  15.953  0.2286  0.1076 -1.0540
  158DOPC   C2919029   3.552   7.917  15.824  0.3587 -0.2193 -0.3011
  158DOPC   H9R19030   3.443   7.914  15.827  0.2556  0.5814 -1.8937
  158DOPC  C21019031   3.612   7.883  15.708  0.0767 -0.6378 -0.2922
  158DOPC  H10R19032   3.556   7.842  15.623  0.1793 -2.0625  0.2935
  158DOPC  C21119033   3.762   7.897  15.684 -0.3237 -0.1875  0.1600
  158DOPC  H11R19034   3.816   7.812  15.730 -0.5355  0.5303  1.8092
  158DOPC  H11S19035   3.802   7.980  15.746  0.2788 -2.4150  2.9909
  158DOPC  C21219036   3.801   7.935  15.539 -0.2398  0.3172 -0.0593
  158DOPC  H12R19037   3.752   8.029  15.507 -1.4596 -0.1407  0.3943
  158DOPC  H12S19038   3.758   7.852  15.479  0.8024 -2.3084  2.5471
  158DOPC  C21319039   3.946   7.947  15.527 -0.0570  0.6961  0.6222
  158DOPC  H13R19040   4.000   7.860  15.571  0.3441  0.0444 -1.0692
  158DOPC  H13S19041   3.988   8.033  15.584  1.8517  0.4615 -0.3290
  158DOPC  C21419042   3.989   7.955  15.378  0.0671 -0.7533 -0.4848
  158DOPC  H14R19043   3.941   8.045  15.332  1.2752  1.0918  1.6419
  158DOPC  H14S19044   3.963   7.869  15.313  0.5757 -1.2240 -0.0738
  158DOPC  C21519045   4.140   7.987  15.362 -0.0904 -0.8164 -0.1245
  158DOPC  H15R19046   4.192   7.909  15.423  0.3769 -0.5792 -0.2159
  158DOPC  H15S19047   4.170   8.087  15.398 -1.9569  0.4321 -1.8511
  158DOPC  C21619048   4.163   7.967  15.211 -0.2949 -0.1257 -0.1299
  158DOPC  H16R19049   4.129   8.056  15.154  0.0464  0.2283  0.2156
  158DOPC  H16S19050   4.108   7.876  15.176 -0.0151 -0.3848  0.0982
  158DOPC  C21719051   4.312   7.945  15.175 -0.5135  0.0074  0.2507
  158DOPC  H17R19052   4.324   7.945  15.065  3.4349 -1.4779  0.5181
  158DOPC  H17S19053   4.359   7.854  15.218  0.6283  1.1446  1.5140
  158DOPC  C21819054   4.408   8.058  15.227  0.1013 -0.6562  0.8402
  158DOPC  H18R19055   4.418   8.060  15.338  1.1049  1.6399  0.7718
  158DOPC  H18S19056   4.375   8.151  15.176 -0.1339 -1.8075 -1.2218
  158DOPC  H18T19057   4.512   8.040  15.193 -0.7606 -1.1416 -1.7005
  158DOPC   C3319058   3.921   7.434  16.128 -0.5940 -0.5082  0.6675
  158DOPC   H3X19059   4.029   7.449  16.149 -0.4675  0.8409 -0.7552
  158DOPC   H3Y19060   3.861   7.522  16.096 -0.9873 -0.6690  0.9507
  158DOPC   C3419061   3.910   7.323  16.020 -0.5958 -0.0351  0.2862
  158DOPC   H4X19062   3.807   7.311  15.981 -0.8744  2.8168 -0.0564
  158DOPC   H4Y19063   3.936   7.223  16.062 -0.0289  0.1457  0.3739
  158DOPC   C3519064   4.009   7.354  15.907  0.0382  0.4549 -0.8371
  158DOPC   H5X19065   4.111   7.383  15.941 -1.1155 -0.3214  4.1097
  158DOPC   H5Y19066   3.958   7.438  15.855 -2.4137 -0.1622  0.3933
  158DOPC   C3619067   4.007   7.242  15.809  0.1721  0.2248 -0.2954
  158DOPC   H6X19068   4.098   7.262  15.747  0.7339 -1.9455 -0.2411
  158DOPC   H6Y19069   4.039   7.144  15.849  0.8140  1.3154  2.0321
  158DOPC   C3719070   3.879   7.224  15.726 -0.4278  0.0264 -0.1239
  158DOPC   H7X19071   3.806   7.170  15.791 -0.0217 -0.1831  0.1607
  158DOPC   H7Y19072   3.828   7.318  15.693  0.7032  0.9134  0.5677
  158DOPC   C3819073   3.894   7.120  15.613 -0.5379  0.3440 -0.0320
  158DOPC   H8X19074   3.791   7.081  15.597 -0.6278  1.1422 -1.5915
  158DOPC   H8Y19075   3.955   7.038  15.656 -1.0344  0.0613  0.1447
  158DOPC   C3919076   3.964   7.187  15.496 -0.1591  0.1808  0.7511
  158DOPC   H9X19077   4.057   7.242  15.516 -0.5124  0.2235  2.4286
  158DOPC  C31019078   3.915   7.202  15.370 -0.2186 -0.5359  0.2176
  158DOPC  H10X19079   3.980   7.259  15.303  0.1308  1.5749  2.2049
  158DOPC  C31119080   3.786   7.152  15.319  0.0159 -0.1478 -0.7090
  158DOPC  H11X19081   3.716   7.170  15.403  0.3950  1.2199 -0.6607
  158DOPC  H11Y19082   3.786   7.045  15.288  0.0965  0.3848 -2.7207
  158DOPC  C31219083   3.725   7.236  15.202  0.2783 -0.4624  0.0044
  158DOPC  H12X19084   3.775   7.223  15.104  1.7766  1.2787  0.4932
  158DOPC  H12Y19085   3.731   7.341  15.235 -0.2489 -0.9831  1.9088
  158DOPC  C31319086   3.575   7.200  15.186  0.4451 -0.3844  0.0679
  158DOPC  H13X19087   3.555   7.092  15.165 -1.1228 -0.8291  3.2164
  158DOPC  H13Y19088   3.523   7.221  15.282  0.2938 -0.5042  0.0134
  158DOPC  C31419089   3.496   7.275  15.078 -0.1799 -0.6692  0.5226
  158DOPC  H14X19090   3.390   7.245  15.097 -0.2018 -0.4348  0.7941
  158DOPC  H14Y19091   3.502   7.384  15.099  3.2656 -0.3309 -1.5713
  158DOPC  C31519092   3.539   7.237  14.939  0.4043 -0.2187  0.7959
  158DOPC  H15X19093   3.523   7.129  14.920  0.8798  0.1534 -2.2964
  158DOPC  H15Y19094   3.648   7.256  14.934  0.0413  2.8428  1.9400
  158DOPC  C31619095   3.455   7.320  14.832  0.2774 -0.2932  0.2947
  158DOPC  H16X19096   3.348   7.296  14.852 -0.6253  2.6830 -0.5151
  158DOPC  H16Y19097   3.474   7.426  14.860  0.9677 -0.6701  1.3284
  158DOPC  C31719098   3.480   7.292  14.683  0.2184  0.9971 -0.4915
  158DOPC  H17X19099   3.576   7.336  14.649  0.2873  1.2497  0.0287
  158DOPC  H17Y19100   3.478   7.182  14.667 -0.4676  0.8524  0.5390
  158DOPC  C31819101   3.365   7.360  14.605 -0.2067  0.0037 -0.4035
  158DOPC  H18X19102   3.269   7.305  14.614 -0.1660 -0.2908 -1.5849
  158DOPC  H18Y19103   3.345   7.463  14.643 -0.3272  0.4335 -1.5868
  158DOPC  H18Z19104   3.389   7.366  14.496  0.2516  1.4439 -0.2513
  159DOPC     N19105   6.155   3.103  17.047  0.2769 -0.5074 -0.4928
  159DOPC   C1219106   6.172   3.148  16.897  0.2357 -0.0593  0.0945
  159DOPC  H12A19107   6.207   3.250  16.899 -0.2139  0.1040 -0.2573
  159DOPC  H12B19108   6.066   3.152  16.875 -0.6790  0.9411  3.9392
  159DOPC   C1319109   6.291   3.075  17.103 -0.9263  0.0228  0.4097
  159DOPC  H13A19110   6.333   2.999  17.038 -2.6481  0.9718 -1.9561
  159DOPC  H13B19111   6.356   3.161  17.097 -1.9297  0.9840  2.3142
  159DOPC  H13C19112   6.295   3.038  17.204  0.3958  0.1751  0.4267
  159DOPC   C1419113   6.079   2.975  17.055  0.3712 -0.4088 -0.3342
  159DOPC  H14A19114   6.115   2.898  16.989 -2.4932 -2.8962  0.7829
  159DOPC  H14B19115   6.095   2.934  17.154 -1.4868  0.8088  0.5156
  159DOPC  H14C19116   5.973   2.980  17.040 -0.2629 -2.3702  2.5754
  159DOPC   C1519117   6.086   3.205  17.138  0.3932  0.4247 -0.1376
  159DOPC  H15A19118   6.069   3.165  17.237 -0.3667  0.2833 -0.3174
  159DOPC  H15B19119   5.987   3.217  17.095 -0.0082 -1.7428  0.0834
  159DOPC  H15C19120   6.145   3.295  17.149  2.0171 -0.4485 -1.3041
  159DOPC   C1119121   6.252   3.073  16.791 -0.2573  0.1561  0.7289
  159DOPC  H11A19122   6.224   3.105  16.688  0.1414 -2.9260 -0.4411
  159DOPC  H11B19123   6.355   3.110  16.809 -1.1536  3.5395 -0.2643
  159DOPC     P19124   6.172   2.836  16.708  0.0460 -0.6848  0.7044
  159DOPC   O1319125   6.033   2.822  16.766 -0.6945 -0.4893  0.5117
  159DOPC   O1419126   6.259   2.713  16.690 -0.9760  0.0463  0.6858
  159DOPC   O1219127   6.257   2.931  16.809  0.4938 -0.0125 -0.3310
  159DOPC   O1119128   6.165   2.922  16.580  0.2394 -0.2160  0.4717
  159DOPC    C119129   6.044   2.936  16.507  0.4058 -0.2550 -0.0800
  159DOPC    HA19130   6.064   3.006  16.423 -0.5686 -0.0160 -0.1177
  159DOPC    HB19131   5.966   2.975  16.575 -0.4702 -0.7312 -0.7949
  159DOPC    C219132   5.986   2.808  16.439 -0.1955 -0.3719  0.6258
  159DOPC    HS19133   5.961   2.724  16.507  0.9529 -1.5772 -0.3907
  159DOPC   O2119134   6.090   2.762  16.351  0.3356 -0.2126 -0.2591
  159DOPC   C2119135   6.123   2.631  16.351  0.5256 -0.0585  0.3803
  159DOPC   O2219136   6.078   2.541  16.420 -0.2057 -0.0880  0.3472
  159DOPC   C2219137   6.215   2.616  16.225 -0.4742 -0.1989 -0.6170
  159DOPC   H2R19138   6.321   2.601  16.255 -0.5640 -0.2061 -0.3030
  159DOPC   H2S19139   6.215   2.715  16.175  0.6925  1.1034  1.8238
  159DOPC    C319140   5.858   2.837  16.358 -0.0863  0.4348  0.1830
  159DOPC    HX19141   5.873   2.939  16.315  0.6714  1.5032  2.8022
  159DOPC    HY19142   5.774   2.850  16.430 -2.6339 -2.2656 -2.0086
  159DOPC   O3119143   5.830   2.734  16.259 -0.7083  0.2871  0.0480
  159DOPC   C3119144   5.731   2.650  16.285  0.1580  0.1352 -0.2732
  159DOPC   O3219145   5.658   2.651  16.380  0.9819  0.1189 -0.4012
  159DOPC   C3219146   5.703   2.555  16.163  0.1607 -0.0095  0.9067
  159DOPC   H2X19147   5.742   2.610  16.075  0.5917  0.2496  1.2579
  159DOPC   H2Y19148   5.767   2.465  16.172  0.5612  0.0277 -1.1080
  159DOPC   C2319149   6.170   2.504  16.132  0.3863  0.3668 -0.2923
  159DOPC   H3R19150   6.070   2.527  16.089 -0.1304 -1.2865 -0.0309
  159DOPC   H3S19151   6.177   2.409  16.189  1.8259  1.0199  0.6847
  159DOPC   C2419152   6.245   2.491  15.996  0.0283  0.2458  0.2467
  159DOPC   H4R19153   6.234   2.585  15.938 -0.6149  1.7949  2.7418
  159DOPC   H4S19154   6.182   2.412  15.949 -0.2992  0.5755  0.1226
  159DOPC   C2519155   6.399   2.464  16.003 -0.0932  0.1218 -0.1894
  159DOPC   H5R19156   6.399   2.378  16.072 -2.3126  0.5328  0.4038
  159DOPC   H5S19157   6.453   2.548  16.054 -2.0222  1.1941  0.1869
  159DOPC   C2619158   6.453   2.433  15.863 -0.4638  0.3690 -0.3191
  159DOPC   H6R19159   6.445   2.528  15.805  0.1495 -0.4969 -1.8646
  159DOPC   H6S19160   6.395   2.351  15.817 -1.0612  1.4046 -1.4524
  159DOPC   C2719161   6.604   2.388  15.872 -0.4202  0.5914  0.2730
  159DOPC   H7R19162   6.651   2.433  15.962 -2.4880  0.2658  1.5775
  159DOPC   H7S19163   6.657   2.421  15.780 -0.7212 -0.3715 -0.2612
  159DOPC   C2819164   6.634   2.235  15.884 -0.0253  0.3400 -0.0970
  159DOPC   H8R19165   6.560   2.189  15.953 -0.2035  0.9537  0.1256
  159DOPC   H8S19166   6.736   2.237  15.929 -1.3555 -1.1876  3.3506
  159DOPC   C2919167   6.618   2.162  15.748 -0.3723 -0.5977 -0.2398
  159DOPC   H9R19168   6.517   2.133  15.714 -0.3312  0.0596 -0.9694
  159DOPC  C21019169   6.714   2.141  15.654  0.4285  0.5088 -0.3795
  159DOPC  H10R19170   6.686   2.086  15.562 -0.6347 -1.3555  0.9815
  159DOPC  C21119171   6.861   2.184  15.669  0.3364  0.0937  0.1205
  159DOPC  H11R19172   6.919   2.107  15.723  0.0065 -0.7528 -0.7093
  159DOPC  H11S19173   6.864   2.284  15.718  1.8911  0.1964 -0.1194
  159DOPC  C21219174   6.929   2.212  15.530  0.8975  0.3911 -1.1341
  159DOPC  H12R19175   6.931   2.130  15.455  1.3355  0.7887 -1.5665
  159DOPC  H12S19176   7.035   2.238  15.550  0.6159 -0.4632  1.9948
  159DOPC  C21319177   6.862   2.338  15.456 -0.2850 -0.1680  0.2584
  159DOPC  H13R19178   6.854   2.422  15.528  0.1356  0.6297 -0.6077
  159DOPC  H13S19179   6.759   2.303  15.436 -0.4792  0.6652 -0.2451
  159DOPC  C21419180   6.922   2.381  15.325 -0.0059  0.1210  0.2433
  159DOPC  H14R19181   7.028   2.411  15.336  0.0922  0.2761 -0.9721
  159DOPC  H14S19182   6.870   2.472  15.287  0.4069 -0.0038 -0.6675
  159DOPC  C21519183   6.911   2.271  15.217 -0.2343 -0.1913 -0.4414
  159DOPC  H15R19184   6.811   2.223  15.213  0.0139 -0.6958 -0.6821
  159DOPC  H15S19185   6.975   2.185  15.248 -1.5675 -1.1293 -0.2313
  159DOPC  C21619186   6.939   2.318  15.078 -0.7699  0.6498  0.4523
  159DOPC  H16R19187   7.038   2.366  15.062 -0.9785  1.0409  0.2968
  159DOPC  H16S19188   6.870   2.399  15.047 -0.6795  0.1393 -1.1467
  159DOPC  C21719189   6.938   2.211  14.975 -0.6806 -0.2648 -0.4875
  159DOPC  H17R19190   6.856   2.140  14.998 -0.9056  0.2194  0.2406
  159DOPC  H17S19191   7.027   2.146  14.988 -1.5017 -2.0111 -2.8029
  159DOPC  C21819192   6.936   2.261  14.828 -0.0113  0.0308 -0.4133
  159DOPC  H18R19193   6.846   2.324  14.812  0.8262  1.2572 -0.4408
  159DOPC  H18S19194   6.929   2.175  14.759  0.3151 -0.1074 -0.2792
  159DOPC  H18T19195   7.031   2.313  14.801  1.1088 -1.0443  1.2366
  159DOPC   C3319196   5.547   2.537  16.141  0.8901  0.0082 -0.4630
  159DOPC   H3X19197   5.497   2.635  16.127 -1.3977 -0.9015  0.7752
  159DOPC   H3Y19198   5.493   2.483  16.222 -0.8794  2.0465 -0.2055
  159DOPC   C3419199   5.526   2.439  16.018  0.6055  0.4140 -0.1336
  159DOPC   H4X19200   5.535   2.337  16.061  0.4438  0.8210  0.9044
  159DOPC   H4Y19201   5.610   2.453  15.947  1.9288  0.9515  1.4793
  159DOPC   C3519202   5.399   2.456  15.940 -0.1026  0.2381  0.8180
  159DOPC   H5X19203   5.419   2.395  15.849 -0.4829  2.4453 -0.8423
  159DOPC   H5Y19204   5.392   2.560  15.901 -3.4306  0.1545  0.9149
  159DOPC   C3619205   5.276   2.409  16.016  0.6332  0.2138 -0.1145
  159DOPC   H6X19206   5.297   2.310  16.062  0.2213 -0.8158 -2.0166
  159DOPC   H6Y19207   5.240   2.473  16.099  0.2947 -1.7898  1.3374
  159DOPC   C3719208   5.157   2.362  15.920  0.7359  0.7040 -0.2105
  159DOPC   H7X19209   5.131   2.456  15.866 -0.0905 -0.3451 -1.7378
  159DOPC   H7Y19210   5.186   2.288  15.843 -0.3096  0.0176  0.0321
  159DOPC   C3819211   5.029   2.305  15.983  0.2890 -0.5300 -0.1446
  159DOPC   H8X19212   4.937   2.314  15.922 -1.4417 -0.8741  2.3096
  159DOPC   H8Y19213   5.018   2.379  16.065  0.8373 -0.1487 -0.4027
  159DOPC   C3919214   5.037   2.162  16.032 -0.3696  0.1710 -0.3050
  159DOPC   H9X19215   5.044   2.130  16.137 -1.7947 -0.9492 -0.5208
  159DOPC  C31019216   5.028   2.056  15.951 -0.1754  0.1729 -0.9649
  159DOPC  H10X19217   5.025   1.956  15.998  0.5992 -0.4920 -2.2656
  159DOPC  C31119218   5.012   2.047  15.801  0.2032  0.0975  0.0897
  159DOPC  H11X19219   5.014   2.151  15.760  0.9498  0.2565  0.5044
  159DOPC  H11Y19220   4.917   1.996  15.776 -0.0942  0.7302 -0.0923
  159DOPC  C31219221   5.139   1.964  15.761  0.2968  0.0843  0.1317
  159DOPC  H12X19222   5.131   1.860  15.798 -1.9537 -0.5468 -1.8596
  159DOPC  H12Y19223   5.228   2.016  15.802 -0.5025  0.7657  1.0578
  159DOPC  C31319224   5.144   1.961  15.611 -0.5337  0.3066 -1.0420
  159DOPC  H13X19225   5.044   1.934  15.570 -1.0269  0.4678  0.0222
  159DOPC  H13Y19226   5.173   2.064  15.580  0.4958  0.4948  0.4110
  159DOPC  C31419227   5.261   1.875  15.560 -0.0799  0.5278  0.2625
  159DOPC  H14X19228   5.348   1.889  15.627 -0.3771  0.6951  0.6109
  159DOPC  H14Y19229   5.230   1.768  15.562  0.9957  0.2045  0.8023
  159DOPC  C31519230   5.286   1.914  15.411 -0.6450  0.3143  0.2755
  159DOPC  H15X19231   5.329   2.017  15.407 -0.6719  0.3589  0.9851
  159DOPC  H15Y19232   5.194   1.925  15.351 -0.5109  0.3261  0.0702
  159DOPC  C31619233   5.382   1.811  15.342 -0.3217 -0.9509  0.6255
  159DOPC  H16X19234   5.432   1.761  15.428  0.7569  0.3630  0.7947
  159DOPC  H16Y19235   5.322   1.740  15.281 -1.7735  2.1792 -1.9151
  159DOPC  C31719236   5.496   1.861  15.247 -0.0149  0.4990 -0.2699
  159DOPC  H17X19237   5.543   1.770  15.204 -1.0002  1.5116 -3.9051
  159DOPC  H17Y19238   5.453   1.903  15.153  0.9653 -0.0980 -1.0152
  159DOPC  C31819239   5.593   1.968  15.298  0.2484 -0.1184 -0.4059
  159DOPC  H18X19240   5.655   2.012  15.216 -0.0012 -0.2815 -0.6808
  159DOPC  H18Y19241   5.542   2.060  15.332  0.6488  0.6081 -1.6891
  159DOPC  H18Z19242   5.658   1.924  15.376  2.0188 -0.2517 -1.8795
  160DOPC     N19243   1.155   0.094  17.144 -0.2611  0.2018 -0.2809
  160DOPC   C1219244   1.082   0.203  17.061  0.7043 -0.0292  0.3411
  160DOPC  H12A19245   1.115   0.298  17.099  0.2972 -0.5430  2.0484
  160DOPC  H12B19246   0.977   0.186  17.080  1.2310 -1.6006  2.2070
  160DOPC   C1319247   1.129  -0.040  17.085  0.3693  0.2727 -0.3942
  160DOPC  H13A19248   1.162  -0.125  17.143 -0.0897  0.4376  0.1148
  160DOPC  H13B19249   1.022  -0.051  17.075  0.3948 -0.3184 -0.0762
  160DOPC  H13C19250   1.185  -0.052  16.993  1.3655  1.6282 -0.0023
  160DOPC   C1419251   1.099   0.098  17.286  0.3978 -0.1345  0.6870
  160DOPC  H14A19252   1.130   0.014  17.346 -0.3107 -0.7286  0.2341
  160DOPC  H14B19253   1.136   0.189  17.332 -0.8961  0.5930  0.3405
  160DOPC  H14C19254   0.992   0.088  17.274  0.6357 -1.1566 -0.7757
  160DOPC   C1519255   1.306   0.116  17.144  0.2218  0.7018  0.4871
  160DOPC  H15A19256   1.336   0.114  17.040  2.5529 -2.3593  1.0565
  160DOPC  H15B19257   1.359   0.044  17.205 -2.5796 -2.1783 -0.2235
  160DOPC  H15C19258   1.333   0.218  17.166  3.1868  0.3975 -1.1245
  160DOPC   C1119259   1.095   0.208  16.909 -0.5856  0.9153  0.2297
  160DOPC  H11A19260   1.037   0.125  16.863  0.7921 -0.0326  0.1483
  160DOPC  H11B19261   1.039   0.297  16.873  0.3819  1.7074  0.6262
  160DOPC     P19262   1.308   0.315  16.804 -0.3489 -0.2158  0.0537
  160DOPC   O1319263   1.455   0.291  16.777  0.7255  0.2938  0.7440
  160DOPC   O1419264   1.273   0.433  16.887 -0.0762  0.1256  0.3870
  160DOPC   O1219265   1.233   0.188  16.869 -0.1378 -0.5529 -0.1954
  160DOPC   O1119266   1.228   0.345  16.674  0.0813 -0.1903 -0.5657
  160DOPC    C119267   1.206   0.236  16.578 -1.0015 -0.0947  0.0234
  160DOPC    HA19268   1.097   0.235  16.553 -0.5801 -0.8498 -1.9818
  160DOPC    HB19269   1.231   0.141  16.631 -0.0769  0.3907  0.4724
  160DOPC    C219270   1.283   0.258  16.446  0.1448  0.3589 -0.8336
  160DOPC    HS19271   1.232   0.194  16.371 -2.4922  1.4747 -0.0920
  160DOPC   O2119272   1.422   0.224  16.462  0.2765 -0.3299  0.1924
  160DOPC   C2119273   1.457   0.098  16.477  0.7005 -0.0735 -0.3210
  160DOPC   O2219274   1.380   0.004  16.496  0.5464  0.0349 -0.1401
  160DOPC   C2219275   1.610   0.096  16.497 -0.0363  0.3396 -0.2552
  160DOPC   H2R19276   1.629   0.148  16.593 -1.2300 -0.9568  0.7313
  160DOPC   H2S19277   1.658   0.143  16.409 -0.8199  0.1412 -0.8023
  160DOPC    C319278   1.285   0.412  16.411  0.6819  0.3963 -0.8891
  160DOPC    HX19279   1.340   0.462  16.493 -0.4832 -1.5351  1.1908
  160DOPC    HY19280   1.181   0.450  16.420  0.4377 -0.7383  3.3550
  160DOPC   O3119281   1.337   0.437  16.277  0.4673 -0.3424  0.1314
  160DOPC   C3119282   1.463   0.471  16.267 -0.0758 -0.2784 -0.3554
  160DOPC   O3219283   1.542   0.485  16.360 -0.5899 -0.9805  0.2903
  160DOPC   C3219284   1.487   0.505  16.115 -0.2428 -0.0504  0.1256
  160DOPC   H2X19285   1.421   0.440  16.054  0.1585 -1.3191  1.0245
  160DOPC   H2Y19286   1.456   0.612  16.104  0.6048 -0.0242 -2.7087
  160DOPC   C2319287   1.669  -0.052  16.492  0.0279  0.0951 -0.7193
  160DOPC   H3R19288   1.610  -0.115  16.421  1.5178 -0.2150 -1.7239
  160DOPC   H3S19289   1.656  -0.101  16.591 -2.7557  0.8177 -0.6335
  160DOPC   C2419290   1.818  -0.044  16.450 -0.2956  0.1880  0.5795
  160DOPC   H4R19291   1.875   0.017  16.523  0.0879 -2.0277  2.2409
  160DOPC   H4S19292   1.816  -0.020  16.342 -1.3933  0.1679  0.5880
  160DOPC   C2519293   1.873  -0.187  16.459 -0.2911 -0.0864  0.8120
  160DOPC   H5R19294   1.798  -0.265  16.438 -2.3161  1.7269  0.9573
  160DOPC   H5S19295   1.905  -0.211  16.563 -0.5428 -2.6335  0.3576
  160DOPC   C2619296   1.996  -0.218  16.368 -0.3979  0.1365  0.5414
  160DOPC   H6R19297   1.976  -0.209  16.259  2.0086  0.0588  0.0250
  160DOPC   H6S19298   2.033  -0.321  16.387  0.6154  0.4207  0.1683
  160DOPC   C2719299   2.122  -0.132  16.409  0.8091 -0.7968 -0.5181
  160DOPC   H7R19300   2.148  -0.144  16.516  1.0251  1.1420 -0.3151
  160DOPC   H7S19301   2.100  -0.025  16.389  1.2932 -0.7269 -0.6829
  160DOPC   C2819302   2.245  -0.178  16.337  0.4172 -0.1718  0.3721
  160DOPC   H8R19303   2.233  -0.164  16.228  1.2950  1.1300  0.4218
  160DOPC   H8S19304   2.262  -0.287  16.350 -0.4921 -0.3627  0.0303
  160DOPC   C2919305   2.375  -0.105  16.377  0.1854  0.6236 -0.2709
  160DOPC   H9R19306   2.429  -0.150  16.461  1.6058  0.3224 -1.2953
  160DOPC  C21019307   2.422   0.005  16.318 -0.1311  0.1266  0.3949
  160DOPC  H10R19308   2.515   0.055  16.347  0.1851 -0.4400  0.3795
  160DOPC  C21119309   2.363   0.080  16.200  0.1007  0.1314  0.1976
  160DOPC  H11R19310   2.364   0.189  16.216 -0.7949  0.0714  0.7455
  160DOPC  H11S19311   2.259   0.045  16.183 -0.5158  2.2323 -0.5123
  160DOPC  C21219312   2.452   0.046  16.082 -0.1873 -0.4443 -0.0937
  160DOPC  H12R19313   2.561   0.043  16.102  0.0706  0.4496 -1.3131
  160DOPC  H12S19314   2.447   0.138  16.020 -1.1544 -0.8171 -0.5907
  160DOPC  C21319315   2.412  -0.081  16.007  0.4752 -0.4707  0.1069
  160DOPC  H13R19316   2.304  -0.088  15.981 -0.0098  0.3675  1.7163
  160DOPC  H13S19317   2.428  -0.163  16.080 -0.6191  0.8553  1.9226
  160DOPC  C21419318   2.493  -0.098  15.878 -0.0451 -0.6572  0.9201
  160DOPC  H14R19319   2.470  -0.203  15.850  0.4798 -0.1498 -1.6061
  160DOPC  H14S19320   2.602  -0.098  15.903  0.0266 -2.5710  0.7838
  160DOPC  C21519321   2.444   0.004  15.771 -0.5438  0.2795 -0.0370
  160DOPC  H15R19322   2.478   0.102  15.813  1.0380 -0.0339 -0.5144
  160DOPC  H15S19323   2.335   0.021  15.756 -0.1255  1.7145 -1.7252
  160DOPC  C21619324   2.506  -0.039  15.633  0.2210 -0.7144 -0.2244
  160DOPC  H16R19325   2.498  -0.150  15.627 -0.8821 -0.5769 -3.4187
  160DOPC  H16S19326   2.615  -0.019  15.642  0.5359 -1.6366 -1.6604
  160DOPC  C21719327   2.451   0.032  15.511 -0.4318  0.9290 -0.6938
  160DOPC  H17R19328   2.344   0.001  15.504  0.5529 -2.8887 -0.9153
  160DOPC  H17S19329   2.503  -0.006  15.421  1.8729 -1.7394  1.5877
  160DOPC  C21819330   2.464   0.187  15.511 -0.4566  0.0178 -0.4391
  160DOPC  H18R19331   2.427   0.233  15.605  0.6654  0.3741 -0.1635
  160DOPC  H18S19332   2.398   0.214  15.426  1.8507  1.0601 -1.9994
  160DOPC  H18T19333   2.567   0.227  15.504 -0.4805  0.2753  0.6446
  160DOPC   C3319334   1.637   0.512  16.075  0.7831  0.4382 -0.7019
  160DOPC   H3X19335   1.685   0.412  16.085 -0.7703 -0.1251  2.6653
  160DOPC   H3Y19336   1.704   0.577  16.135  1.3580  0.3638 -1.2524
  160DOPC   C3419337   1.656   0.564  15.932  0.3278 -0.7578 -0.0350
  160DOPC   H4X19338   1.764   0.556  15.906  0.9681  0.8492  1.8411
  160DOPC   H4Y19339   1.627   0.671  15.922 -0.1629 -0.8814  0.0415
  160DOPC   C3519340   1.571   0.484  15.834  0.1773 -0.0037  0.1215
  160DOPC   H5X19341   1.462   0.499  15.844 -0.0599 -0.5242 -1.4719
  160DOPC   H5Y19342   1.597   0.378  15.856  0.8230  0.1378  0.0776
  160DOPC   C3619343   1.621   0.491  15.690 -0.2728  1.1599  0.1831
  160DOPC   H6X19344   1.579   0.587  15.652  1.9351  0.8481 -3.5398
  160DOPC   H6Y19345   1.732   0.494  15.693 -0.0881 -1.5779 -1.0432
  160DOPC   C3719346   1.573   0.365  15.620  0.0354  0.1070  0.1758
  160DOPC   H7X19347   1.654   0.288  15.621 -0.7920 -0.7816  0.1345
  160DOPC   H7Y19348   1.489   0.326  15.680 -1.3601  1.6861 -0.6769
  160DOPC   C3819349   1.527   0.383  15.479  0.1571  0.1125  0.0302
  160DOPC   H8X19350   1.451   0.464  15.472  1.2971  1.1189 -1.2768
  160DOPC   H8Y19351   1.480   0.287  15.451 -0.7850  0.8810 -1.1061
  160DOPC   C3919352   1.641   0.402  15.389 -0.0212  0.0839  0.2412
  160DOPC   H9X19353   1.722   0.470  15.422  1.3923 -1.0450 -0.7873
  160DOPC  C31019354   1.647   0.342  15.263 -0.5413  0.2445 -0.4030
  160DOPC  H10X19355   1.722   0.387  15.197 -0.6496  0.3070 -0.4828
  160DOPC  C31119356   1.552   0.245  15.205 -0.0754  0.5665 -0.8364
  160DOPC  H11X19357   1.535   0.161  15.276 -2.6010  1.1613 -0.6410
  160DOPC  H11Y19358   1.606   0.202  15.118 -1.7017 -3.2823 -0.1826
  160DOPC  C31219359   1.412   0.298  15.145 -1.1857 -0.3843 -0.4118
  160DOPC  H12X19360   1.367   0.363  15.223  1.1543  0.8404 -0.0273
  160DOPC  H12Y19361   1.347   0.207  15.145 -1.0270 -0.5024  0.0679
  160DOPC  C31319362   1.438   0.375  15.017 -0.0855  0.4777 -0.6783
  160DOPC  H13X19363   1.343   0.427  14.991 -0.8070  0.2898  1.3891
  160DOPC  H13Y19364   1.524   0.443  15.035 -0.1376  0.2133  0.7243
  160DOPC  C31419365   1.490   0.284  14.901 -0.0300  0.0600  0.0486
  160DOPC  H14X19366   1.592   0.244  14.918 -0.8963 -0.9319  3.9947
  160DOPC  H14Y19367   1.418   0.200  14.892 -1.4268  1.2112  0.1734
  160DOPC  C31519368   1.487   0.351  14.762  0.1174  0.8694  0.0676
  160DOPC  H15X19369   1.492   0.460  14.780 -2.0953  1.0227 -0.0298
  160DOPC  H15Y19370   1.390   0.333  14.712 -0.1055 -0.9012  1.0438
  160DOPC  C31619371   1.603   0.299  14.672  0.5107  0.0632  0.6616
  160DOPC  H16X19372   1.696   0.322  14.727 -0.0040  0.1361  1.5238
  160DOPC  H16Y19373   1.581   0.193  14.646 -2.3393  1.2056 -2.1522
  160DOPC  C31719374   1.602   0.371  14.542  0.0615 -0.2847 -0.3794
  160DOPC  H17X19375   1.503   0.360  14.494  0.1367 -1.2251 -0.3406
  160DOPC  H17Y19376   1.607   0.481  14.556 -0.2973 -0.1114 -1.4588
  160DOPC  C31819377   1.710   0.324  14.446  0.1958 -0.2250 -0.0705
  160DOPC  H18X19378   1.700   0.376  14.348  0.2582 -0.7436 -0.3552
  160DOPC  H18Y19379   1.811   0.342  14.486  0.8442 -0.8706 -1.3581
  160DOPC  H18Z19380   1.701   0.214  14.429 -3.3480 -0.0466 -0.2578
  161DOPC     N19381   3.521   1.296  17.059  0.8016 -0.6955  0.2590
  161DOPC   C1219382   3.510   1.277  16.910  0.6799  0.0241  0.1470
  161DOPC  H12A19383   3.611   1.272  16.871  1.1065 -0.4939  1.3017
  161DOPC  H12B19384   3.452   1.359  16.871 -1.3013 -1.7342 -0.7598
  161DOPC   C1319385   3.628   1.211  17.119  0.3572 -0.9699 -0.5018
  161DOPC  H13A19386   3.601   1.108  17.101  2.3985 -1.8193  0.9080
  161DOPC  H13B19387   3.717   1.226  17.059 -0.5408  2.4359 -1.2025
  161DOPC  H13C19388   3.649   1.216  17.224 -0.0263 -3.2427 -0.2647
  161DOPC   C1419389   3.398   1.265  17.128  0.0569  0.2234  0.2865
  161DOPC  H14A19390   3.379   1.161  17.107 -2.9743  0.5235  1.0568
  161DOPC  H14B19391   3.398   1.275  17.235 -0.4312 -0.6167  0.3698
  161DOPC  H14C19392   3.313   1.323  17.094  0.5862  0.0978 -1.3266
  161DOPC   C1519393   3.548   1.442  17.087 -0.2508  0.5922 -0.4618
  161DOPC  H15A19394   3.599   1.448  17.181 -2.1781  0.6550  0.6369
  161DOPC  H15B19395   3.459   1.501  17.105 -0.9813  0.1336 -2.3011
  161DOPC  H15C19396   3.595   1.494  17.005 -0.9256  0.8628 -0.6878
  161DOPC   C1119397   3.443   1.142  16.859 -0.3639  0.0554 -0.8037
  161DOPC  H11A19398   3.342   1.129  16.906  1.4983 -0.3550  3.5989
  161DOPC  H11B19399   3.429   1.160  16.750  0.8829  0.6875 -0.8652
  161DOPC     P19400   3.650   1.017  16.793  0.0414 -0.1859 -0.0176
  161DOPC   O1319401   3.738   0.900  16.833 -0.0308 -0.4384 -0.6572
  161DOPC   O1419402   3.724   1.139  16.760  0.3210  0.3041 -0.6469
  161DOPC   O1219403   3.529   1.031  16.890  0.1773  0.0099 -0.0015
  161DOPC   O1119404   3.572   0.972  16.660  0.1754  0.4430  0.0201
  161DOPC    C119405   3.515   0.840  16.651  0.1019  0.0813  0.5910
  161DOPC    HA19406   3.411   0.845  16.692 -0.2966 -0.1481 -0.3747
  161DOPC    HB19407   3.572   0.761  16.704 -0.2303 -1.4775 -1.2910
  161DOPC    C219408   3.501   0.785  16.499  0.4296  0.2908  0.2659
  161DOPC    HS19409   3.484   0.676  16.512  0.3791  0.3096  0.3626
  161DOPC   O2119410   3.627   0.815  16.427 -0.6939  0.1389 -0.4440
  161DOPC   C2119411   3.662   0.713  16.347  0.0659 -0.0460  0.1416
  161DOPC   O2219412   3.613   0.600  16.350 -0.5657  0.3093  0.0202
  161DOPC   C2219413   3.767   0.749  16.242 -0.1712 -0.3940  0.2746
  161DOPC   H2R19414   3.867   0.750  16.290 -0.0323 -1.8371  0.0639
  161DOPC   H2S19415   3.747   0.855  16.214  1.5617  0.2255  1.2421
  161DOPC    C319416   3.383   0.855  16.428 -0.1497 -0.7761  0.6654
  161DOPC    HX19417   3.405   0.964  16.417  4.3246 -1.5271  0.0859
  161DOPC    HY19418   3.293   0.846  16.492 -1.1412 -1.7293 -0.8051
  161DOPC   O3119419   3.359   0.804  16.295  0.0452  0.1618  0.0576
  161DOPC   C3119420   3.425   0.857  16.190 -0.0311 -0.4583 -0.3115
  161DOPC   O3219421   3.502   0.950  16.190 -0.2079  0.4853 -0.4374
  161DOPC   C3219422   3.375   0.791  16.064 -0.4878  0.0206 -0.0201
  161DOPC   H2X19423   3.431   0.697  16.052 -0.3325 -0.1642  1.8210
  161DOPC   H2Y19424   3.267   0.766  16.076 -0.8026  0.6821 -1.2469
  161DOPC   C2319425   3.773   0.649  16.121  0.3276 -0.6372 -0.2668
  161DOPC   H3R19426   3.670   0.634  16.081  0.1479  0.7018 -0.3677
  161DOPC   H3S19427   3.805   0.550  16.160 -2.0445 -1.8267 -1.0943
  161DOPC   C2419428   3.869   0.690  16.010 -0.5192  0.8129  0.1257
  161DOPC   H4R19429   3.967   0.720  16.054  0.3642 -1.3499 -0.2338
  161DOPC   H4S19430   3.828   0.775  15.952  2.7770  2.3447 -0.2249
  161DOPC   C2519431   3.896   0.574  15.919 -0.4350  0.6753  0.1243
  161DOPC   H5R19432   3.802   0.530  15.880 -0.3439  0.5442  0.0515
  161DOPC   H5S19433   3.945   0.492  15.976 -1.9332  1.0831  2.0944
  161DOPC   C2619434   3.978   0.623  15.799 -0.2093  0.0005  0.1827
  161DOPC   H6R19435   4.014   0.530  15.750  1.1406  0.4961  0.1917
  161DOPC   H6S19436   4.065   0.689  15.820 -2.6788  2.8631  2.2864
  161DOPC   C2719437   3.885   0.698  15.691  0.2459 -0.0246 -0.6376
  161DOPC   H7R19438   3.811   0.760  15.746  0.8497 -0.9985  1.3533
  161DOPC   H7S19439   3.819   0.624  15.641  1.5701 -1.4161 -0.4027
  161DOPC   C2819440   3.958   0.778  15.595 -0.2310 -0.2734 -0.2801
  161DOPC   H8R19441   4.023   0.855  15.641 -1.3001 -0.4732  1.6814
  161DOPC   H8S19442   3.882   0.837  15.540 -0.9309  0.3856  1.3443
  161DOPC   C2919443   4.033   0.681  15.503 -0.0099 -0.3349 -0.3606
  161DOPC   H9R19444   4.120   0.637  15.554 -0.2874 -0.9763 -0.4425
  161DOPC  C21019445   4.018   0.666  15.368  0.2839 -0.0797 -0.1951
  161DOPC  H10R19446   4.085   0.598  15.313 -1.6653 -0.9619 -1.5858
  161DOPC  C21119447   3.922   0.749  15.282 -0.5394  0.0692  0.7577
  161DOPC  H11R19448   3.960   0.853  15.280 -0.9978  0.2270 -0.3700
  161DOPC  H11S19449   3.823   0.751  15.332 -0.8002  2.0878  0.2013
  161DOPC  C21219450   3.903   0.674  15.148 -0.7659  0.0928 -0.1375
  161DOPC  H12R19451   3.825   0.723  15.086  1.7050 -0.0034 -3.6034
  161DOPC  H12S19452   3.860   0.572  15.163 -2.5804  0.7082 -0.9395
  161DOPC  C21319453   4.037   0.658  15.068  0.0793 -0.2057 -0.1422
  161DOPC  H13R19454   4.114   0.588  15.106  1.3368  1.1928 -0.0166
  161DOPC  H13S19455   4.097   0.752  15.072  1.1079 -0.8672  1.0645
  161DOPC  C21419456   4.013   0.622  14.920  0.6514  0.4623  0.4771
  161DOPC  H14R19457   4.090   0.670  14.856 -0.9261  0.8289 -1.2263
  161DOPC  H14S19458   3.916   0.666  14.891  0.9871  1.3078  0.6243
  161DOPC  C21519459   4.012   0.470  14.901 -0.5275  0.7176 -0.3038
  161DOPC  H15R19460   3.926   0.427  14.957 -0.9235  2.5806  0.6097
  161DOPC  H15S19461   4.111   0.443  14.944 -0.5588  2.0440  0.7019
  161DOPC  C21619462   4.007   0.434  14.751 -0.0295  0.0900  0.5927
  161DOPC  H16R19463   4.093   0.462  14.688 -0.8479 -0.9509 -1.0754
  161DOPC  H16S19464   3.922   0.482  14.698  1.5736  1.9962 -0.3744
  161DOPC  C21719465   4.011   0.282  14.721 -0.5617  0.3896  0.0422
  161DOPC  H17R19466   4.001   0.260  14.613 -1.0993  1.4415 -0.1350
  161DOPC  H17S19467   3.929   0.222  14.766 -0.4189 -0.9055 -1.3601
  161DOPC  C21819468   4.138   0.204  14.773  0.0631 -0.4299 -0.5779
  161DOPC  H18R19469   4.125   0.095  14.755 -0.9662 -0.7472  1.7678
  161DOPC  H18S19470   4.150   0.219  14.882 -0.5106 -1.3828 -0.3756
  161DOPC  H18T19471   4.236   0.234  14.729  0.4210 -2.0124 -0.9220
  161DOPC   C3319472   3.403   0.889  15.946  0.1926 -0.3840 -0.9214
  161DOPC   H3X19473   3.510   0.917  15.945  0.2099 -0.4594 -2.2149
  161DOPC   H3Y19474   3.349   0.986  15.959 -0.0734 -0.4091 -1.7883
  161DOPC   C3419475   3.362   0.829  15.809  0.3398 -0.3174 -0.2277
  161DOPC   H4X19476   3.385   0.913  15.740 -1.2397  0.2027 -0.1631
  161DOPC   H4Y19477   3.252   0.813  15.812  0.2399  0.4900  1.4078
  161DOPC   C3519478   3.440   0.709  15.769 -0.0518  0.4676 -0.1082
  161DOPC   H5X19479   3.437   0.628  15.845  0.1092 -0.3895 -0.9899
  161DOPC   H5Y19480   3.548   0.732  15.753  0.3624 -0.7513  0.7506
  161DOPC   C3619481   3.392   0.639  15.644  0.7320 -0.3752 -0.2815
  161DOPC   H6X19482   3.291   0.594  15.654  0.9467 -1.0468 -0.9559
  161DOPC   H6Y19483   3.373   0.722  15.573 -0.8171  1.9223  2.5955
  161DOPC   C3719484   3.494   0.540  15.591 -0.1145  1.0886  0.2741
  161DOPC   H7X19485   3.579   0.604  15.558 -0.3756  1.5957  0.5726
  161DOPC   H7Y19486   3.530   0.477  15.674 -0.0787 -1.6630 -1.6967
  161DOPC   C3819487   3.453   0.450  15.473 -0.1010  0.1280  0.1241
  161DOPC   H8X19488   3.546   0.391  15.463  1.4182  2.0651  1.8620
  161DOPC   H8Y19489   3.448   0.515  15.382 -0.0457 -2.2295 -1.6528
  161DOPC   C3919490   3.320   0.376  15.503  0.4895  0.1680  0.2530
  161DOPC   H9X19491   3.332   0.297  15.578 -1.4816 -2.0988 -1.6190
  161DOPC  C31019492   3.194   0.388  15.453 -0.5035 -0.7487  0.4498
  161DOPC  H10X19493   3.118   0.315  15.484  0.9013 -2.2928  0.3620
  161DOPC  C31119494   3.157   0.491  15.346 -0.1028 -0.0869 -0.1433
  161DOPC  H11X19495   3.252   0.539  15.316  1.2223 -1.3001  1.8411
  161DOPC  H11Y19496   3.088   0.564  15.395 -1.4672 -0.4704 -1.4220
  161DOPC  C31219497   3.082   0.454  15.216  0.1176 -0.0230  0.0123
  161DOPC  H12X19498   3.005   0.377  15.233  0.3879 -0.8080 -2.0029
  161DOPC  H12Y19499   3.143   0.408  15.135 -1.2559 -1.6577 -0.1333
  161DOPC  C31319500   3.018   0.579  15.144  0.0637  0.5539 -0.4335
  161DOPC  H13X19501   2.967   0.534  15.057  0.3892 -1.8466  0.5354
  161DOPC  H13Y19502   2.947   0.623  15.218 -0.1288  1.7699 -1.3141
  161DOPC  C31419503   3.126   0.668  15.103 -0.0128 -0.0313 -0.1661
  161DOPC  H14X19504   3.196   0.696  15.184  0.7359 -0.0104 -0.8144
  161DOPC  H14Y19505   3.187   0.617  15.026 -0.9529 -0.2203 -0.8018
  161DOPC  C31519506   3.072   0.800  15.045  0.3828  0.4440 -0.1443
  161DOPC  H15X19507   2.981   0.780  14.984  0.1431  0.1105  0.3175
  161DOPC  H15Y19508   3.137   0.859  14.977  0.2716  1.5245  0.6619
  161DOPC  C31619509   3.025   0.895  15.166  0.1334  0.8384  0.0530
  161DOPC  H16X19510   2.935   0.848  15.212 -0.8829  0.2042 -2.4480
  161DOPC  H16Y19511   3.112   0.896  15.234 -0.6622  1.4775  1.1113
  161DOPC  C31719512   2.995   1.033  15.115  0.3195 -0.1725  0.0952
  161DOPC  H17X19513   3.084   1.073  15.061 -1.2058  0.9619 -1.7109
  161DOPC  H17Y19514   2.928   1.026  15.027  2.0524 -1.6593 -1.2109
  161DOPC  C31819515   2.963   1.137  15.219 -0.8297 -0.8518 -0.3480
  161DOPC  H18X19516   2.870   1.117  15.276  1.5972 -2.7774  3.3410
  161DOPC  H18Y19517   3.041   1.131  15.298  0.0008  0.1907 -1.0552
  161DOPC  H18Z19518   2.964   1.239  15.175 -1.6608 -1.7813 -2.6920
  162DOPC     N19519   1.616   6.608  16.875  0.0054  0.2193 -0.6914
  162DOPC   C1219520   1.594   6.579  17.022  0.0181  0.1425 -0.0282
  162DOPC  H12A19521   1.687   6.555  17.071 -0.4873 -1.7521  0.0686
  162DOPC  H12B19522   1.541   6.486  17.039  1.3894 -1.3793 -3.2527
  162DOPC   C1319523   1.494   6.609  16.792  0.1606 -0.0730  0.6191
  162DOPC  H13A19524   1.439   6.516  16.800 -3.2682  1.6753 -0.5031
  162DOPC  H13B19525   1.423   6.684  16.824  0.0650  0.2040 -0.2148
  162DOPC  H13C19526   1.509   6.642  16.690 -0.8053  0.1870  0.5504
  162DOPC   C1419527   1.707   6.509  16.811  0.1684  0.5813  0.5068
  162DOPC  H14A19528   1.802   6.505  16.862  0.3192  2.5509  0.4583
  162DOPC  H14B19529   1.656   6.414  16.816 -0.8666  1.1810  3.5546
  162DOPC  H14C19530   1.736   6.527  16.709  0.1326  0.2383  0.4330
  162DOPC   C1519531   1.678   6.743  16.856  0.0660  0.0713 -0.6293
  162DOPC  H15A19532   1.680   6.773  16.752  2.0039  2.2484 -0.0365
  162DOPC  H15B19533   1.779   6.757  16.893 -0.5195  3.1553  0.0876
  162DOPC  H15C19534   1.617   6.822  16.897 -0.3453 -0.8272  0.5449
  162DOPC   C1119535   1.517   6.685  17.105  0.1205 -0.4922 -0.3174
  162DOPC  H11A19536   1.504   6.642  17.206  1.3368 -0.5817 -0.1742
  162DOPC  H11B19537   1.586   6.767  17.135  1.3865 -2.4047  2.4971
  162DOPC     P19538   1.359   6.878  17.029 -0.0921 -0.2561 -0.0941
  162DOPC   O1319539   1.479   6.967  17.011  0.7900  0.1122 -0.3529
  162DOPC   O1419540   1.278   6.905  17.157 -0.0517  0.3910  0.6077
  162DOPC   O1219541   1.399   6.732  17.041  0.0467 -0.1821  0.2182
  162DOPC   O1119542   1.264   6.887  16.905  1.0031 -0.2788 -0.0025
  162DOPC    C119543   1.319   6.882  16.772 -0.0582 -0.6097  0.1162
  162DOPC    HA19544   1.282   6.795  16.714  1.0219 -0.7155 -0.4608
  162DOPC    HB19545   1.429   6.868  16.764 -0.0483  0.2495 -2.1743
  162DOPC    C219546   1.263   7.002  16.692 -0.4919 -0.3711  0.3868
  162DOPC    HS19547   1.290   7.091  16.753  1.2221  0.0525 -0.8886
  162DOPC   O2119548   1.125   6.978  16.659 -0.2958 -0.2378  0.1552
  162DOPC   C2119549   1.055   7.088  16.645  0.4579  0.0545 -0.6583
  162DOPC   O2219550   1.100   7.202  16.655  0.0930  0.1337 -0.0922
  162DOPC   C2219551   0.912   7.060  16.612  0.5353  0.6748 -0.2828
  162DOPC   H2R19552   0.855   7.128  16.679 -0.5701 -0.6423  0.1511
  162DOPC   H2S19553   0.872   6.959  16.632  0.4887  0.0867 -2.9027
  162DOPC    C319554   1.359   7.021  16.567  0.2722  0.2278  0.0676
  162DOPC    HX19555   1.468   7.013  16.590  0.4870 -0.2085 -1.0130
  162DOPC    HY19556   1.337   7.121  16.524 -0.5991 -0.3223 -0.7978
  162DOPC   O3119557   1.320   6.931  16.460 -0.4924  0.4264  0.3530
  162DOPC   C3119558   1.389   6.810  16.458  0.6110 -0.5883 -0.3993
  162DOPC   O3219559   1.473   6.778  16.539  0.1108 -0.4303  0.0834
  162DOPC   C3219560   1.347   6.729  16.340 -0.1400  0.8214  0.1508
  162DOPC   H2X19561   1.329   6.794  16.252 -1.2634  0.6378  0.2243
  162DOPC   H2Y19562   1.424   6.653  16.315 -0.4278 -1.2394  4.4823
  162DOPC   C2319563   0.868   7.092  16.465 -0.4287  0.2627 -0.3350
  162DOPC   H3R19564   0.899   7.194  16.433 -3.2143  1.6210  0.9749
  162DOPC   H3S19565   0.757   7.093  16.460 -0.6314 -0.9395  2.2690
  162DOPC   C2419566   0.900   6.975  16.366 -0.2917  0.1270 -0.0759
  162DOPC   H4R19567   0.836   6.892  16.404 -1.1945 -0.1635 -2.0975
  162DOPC   H4S19568   1.006   6.947  16.378 -0.1038  0.6456 -0.4791
  162DOPC   C2519569   0.866   7.010  16.220  0.4236 -1.0957 -0.3854
  162DOPC   H5R19570   0.918   7.106  16.197 -0.6664 -0.2536  0.5353
  162DOPC   H5S19571   0.758   7.033  16.210  1.0708  3.9234  1.4628
  162DOPC   C2619572   0.905   6.893  16.123  0.2377 -0.8747 -0.0838
  162DOPC   H6R19573   0.817   6.827  16.139 -1.0571  0.4805 -1.3001
  162DOPC   H6S19574   0.992   6.835  16.160 -1.3219 -2.1538  1.7849
  162DOPC   C2719575   0.902   6.929  15.979  0.4789 -0.0859  0.5446
  162DOPC   H7R19576   0.851   7.024  15.952 -0.9971 -1.3348 -1.4797
  162DOPC   H7S19577   0.840   6.856  15.922 -0.4200  0.9232  0.2084
  162DOPC   C2819578   1.036   6.913  15.900 -0.9804 -0.4308 -0.0017
  162DOPC   H8R19579   1.091   6.820  15.922  0.9591  0.3211 -1.3579
  162DOPC   H8S19580   1.099   6.995  15.941 -3.4118  0.6952  1.7376
  162DOPC   C2919581   1.016   6.932  15.754  0.7460 -0.6762 -0.1192
  162DOPC   H9R19582   0.912   6.942  15.717  1.7781 -0.1175 -3.1992
  162DOPC  C21019583   1.100   6.916  15.655  0.9646 -0.5756  0.3877
  162DOPC  H10R19584   1.066   6.921  15.551  0.3074  1.3487  0.6549
  162DOPC  C21119585   1.243   6.875  15.673 -0.4799 -0.2935 -0.4222
  162DOPC  H11R19586   1.251   6.818  15.768 -0.9737  0.5736  0.1537
  162DOPC  H11S19587   1.305   6.966  15.689 -1.2317  0.1129  0.2171
  162DOPC  C21219588   1.301   6.804  15.545 -0.1757 -0.6993 -1.1366
  162DOPC  H12R19589   1.225   6.732  15.511 -0.5010 -1.3375  0.7967
  162DOPC  H12S19590   1.396   6.757  15.580 -0.6493 -1.1703 -0.4569
  162DOPC  C21319591   1.341   6.904  15.438 -0.3365 -0.7892 -0.2641
  162DOPC  H13R19592   1.409   6.974  15.491 -1.9848 -0.1543  1.1234
  162DOPC  H13S19593   1.259   6.970  15.404 -0.2113  0.0783  1.0366
  162DOPC  C21419594   1.420   6.841  15.324 -0.2928 -0.0485 -0.9927
  162DOPC  H14R19595   1.374   6.744  15.295 -2.0349  0.7267 -0.9727
  162DOPC  H14S19596   1.523   6.818  15.359  0.1420  1.8980 -0.8342
  162DOPC  C21519597   1.417   6.913  15.186  0.4363 -0.8975 -0.1066
  162DOPC  H15R19598   1.315   6.915  15.141 -0.4573  1.1748  1.7910
  162DOPC  H15S19599   1.480   6.845  15.125 -0.4586  1.1168 -3.5143
  162DOPC  C21619600   1.485   7.058  15.194  0.8040  0.4629  0.4363
  162DOPC  H16R19601   1.582   7.055  15.249  0.2149 -0.3072  1.4936
  162DOPC  H16S19602   1.417   7.127  15.249 -0.0126  0.8558 -1.0281
  162DOPC  C21719603   1.517   7.117  15.057 -0.4079 -0.7999  0.1151
  162DOPC  H17R19604   1.414   7.133  15.019 -0.1043 -1.5051 -1.0639
  162DOPC  H17S19605   1.570   7.043  14.993  1.8874  1.0811 -0.3005
  162DOPC  C21819606   1.597   7.256  15.052  0.2580  0.3244 -0.5041
  162DOPC  H18R19607   1.628   7.284  14.949  0.6335  3.5965  0.3817
  162DOPC  H18S19608   1.689   7.224  15.105 -0.1607  0.1112  0.1109
  162DOPC  H18T19609   1.556   7.340  15.112 -0.8012 -0.7827  0.3605
  162DOPC   C3319610   1.208   6.658  16.356 -0.4094 -0.6161 -1.3796
  162DOPC   H3X19611   1.137   6.740  16.328  0.4214 -0.0755 -1.9483
  162DOPC   H3Y19612   1.198   6.624  16.461 -0.2008  0.6023 -0.9384
  162DOPC   C3419613   1.203   6.536  16.267  0.0333 -0.1055  0.3653
  162DOPC   H4X19614   1.104   6.488  16.285  0.7252 -2.5894 -1.8487
  162DOPC   H4Y19615   1.288   6.468  16.286 -0.0292 -0.2493  0.1364
  162DOPC   C3519616   1.205   6.580  16.125  0.1421  0.0703  0.0039
  162DOPC   H5X19617   1.308   6.618  16.109  0.9356 -0.6548  2.8521
  162DOPC   H5Y19618   1.133   6.664  16.119  1.3116  1.3009  2.1731
  162DOPC   C3619619   1.187   6.459  16.020 -0.3443 -0.6088 -0.1853
  162DOPC   H6X19620   1.255   6.377  16.051  1.1279  0.3517 -0.7289
  162DOPC   H6Y19621   1.079   6.435  16.019 -0.6133  0.5065 -1.9390
  162DOPC   C3719622   1.215   6.490  15.870  0.5431  0.0143 -0.5799
  162DOPC   H7X19623   1.147   6.570  15.831  1.0964  2.4011  2.9239
  162DOPC   H7Y19624   1.318   6.532  15.866 -0.2020  2.0684  0.2121
  162DOPC   C3819625   1.208   6.360  15.791 -0.3624  0.4281  0.0853
  162DOPC   H8X19626   1.109   6.310  15.798  0.1950 -1.1028 -2.0853
  162DOPC   H8Y19627   1.292   6.290  15.816  0.1851  0.6820 -1.0056
  162DOPC   C3919628   1.218   6.407  15.645 -0.5083 -0.7696 -0.5924
  162DOPC   H9X19629   1.158   6.493  15.613  0.1991 -0.5961 -1.5006
  162DOPC  C31019630   1.301   6.353  15.548  0.1122 -0.6825 -0.3395
  162DOPC  H10X19631   1.303   6.407  15.452  2.5227 -1.1885 -0.6323
  162DOPC  C31119632   1.397   6.237  15.564  0.1610 -0.0547  0.0588
  162DOPC  H11X19633   1.407   6.194  15.666  2.5859  2.8476  1.1778
  162DOPC  H11Y19634   1.502   6.268  15.545  0.9462 -3.5194 -2.3450
  162DOPC  C31219635   1.363   6.130  15.455 -0.2582  0.9307  0.4077
  162DOPC  H12X19636   1.446   6.055  15.451 -1.2050 -0.1314 -0.0477
  162DOPC  H12Y19637   1.344   6.162  15.350  0.2358  0.5707  0.2034
  162DOPC  C31319638   1.244   6.049  15.493  0.3558  0.3941  0.5883
  162DOPC  H13X19639   1.253   6.002  15.593  3.2151 -0.2323  0.1279
  162DOPC  H13Y19640   1.153   6.113  15.487 -1.5234 -2.1706 -0.3741
  162DOPC  C31419641   1.211   5.932  15.391  0.9880  0.2662  0.0967
  162DOPC  H14X19642   1.101   5.917  15.397  1.3220 -2.7353  0.2352
  162DOPC  H14Y19643   1.231   5.975  15.291  1.2774 -1.1997 -0.5017
  162DOPC  C31519644   1.294   5.806  15.422  0.1053 -0.0767  0.4206
  162DOPC  H15X19645   1.271   5.765  15.523 -2.2874 -1.5725 -0.6497
  162DOPC  H15Y19646   1.401   5.837  15.426 -0.0146  0.5903 -1.1653
  162DOPC  C31619647   1.276   5.693  15.320 -0.2790 -0.8697  0.6464
  162DOPC  H16X19648   1.187   5.629  15.340 -0.4615 -0.5263  0.9652
  162DOPC  H16Y19649   1.265   5.731  15.216 -1.1755 -2.0574  0.2934
  162DOPC  C31719650   1.403   5.601  15.321 -0.3956  0.4971  0.1420
  162DOPC  H17X19651   1.425   5.557  15.420 -0.0287  2.0721  0.7910
  162DOPC  H17Y19652   1.381   5.523  15.245  0.9345  0.5599 -0.3384
  162DOPC  C31819653   1.533   5.667  15.257  0.0174  0.9186 -0.3770
  162DOPC  H18X19654   1.497   5.724  15.169 -1.4101 -1.8798 -1.7275
  162DOPC  H18Y19655   1.588   5.720  15.338 -0.5524  0.2432  0.4630
  162DOPC  H18Z19656   1.598   5.583  15.226 -1.2610 -0.7697  1.3105
  163DOPC     N19657   7.405   2.563  17.163  0.3374 -0.1489 -0.0157
  163DOPC   C1219658   7.312   2.672  17.102 -0.0231 -0.0455 -0.1179
  163DOPC  H12A19659   7.208   2.645  17.119 -0.3537  0.4260 -1.3042
  163DOPC  H12B19660   7.331   2.666  16.996 -1.9154  0.4864 -0.5368
  163DOPC   C1319661   7.401   2.575  17.315 -0.7512  0.8366 -0.6706
  163DOPC  H13A19662   7.431   2.675  17.344  1.1314 -0.4647  2.3334
  163DOPC  H13B19663   7.297   2.564  17.341 -0.3593  1.6092  1.4848
  163DOPC  H13C19664   7.458   2.499  17.365  0.4560  0.9940 -1.7548
  163DOPC   C1419665   7.539   2.568  17.104  0.0816  0.7582  0.2103
  163DOPC  H14A19666   7.605   2.497  17.151  1.7395  2.0488 -0.1083
  163DOPC  H14B19667   7.538   2.539  17.000  2.6773  2.5013 -0.3854
  163DOPC  H14C19668   7.584   2.665  17.116  1.5883 -0.0010  0.9626
  163DOPC   C1519669   7.349   2.425  17.130  0.4234 -0.3980 -0.5319
  163DOPC  H15A19670   7.413   2.348  17.171  0.9174 -0.2192 -0.9461
  163DOPC  H15B19671   7.351   2.413  17.022 -0.3115 -0.7860 -0.5073
  163DOPC  H15C19672   7.252   2.409  17.173  0.6559 -0.4447 -0.0176
  163DOPC   C1119673   7.353   2.810  17.152 -0.0303 -0.2247  0.2250
  163DOPC  H11A19674   7.281   2.882  17.107  1.7038  0.1743 -2.0888
  163DOPC  H11B19675   7.328   2.814  17.261 -1.8995  0.5888 -0.1835
  163DOPC     P19676   7.509   2.941  16.990 -0.3481 -0.5550  0.1358
  163DOPC   O1319677   7.653   2.929  16.953  0.1712 -0.6809  0.9771
  163DOPC   O1419678   7.465   3.079  17.023 -0.3374 -1.0798  0.3437
  163DOPC   O1219679   7.488   2.851  17.113 -0.1436  0.2405 -0.7149
  163DOPC   O1119680   7.423   2.876  16.875 -0.0192 -0.0502 -1.0116
  163DOPC    C119681   7.447   2.937  16.744 -0.0608 -0.1285  0.2538
  163DOPC    HA19682   7.490   3.040  16.744 -0.1408 -0.0929  0.5061
  163DOPC    HB19683   7.350   2.963  16.697 -0.9842 -1.9482  1.0893
  163DOPC    C219684   7.518   2.840  16.648  0.1254 -0.2303 -0.1816
  163DOPC    HS19685   7.617   2.823  16.695 -0.3729 -0.6486  0.7605
  163DOPC   O2119686   7.516   2.908  16.518 -0.6792 -0.1213  0.2091
  163DOPC   C2119687   7.622   2.989  16.486  0.6100 -0.1618  0.8212
  163DOPC   O2219688   7.724   3.006  16.554  0.8144  0.0956  0.2245
  163DOPC   C2219689   7.601   3.032  16.343  0.1206 -0.5347 -0.5543
  163DOPC   H2R19690   7.532   3.119  16.346  0.1262 -0.3481 -3.3148
  163DOPC   H2S19691   7.557   2.947  16.287 -0.4664 -1.2601  0.9632
  163DOPC    C319692   7.444   2.701  16.636 -1.1894 -0.0702  0.4120
  163DOPC    HX19693   7.341   2.734  16.609 -0.3447  1.8541 -0.6762
  163DOPC    HY19694   7.448   2.647  16.733  0.1394  0.0168  0.4214
  163DOPC   O3119695   7.512   2.622  16.541  0.3402  0.1813 -0.5926
  163DOPC   C3119696   7.427   2.547  16.467  0.1625  0.6829 -0.7836
  163DOPC   O3219697   7.313   2.520  16.503 -0.3004 -0.1309 -0.0650
  163DOPC   C3219698   7.489   2.500  16.340  0.1974 -0.4827  0.0874
  163DOPC   H2X19699   7.539   2.403  16.359  1.4675  0.0184 -0.6053
  163DOPC   H2Y19700   7.405   2.488  16.268  0.0294  1.8896 -0.2185
  163DOPC   C2319701   7.729   3.078  16.276  0.2442  0.6971  0.8300
  163DOPC   H3R19702   7.798   2.991  16.273 -0.5409  0.0506  1.1548
  163DOPC   H3S19703   7.780   3.162  16.328 -1.2637  1.5106  1.0547
  163DOPC   C2419704   7.699   3.122  16.129  0.8233  0.3731  0.2477
  163DOPC   H4R19705   7.625   3.204  16.128  0.2384 -0.0149 -3.6551
  163DOPC   H4S19706   7.674   3.034  16.066  0.0454  0.5859  0.2545
  163DOPC   C2519707   7.826   3.180  16.057 -0.5776  0.2182 -0.0181
  163DOPC   H5R19708   7.908   3.106  16.046  1.0546  2.0264 -0.4574
  163DOPC   H5S19709   7.870   3.259  16.121 -0.0882  0.2094 -0.3448
  163DOPC   C2619710   7.785   3.211  15.917  0.2241 -0.7232 -0.7771
  163DOPC   H6R19711   7.703   3.286  15.913  2.3071  1.9303  1.6340
  163DOPC   H6S19712   7.742   3.119  15.871 -1.4876 -1.1626  1.5080
  163DOPC   C2719713   7.904   3.268  15.834 -0.9249  0.8353 -0.4608
  163DOPC   H7R19714   7.972   3.181  15.822 -0.3517  1.3216 -0.8051
  163DOPC   H7S19715   7.964   3.347  15.885  0.5687  0.1796 -1.1656
  163DOPC   C2819716   7.874   3.323  15.698 -0.0098 -0.0619  0.9313
  163DOPC   H8R19717   7.971   3.330  15.644 -1.0924 -1.5949 -1.3820
  163DOPC   H8S19718   7.844   3.430  15.705  0.9110  0.2497  0.2880
  163DOPC   C2919719   7.787   3.236  15.615 -0.5150  0.2240 -0.0182
  163DOPC   H9R19720   7.845   3.145  15.597  1.8720  1.1967  2.2017
  163DOPC  C21019721   7.671   3.265  15.553  0.1162 -0.8547 -0.0569
  163DOPC  H10R19722   7.633   3.185  15.488  1.2325  0.2606 -2.1981
  163DOPC  C21119723   7.602   3.401  15.550  0.3252 -0.0847  0.6183
  163DOPC  H11R19724   7.620   3.446  15.450  0.5295  1.6926  1.4269
  163DOPC  H11S19725   7.650   3.464  15.628 -1.7250  0.0970  1.7971
  163DOPC  C21219726   7.457   3.396  15.580  1.0357  0.0063 -0.5751
  163DOPC  H12R19727   7.398   3.337  15.506 -0.0660 -1.0802  1.0824
  163DOPC  H12S19728   7.417   3.499  15.569  2.1833  0.1973 -3.9388
  163DOPC  C21319729   7.419   3.350  15.722 -0.2856 -0.7416 -0.1273
  163DOPC  H13R19730   7.452   3.435  15.785  0.2839  0.2696 -1.7288
  163DOPC  H13S19731   7.477   3.266  15.765  1.8961  1.3124  1.2062
  163DOPC  C21419732   7.275   3.311  15.745  0.7610 -0.2895 -0.3186
  163DOPC  H14R19733   7.258   3.213  15.697 -0.2245  0.8991 -2.5492
  163DOPC  H14S19734   7.214   3.386  15.692  0.3122 -0.5950 -0.2367
  163DOPC  C21519735   7.242   3.301  15.901 -0.8076 -0.2805  0.4819
  163DOPC  H15R19736   7.261   3.398  15.952  3.0994 -1.6183  1.9259
  163DOPC  H15S19737   7.309   3.225  15.947  1.0235 -0.6171 -2.4827
  163DOPC  C21619738   7.086   3.286  15.923 -0.0329 -0.0045  0.0441
  163DOPC  H16R19739   7.049   3.187  15.890 -0.7797 -0.7334  2.8101
  163DOPC  H16S19740   7.057   3.362  15.847  0.8336  1.1838  0.8653
  163DOPC  C21719741   7.039   3.306  16.060 -0.9510  0.2269  0.3469
  163DOPC  H17R19742   7.067   3.407  16.095  1.4297  0.3022 -1.4737
  163DOPC  H17S19743   7.092   3.240  16.132  1.5091  1.9385  0.2356
  163DOPC  C21819744   6.886   3.297  16.076 -0.3591 -0.1149 -0.5112
  163DOPC  H18R19745   6.838   3.389  16.036  0.7130 -0.0946 -1.8205
  163DOPC  H18S19746   6.861   3.289  16.184 -1.0153  0.6818 -0.5959
  163DOPC  H18T19747   6.846   3.206  16.026 -0.6753  0.2302 -0.8953
  163DOPC   C3319748   7.583   2.598  16.276 -0.6781  0.4695  0.2882
  163DOPC   H3X19749   7.685   2.599  16.321 -0.9608 -0.0130  0.9524
  163DOPC   H3Y19750   7.553   2.705  16.271  1.1209  0.9654 -1.0101
  163DOPC   C3419751   7.609   2.559  16.127 -0.1441 -0.4851 -0.3119
  163DOPC   H4X19752   7.510   2.559  16.076 -0.1097  2.7858 -0.6233
  163DOPC   H4Y19753   7.630   2.450  16.127  0.6595 -0.4076  2.1380
  163DOPC   C3519754   7.716   2.640  16.053 -0.2881  0.1506 -0.4645
  163DOPC   H5X19755   7.707   2.743  16.094 -1.8430  0.7717 -2.2365
  163DOPC   H5Y19756   7.694   2.640  15.944  1.3796  1.3078 -0.8380
  163DOPC   C3619757   7.861   2.583  16.073  0.1848  0.3535 -0.3910
  163DOPC   H6X19758   7.885   2.585  16.181 -0.7301  0.2116 -0.1798
  163DOPC   H6Y19759   7.884   2.482  16.034  0.2105  0.3831 -0.4518
  163DOPC   C3719760   7.969   2.686  16.027 -0.0228  0.0626  0.2780
  163DOPC   H7X19761   7.952   2.785  16.074 -2.0709  0.9086 -2.0289
  163DOPC   H7Y19762   8.063   2.650  16.074 -1.2944 -1.8974  1.4702
  163DOPC   C3819763   7.985   2.688  15.872 -0.5854 -0.3380  0.6236
  163DOPC   H8X19764   7.958   2.594  15.819 -0.3346  0.2742 -0.6508
  163DOPC   H8Y19765   8.091   2.710  15.848 -1.3616  0.4110 -2.8371
  163DOPC   C3919766   7.909   2.799  15.811  0.0018 -0.5958 -0.3478
  163DOPC   H9X19767   7.893   2.886  15.877  0.6700 -3.4121  3.9288
  163DOPC  C31019768   7.855   2.792  15.684 -0.2865  0.2083  0.3918
  163DOPC  H10X19769   7.784   2.869  15.652 -0.2940  0.2709  0.5590
  163DOPC  C31119770   7.858   2.670  15.586 -0.6198 -0.6167 -0.2810
  163DOPC  H11X19771   7.830   2.574  15.635  1.8856 -0.6455  1.2908
  163DOPC  H11Y19772   7.954   2.669  15.530 -0.3683  0.3176  0.1164
  163DOPC  C31219773   7.752   2.704  15.480  0.0650  0.0617 -0.2646
  163DOPC  H12X19774   7.657   2.705  15.538 -0.1381  0.9332 -0.5916
  163DOPC  H12Y19775   7.765   2.623  15.404  3.5107  0.2708 -0.0435
  163DOPC  C31319776   7.767   2.833  15.395 -0.5232 -0.0452 -0.0052
  163DOPC  H13X19777   7.766   2.915  15.470  1.5485 -1.3167  1.5383
  163DOPC  H13Y19778   7.862   2.830  15.339 -0.1251 -0.6212  0.6765
  163DOPC  C31419779   7.648   2.859  15.300  0.5692 -0.1558  0.2892
  163DOPC  H14X19780   7.556   2.878  15.359  0.0508  2.7102 -1.2208
  163DOPC  H14Y19781   7.659   2.948  15.233 -0.1644 -0.2732  0.0052
  163DOPC  C31519782   7.617   2.748  15.204 -0.0763  0.0668 -0.0540
  163DOPC  H15X19783   7.598   2.655  15.262 -1.4010  0.9844  1.0712
  163DOPC  H15Y19784   7.706   2.738  15.139 -0.9213  1.2295 -1.4570
  163DOPC  C31619785   7.489   2.772  15.110 -0.6040 -0.7001 -0.0727
  163DOPC  H16X19786   7.477   2.686  15.040  1.8277 -0.1100 -1.3534
  163DOPC  H16Y19787   7.395   2.789  15.166 -0.5269 -0.4865 -0.0080
  163DOPC  C31719788   7.510   2.899  15.015  0.2286  0.2584 -0.6058
  163DOPC  H17X19789   7.492   2.989  15.077  0.9902  1.6807 -2.3738
  163DOPC  H17Y19790   7.618   2.899  14.988  0.4721 -1.3267  0.2332
  163DOPC  C31819791   7.414   2.902  14.894  0.2184  0.1400 -0.0370
  163DOPC  H18X19792   7.307   2.908  14.924  0.7019 -2.4176  2.6934
  163DOPC  H18Y19793   7.437   2.985  14.824  2.7186 -0.2549  0.2037
  163DOPC  H18Z19794   7.421   2.809  14.835  0.4010  1.4143 -2.1250
  164DOPC     N19795   0.716   1.879  17.111  0.3902 -0.2803 -0.2110
  164DOPC   C1219796   0.823   1.970  17.055  0.0287 -0.2958  0.0705
  164DOPC  H12A19797   0.906   1.968  17.125 -0.3442  2.2041  0.6601
  164DOPC  H12B19798   0.785   2.070  17.041  0.1508 -0.3195 -0.4302
  164DOPC   C1319799   0.604   1.861  17.014  0.9845 -0.0531  1.2498
  164DOPC  H13A19800   0.639   1.813  16.924 -0.3840  1.6395 -0.2447
  164DOPC  H13B19801   0.531   1.799  17.063  0.7577  0.5656  1.7096
  164DOPC  H13C19802   0.553   1.951  16.983  0.2326 -1.0735 -0.5954
  164DOPC   C1419803   0.650   1.930  17.236 -0.0165 -0.3007  0.5103
  164DOPC  H14A19804   0.720   1.936  17.317 -0.6166 -2.8682  1.3408
  164DOPC  H14B19805   0.614   2.030  17.217 -1.6387 -1.1232 -1.1245
  164DOPC  H14C19806   0.566   1.869  17.268 -1.3210  1.0747 -0.1413
  164DOPC   C1519807   0.777   1.747  17.135  0.3174 -0.7966  0.7838
  164DOPC  H15A19808   0.708   1.671  17.170 -0.5342 -0.7175 -0.6231
  164DOPC  H15B19809   0.866   1.749  17.196  0.4863  0.6869  0.5048
  164DOPC  H15C19810   0.819   1.711  17.042  0.9462  1.7511  0.0187
  164DOPC   C1119811   0.868   1.929  16.914 -0.3826 -0.4550  0.3731
  164DOPC  H11A19812   0.781   1.911  16.846 -1.5237 -1.4396  2.0183
  164DOPC  H11B19813   0.919   2.013  16.862  0.3702 -0.6132  0.8475
  164DOPC     P19814   1.079   1.810  16.829 -0.0657 -0.1113 -0.3148
  164DOPC   O1319815   1.142   1.676  16.856 -0.2510  0.4304  0.5265
  164DOPC   O1419816   1.159   1.933  16.868  0.2129  0.4162  0.1018
  164DOPC   O1219817   0.949   1.810  16.914  0.4315 -0.1225 -0.8410
  164DOPC   O1119818   1.036   1.820  16.680  0.0039  0.1969  0.3978
  164DOPC    C119819   0.927   1.736  16.621  0.3915 -0.0542  0.2549
  164DOPC    HA19820   0.838   1.797  16.595  1.8000  2.0533  0.1617
  164DOPC    HB19821   0.887   1.662  16.694 -2.1103  0.8639 -0.0984
  164DOPC    C219822   0.973   1.657  16.492 -0.2698  0.7414 -0.0536
  164DOPC    HS19823   0.914   1.563  16.480  1.0487  0.0222 -1.1936
  164DOPC   O2119824   1.116   1.642  16.472  0.0506  0.9674 -0.2413
  164DOPC   C2119825   1.167   1.544  16.553 -0.0253  0.0618 -0.4355
  164DOPC   O2219826   1.105   1.459  16.614 -0.1213  0.0297  0.6776
  164DOPC   C2219827   1.314   1.544  16.518 -0.0684 -0.2736 -0.4317
  164DOPC   H2R19828   1.374   1.519  16.608 -0.6664  0.1939  0.1031
  164DOPC   H2S19829   1.344   1.648  16.490  0.1633  0.2608  1.6664
  164DOPC    C319830   0.928   1.739  16.362  0.3342  0.4874  0.1155
  164DOPC    HX19831   0.965   1.694  16.267  0.7081 -0.7500  0.8232
  164DOPC    HY19832   0.964   1.842  16.381  0.2170  0.4286  0.6680
  164DOPC   O3119833   0.782   1.740  16.360 -0.1950 -0.5564 -0.1812
  164DOPC   C3119834   0.718   1.836  16.287  0.0435 -0.5649 -0.8582
  164DOPC   O3219835   0.775   1.936  16.251 -0.5059  0.3733  0.4350
  164DOPC   C3219836   0.573   1.792  16.260  0.2085 -0.1210 -0.1305
  164DOPC   H2X19837   0.583   1.700  16.199  1.3029  0.7214 -1.2920
  164DOPC   H2Y19838   0.529   1.763  16.358 -3.0506  0.3043 -1.3697
  164DOPC   C2319839   1.332   1.445  16.402 -0.0233 -0.2685  0.3944
  164DOPC   H3R19840   1.277   1.351  16.422 -0.9897  0.4935  1.4310
  164DOPC   H3S19841   1.437   1.409  16.406 -0.7892 -2.8280 -0.6330
  164DOPC   C2419842   1.291   1.480  16.256 -0.1215  0.2681  1.0064
  164DOPC   H4R19843   1.313   1.587  16.233  0.3412 -0.5420 -3.0818
  164DOPC   H4S19844   1.184   1.458  16.240  0.6577 -1.7586 -2.1817
  164DOPC   C2519845   1.349   1.383  16.149  0.7156 -0.0143  0.3937
  164DOPC   H5R19846   1.312   1.279  16.164 -2.5274  0.9926  0.1718
  164DOPC   H5S19847   1.459   1.384  16.164  0.6972  0.5476  0.4939
  164DOPC   C2619848   1.327   1.429  16.004  0.3564 -0.5855  0.4185
  164DOPC   H6R19849   1.384   1.522  15.981 -0.2074 -0.6408 -1.2998
  164DOPC   H6S19850   1.219   1.446  15.987  0.0611 -1.3518  1.4367
  164DOPC   C2719851   1.369   1.317  15.902  0.4516 -0.8291  0.1628
  164DOPC   H7R19852   1.327   1.221  15.939  1.3304 -1.1789  0.2573
  164DOPC   H7S19853   1.479   1.312  15.913  0.5446 -1.2902 -0.8654
  164DOPC   C2819854   1.335   1.361  15.756 -0.6748  0.1879  0.5905
  164DOPC   H8R19855   1.376   1.268  15.711 -0.3707  0.1581  0.9187
  164DOPC   H8S19856   1.403   1.449  15.744 -2.4680  1.5435 -0.1086
  164DOPC   C2919857   1.190   1.399  15.728 -0.0886  0.1129  0.9571
  164DOPC   H9R19858   1.160   1.496  15.772  2.2253  1.4993 -0.3462
  164DOPC  C21019859   1.106   1.311  15.670  0.8549  0.0800  0.4514
  164DOPC  H10R19860   1.001   1.343  15.666  1.2279  1.2420 -0.8249
  164DOPC  C21119861   1.123   1.172  15.622  0.8290  0.3211  0.0393
  164DOPC  H11R19862   1.053   1.109  15.681  0.7844  0.4950  0.1739
  164DOPC  H11S19863   1.223   1.130  15.646  0.0611 -0.0109  3.1364
  164DOPC  C21219864   1.105   1.160  15.468  0.4967 -0.2662  0.0689
  164DOPC  H12R19865   1.144   1.066  15.423  0.1803 -0.1026 -0.5580
  164DOPC  H12S19866   1.164   1.242  15.421 -0.8622  2.0932  2.2253
  164DOPC  C21319867   0.957   1.176  15.437  1.0651 -0.3094  0.2299
  164DOPC  H13R19868   0.910   1.255  15.499  1.1890  0.6904 -0.9006
  164DOPC  H13S19869   0.902   1.082  15.458  0.3718  0.3047  1.2579
  164DOPC  C21419870   0.935   1.200  15.288  0.5118 -0.2598 -0.1375
  164DOPC  H14R19871   1.000   1.285  15.259 -0.9442  2.1877  3.1467
  164DOPC  H14S19872   0.829   1.221  15.263  1.0476  0.7344 -1.7768
  164DOPC  C21519873   0.976   1.078  15.202  0.3948  0.6333 -0.1692
  164DOPC  H15R19874   0.926   0.984  15.233  1.0331  1.3472  3.4661
  164DOPC  H15S19875   1.081   1.049  15.223 -0.3290 -1.8992  0.2384
  164DOPC  C21619876   0.965   1.104  15.051 -0.0080 -0.4169  0.6421
  164DOPC  H16R19877   0.987   1.211  15.035 -1.4812 -0.3722 -1.4532
  164DOPC  H16S19878   0.859   1.090  15.023  0.0808 -0.7162  0.4401
  164DOPC  C21719879   1.066   1.018  14.977  0.1859 -0.3940  0.0770
  164DOPC  H17R19880   1.040   0.914  15.005 -0.3053 -0.0901  0.7890
  164DOPC  H17S19881   1.170   1.039  15.010  0.0520 -0.9341  0.8664
  164DOPC  C21819882   1.064   1.032  14.826  0.1608 -0.1017 -0.2030
  164DOPC  H18R19883   0.963   1.005  14.787 -0.9336 -0.4608  2.6292
  164DOPC  H18S19884   1.128   0.947  14.794  0.3603 -0.8476  2.0399
  164DOPC  H18T19885   1.100   1.134  14.799 -1.4012  0.4288 -0.4176
  164DOPC   C3319886   0.494   1.892  16.172  0.8987 -0.0047  0.0174
  164DOPC   H3X19887   0.531   1.897  16.067  1.0082  0.9967  0.0935
  164DOPC   H3Y19888   0.502   1.996  16.208  0.3254  0.7761 -1.9916
  164DOPC   C3419889   0.356   1.836  16.171  0.9833 -0.0228 -0.7317
  164DOPC   H4X19890   0.316   1.808  16.271 -1.9801  3.2040 -0.8204
  164DOPC   H4Y19891   0.352   1.744  16.110 -2.8371 -0.8657  0.5559
  164DOPC   C3519892   0.250   1.935  16.116  0.0922 -0.0934 -0.1115
  164DOPC   H5X19893   0.240   2.011  16.197  0.1466  0.6738 -0.8122
  164DOPC   H5Y19894   0.148   1.897  16.093 -0.7995  1.0698  1.6588
  164DOPC   C3619895   0.286   2.001  15.988  0.1624 -0.5964  0.5600
  164DOPC   H6X19896   0.380   2.056  16.010 -0.3662  0.8894 -0.7884
  164DOPC   H6Y19897   0.296   1.919  15.914 -0.6998  0.4706 -0.7758
  164DOPC   C3719898   0.175   2.092  15.933  0.0994 -0.5494 -0.6501
  164DOPC   H7X19899   0.079   2.039  15.952 -0.3678  0.0186 -1.3572
  164DOPC   H7Y19900   0.176   2.173  16.009  0.8403 -0.2931 -0.9204
  164DOPC   C3819901   0.199   2.143  15.792  0.6719  0.1813  0.1291
  164DOPC   H8X19902   0.207   2.050  15.731 -0.9868  1.3401 -1.9532
  164DOPC   H8Y19903   0.289   2.206  15.777  0.7010  0.3500  0.9488
  164DOPC   C3919904   0.093   2.234  15.732  0.2577 -0.3600 -0.4599
  164DOPC   H9X19905   0.081   2.328  15.787 -1.9876 -0.6475 -0.3693
  164DOPC  C31019906   0.031   2.226  15.611 -0.2511 -0.0472 -0.5192
  164DOPC  H10X19907  -0.039   2.307  15.588 -1.4590  0.1400  3.1935
  164DOPC  C31119908   0.049   2.121  15.507  0.4493 -0.1856 -0.0175
  164DOPC  H11X19909  -0.048   2.069  15.496  0.6260 -0.3038 -1.1160
  164DOPC  H11Y19910   0.115   2.037  15.535 -1.0950 -1.6992 -0.7554
  164DOPC  C31219911   0.098   2.184  15.369  0.3929 -0.2829 -0.4798
  164DOPC  H12X19912   0.036   2.272  15.340  1.0499  0.0421 -0.9287
  164DOPC  H12Y19913   0.082   2.102  15.296 -2.3025 -0.4480  0.1700
  164DOPC  C31319914   0.247   2.225  15.371  0.2131  0.3600  0.2978
  164DOPC  H13X19915   0.266   2.305  15.446  1.1997  0.0274  0.4124
  164DOPC  H13Y19916   0.297   2.134  15.409 -0.3434 -0.2069 -0.2987
  164DOPC  C31419917   0.302   2.274  15.235  0.4992  0.4735  1.2531
  164DOPC  H14X19918   0.285   2.195  15.160 -1.8410  0.0284  2.1487
  164DOPC  H14Y19919   0.405   2.315  15.240  0.4916  0.3690  2.6137
  164DOPC  C31519920   0.218   2.397  15.177  0.1123  0.3324  0.5964
  164DOPC  H15X19921   0.203   2.471  15.259 -0.7822 -2.2140  2.9138
  164DOPC  H15Y19922   0.117   2.353  15.161  0.2711  0.0252  0.4313
  164DOPC  C31619923   0.274   2.448  15.046  0.0896 -0.1545 -0.2897
  164DOPC  H16X19924   0.381   2.472  15.058 -0.2839  2.4771 -1.5467
  164DOPC  H16Y19925   0.291   2.377  14.962  0.1493  0.3269 -0.6853
  164DOPC  C31719926   0.210   2.581  15.000  0.9395  0.4675  0.5370
  164DOPC  H17X19927   0.099   2.579  15.005  0.8103  2.7117 -0.4643
  164DOPC  H17Y19928   0.242   2.658  15.073 -0.1193  1.0137  0.4454
  164DOPC  C31819929   0.258   2.627  14.863 -0.5642  0.2960  0.3696
  164DOPC  H18X19930   0.223   2.731  14.845 -2.5873 -0.3533  0.3063
  164DOPC  H18Y19931   0.369   2.630  14.868 -0.6088  1.7271  0.9391
  164DOPC  H18Z19932   0.218   2.557  14.786  3.3138 -0.6143 -1.0570
  165DOPC     N19933   5.499   1.534  16.999 -0.6068 -0.3032  0.6639
  165DOPC   C1219934   5.397   1.549  16.883 -0.3882 -0.7277 -0.0444
  165DOPC  H12A19935   5.342   1.638  16.906  0.6897  0.6122 -2.2989
  165DOPC  H12B19936   5.334   1.460  16.879  0.8875 -1.6391 -0.8730
  165DOPC   C1319937   5.592   1.649  16.996 -0.2874  0.0440 -0.5070
  165DOPC  H13A19938   5.625   1.658  16.893  0.1987 -2.7123 -0.6590
  165DOPC  H13B19939   5.542   1.742  17.018 -2.3835 -1.2188  0.3719
  165DOPC  H13C19940   5.682   1.627  17.051  0.3177  1.3336 -0.9394
  165DOPC   C1419941   5.566   1.404  16.999  0.3679 -0.3299  0.5717
  165DOPC  H14A19942   5.637   1.403  17.080 -0.3446  1.3549  1.2645
  165DOPC  H14B19943   5.494   1.324  17.011  0.5815 -0.4384  1.1622
  165DOPC  H14C19944   5.619   1.383  16.908 -0.3770 -0.1838  0.0901
  165DOPC   C1519945   5.427   1.540  17.128 -0.1154 -0.0219 -0.3606
  165DOPC  H15A19946   5.347   1.611  17.113 -0.8752 -0.7948 -0.0672
  165DOPC  H15B19947   5.490   1.565  17.212  0.3801  2.2082 -1.3534
  165DOPC  H15C19948   5.377   1.444  17.138  1.2769 -0.9134 -1.4892
  165DOPC   C1119949   5.449   1.564  16.740  0.3490 -0.3322  0.5912
  165DOPC  H11A19950   5.522   1.481  16.725 -1.2481 -1.3358 -3.0284
  165DOPC  H11B19951   5.371   1.543  16.663  0.8520 -1.3102  0.3309
  165DOPC     P19952   5.426   1.818  16.718 -0.2737  0.0755  0.3089
  165DOPC   O1319953   5.494   1.927  16.638  0.2490  0.4166 -0.6861
  165DOPC   O1419954   5.396   1.847  16.856  0.5945 -0.0066  0.1676
  165DOPC   O1219955   5.515   1.689  16.712 -0.4173 -0.2244 -0.1086
  165DOPC   O1119956   5.291   1.767  16.656  0.2962 -0.2608  0.1479
  165DOPC    C119957   5.296   1.762  16.510 -0.2396 -0.4981 -0.1159
  165DOPC    HA19958   5.244   1.673  16.469 -0.6898 -0.0196 -0.5941
  165DOPC    HB19959   5.397   1.751  16.466  0.1874  1.7296  0.1986
  165DOPC    C219960   5.238   1.888  16.443  0.1720 -0.3748  0.0854
  165DOPC    HS19961   5.300   1.966  16.491  2.5174 -2.3346  0.4625
  165DOPC   O2119962   5.099   1.901  16.477  0.1797 -0.1686 -0.6135
  165DOPC   C2119963   5.050   2.021  16.458 -0.9425 -0.6452 -0.5115
  165DOPC   O2219964   5.111   2.109  16.399 -0.1787 -0.5989  0.5313
  165DOPC   C2219965   4.904   2.034  16.509  0.3495  0.2559  0.5001
  165DOPC   H2R19966   4.874   2.141  16.509  0.5534  0.4078 -2.5952
  165DOPC   H2S19967   4.894   1.985  16.608 -2.0848 -1.4204 -0.4855
  165DOPC    C319968   5.257   1.884  16.288 -0.3316 -0.4848 -0.4575
  165DOPC    HX19969   5.202   1.961  16.229  0.3441  0.8942  0.6443
  165DOPC    HY19970   5.206   1.788  16.266 -2.1360  0.1277  0.8441
  165DOPC   O3119971   5.393   1.873  16.240 -0.9795  0.6561  0.2225
  165DOPC   C3119972   5.461   1.983  16.216 -0.6585  0.4877  0.4592
  165DOPC   O3219973   5.426   2.093  16.242  0.3294 -0.1177  1.0436
  165DOPC   C3219974   5.597   1.945  16.148 -0.1534  0.1031 -0.5867
  165DOPC   H2X19975   5.669   1.936  16.232 -2.7308  0.2026  1.8096
  165DOPC   H2Y19976   5.593   1.847  16.096 -0.6672  0.8035 -1.9141
  165DOPC   C2319977   4.809   1.934  16.430  0.6767 -0.1540  0.0040
  165DOPC   H3R19978   4.712   1.935  16.484  0.0861  3.0727 -0.8672
  165DOPC   H3S19979   4.848   1.831  16.434  2.4084  0.4434 -0.5154
  165DOPC   C2419980   4.787   1.985  16.291  0.4593  0.2083  0.1407
  165DOPC   H4R19981   4.887   1.991  16.244 -0.8250  1.7227 -2.6163
  165DOPC   H4S19982   4.742   2.086  16.279 -0.0556  0.1443  1.3612
  165DOPC   C2519983   4.707   1.886  16.206 -0.5526 -0.3176 -0.1646
  165DOPC   H5R19984   4.613   1.858  16.259 -0.9970  0.7399 -0.3700
  165DOPC   H5S19985   4.772   1.797  16.193 -0.3203 -0.6096  2.5254
  165DOPC   C2619986   4.679   1.944  16.065  0.2091  0.5096 -0.1037
  165DOPC   H6R19987   4.769   1.978  16.009  0.1208  1.0523  0.0793
  165DOPC   H6S19988   4.612   2.030  16.088  0.7034  0.5763  1.1817
  165DOPC   C2719989   4.595   1.846  15.984  0.3568  0.1714 -0.3904
  165DOPC   H7R19990   4.506   1.805  16.036  0.1255  0.8302 -0.2687
  165DOPC   H7S19991   4.666   1.761  15.971  1.4109  1.4070 -3.6518
  165DOPC   C2819992   4.551   1.894  15.840 -0.3276 -0.0467  0.1237
  165DOPC   H8R19993   4.471   1.968  15.861  1.1342  1.5543  0.1994
  165DOPC   H8S19994   4.504   1.807  15.787 -1.5809 -0.1491  1.3486
  165DOPC   C2919995   4.649   1.956  15.758 -0.6091  0.9247  0.1402
  165DOPC   H9R19996   4.728   2.012  15.810  0.9972 -0.1660 -1.0032
  165DOPC  C21019997   4.655   1.947  15.621 -0.3923 -0.4935  0.7813
  165DOPC  H10R19998   4.740   1.996  15.569 -2.7432  2.8706 -0.2542
  165DOPC  C21119999   4.557   1.873  15.538 -0.0452  0.5284  0.8680
  165DOPC  H11R20000   4.451   1.894  15.562 -0.6049 -0.8007 -0.2670
  165DOPC  H11S20001   4.573   1.763  15.550  2.3774  0.8692  1.3333
  165DOPC  C21220002   4.583   1.899  15.387 -0.6964 -0.6810 -0.0599
  165DOPC  H12R20003   4.681   1.856  15.358 -0.3347 -0.4815  0.8580
  165DOPC  H12S20004   4.599   2.009  15.377  0.1258 -0.5865  1.9245
  165DOPC  C21320005   4.465   1.862  15.299 -0.3636  0.3170  0.2923
  165DOPC  H13R20006   4.494   1.892  15.197 -0.4014  1.4820  0.6061
  165DOPC  H13S20007   4.382   1.928  15.334 -0.4418 -0.1709  1.0644
  165DOPC  C21420008   4.425   1.709  15.305 -0.3776  0.3278 -0.2031
  165DOPC  H14R20009   4.333   1.704  15.243  1.0160  0.1334 -2.3638
  165DOPC  H14S20010   4.394   1.682  15.409  1.0098 -1.0287 -0.1086
  165DOPC  C21520011   4.528   1.607  15.256  0.6793  0.7948 -0.4447
  165DOPC  H15R20012   4.619   1.623  15.317  0.0746  0.8657  0.4531
  165DOPC  H15S20013   4.562   1.637  15.155  0.9589  0.9111 -0.3164
  165DOPC  C21620014   4.477   1.461  15.272  0.8732  0.3781 -0.0786
  165DOPC  H16R20015   4.450   1.441  15.378  0.0638 -3.0764 -0.8201
  165DOPC  H16S20016   4.555   1.384  15.255  1.3131  0.9164 -0.5465
  165DOPC  C21720017   4.353   1.423  15.182 -0.0712 -0.3982 -0.3571
  165DOPC  H17R20018   4.262   1.479  15.215 -0.2386 -1.3212  0.8266
  165DOPC  H17S20019   4.335   1.314  15.193 -0.8156 -0.3082 -0.6091
  165DOPC  C21820020   4.372   1.431  15.030  0.0397 -0.6125  0.8117
  165DOPC  H18R20021   4.276   1.399  14.984 -0.4900  1.1723  0.5926
  165DOPC  H18S20022   4.451   1.358  15.001  0.8664  0.5200  0.0792
  165DOPC  H18T20023   4.398   1.536  15.003 -1.5981 -0.6775 -1.2564
  165DOPC   C3320024   5.645   2.046  16.043 -0.4079 -0.1660 -0.2781
  165DOPC   H3X20025   5.752   2.023  16.021 -0.2996  1.2430 -1.3534
  165DOPC   H3Y20026   5.629   2.147  16.085  0.0302 -0.2810  0.1801
  165DOPC   C3420027   5.568   2.032  15.911 -0.3067 -0.0476 -0.2679
  165DOPC   H4X20028   5.463   2.063  15.928  0.5057  1.3368  2.9762
  165DOPC   H4Y20029   5.569   1.927  15.874  0.4412 -0.3758  0.6339
  165DOPC   C3520030   5.622   2.109  15.793 -0.2295 -0.0801  0.5677
  165DOPC   H5X20031   5.689   2.043  15.733 -2.1384 -0.8984 -0.7808
  165DOPC   H5Y20032   5.676   2.201  15.822  1.0157 -0.9654  1.1780
  165DOPC   C3620033   5.517   2.159  15.692 -0.2332  0.1864 -0.4208
  165DOPC   H6X20034   5.473   2.062  15.663 -1.2276  0.1616  1.0209
  165DOPC   H6Y20035   5.444   2.215  15.755 -0.0894  0.4884 -0.5227
  165DOPC   C3720036   5.561   2.260  15.585  0.2439  0.4315 -0.4539
  165DOPC   H7X20037   5.632   2.211  15.514  1.5017 -0.6224  1.4428
  165DOPC   H7Y20038   5.619   2.339  15.637  0.3519  0.0840 -0.0437
  165DOPC   C3820039   5.435   2.317  15.512 -0.5169  0.3651  0.3991
  165DOPC   H8X20040   5.401   2.411  15.560  1.0135  0.9594  0.3929
  165DOPC   H8Y20041   5.346   2.251  15.507  0.3056 -0.7019 -1.5636
  165DOPC   C3920042   5.482   2.355  15.376  0.0624 -0.4966  0.1337
  165DOPC   H9X20043   5.526   2.274  15.316 -1.6624  0.2505 -2.2962
  165DOPC  C31020044   5.460   2.468  15.305 -0.3383  0.3952 -0.2805
  165DOPC  H10X20045   5.482   2.472  15.197 -1.8190  0.7280 -0.5949
  165DOPC  C31120046   5.382   2.591  15.337  0.0730  0.1929 -0.2206
  165DOPC  H11X20047   5.446   2.679  15.319 -0.5987  0.7017 -0.1617
  165DOPC  H11Y20048   5.359   2.592  15.446 -2.1228 -1.2483 -0.6155
  165DOPC  C31220049   5.255   2.602  15.254 -0.0322  0.4275  0.4590
  165DOPC  H12X20050   5.211   2.500  15.249  1.3792 -0.3157  2.0554
  165DOPC  H12Y20051   5.286   2.649  15.159 -1.3961  1.1696  0.3501
  165DOPC  C31320052   5.146   2.701  15.308 -0.2017  0.5691 -0.5028
  165DOPC  H13X20053   5.117   2.673  15.411  0.7954 -0.2136 -0.4295
  165DOPC  H13Y20054   5.193   2.801  15.307 -3.4821  2.2529 -1.0409
  165DOPC  C31420055   5.027   2.718  15.209  0.0834  0.1502  0.3855
  165DOPC  H14X20056   5.069   2.749  15.112 -1.4830  0.0528 -0.3627
  165DOPC  H14Y20057   4.980   2.618  15.196  2.1145 -0.5607 -2.3669
  165DOPC  C31520058   4.934   2.833  15.263  0.7380  0.5916  0.2662
  165DOPC  H15X20059   4.988   2.913  15.318  0.6547 -0.1913  1.5138
  165DOPC  H15Y20060   4.878   2.794  15.350 -0.4882  0.4429 -0.5614
  165DOPC  C31620061   4.837   2.887  15.163  0.2300 -0.4771 -0.3337
  165DOPC  H16X20062   4.764   2.806  15.145  0.3640 -0.3792 -1.4030
  165DOPC  H16Y20063   4.775   2.965  15.213  0.3582  0.6229 -1.8219
  165DOPC  C31720064   4.897   2.933  15.027  0.6924 -0.3895  0.8282
  165DOPC  H17X20065   4.957   3.026  15.037  1.2136 -0.4925 -0.9569
  165DOPC  H17Y20066   4.962   2.851  14.990 -0.0009  0.1972 -1.9318
  165DOPC  C31820067   4.791   2.958  14.924  0.2153 -0.5320 -0.1461
  165DOPC  H18X20068   4.831   3.035  14.854  0.5466 -0.5282  0.0420
  165DOPC  H18Y20069   4.755   2.871  14.865  2.7469 -0.8841 -1.3321
  165DOPC  H18Z20070   4.711   3.015  14.976  1.2735 -0.6693  1.7382
  166DOPC     N20071   5.322   3.082  17.163 -0.1916  0.3918  0.0877
  166DOPC   C1220072   5.279   3.114  17.021  0.0178 -0.1842  0.7143
  166DOPC  H12A20073   5.226   3.209  17.027  3.1026  1.5980  2.2777
  166DOPC  H12B20074   5.212   3.042  16.979  0.5637 -0.1184 -0.2996
  166DOPC   C1320075   5.398   3.190  17.230  0.1522 -0.5842  0.0495
  166DOPC  H13A20076   5.461   3.141  17.303 -2.5286 -2.2045  1.4487
  166DOPC  H13B20077   5.457   3.242  17.156 -0.1944 -1.0369 -0.5610
  166DOPC  H13C20078   5.340   3.264  17.283  1.2261  0.3601 -0.0549
  166DOPC   C1420079   5.408   2.957  17.170 -0.3395 -0.0078 -0.2974
  166DOPC  H14A20080   5.510   2.986  17.148 -0.9009  1.6606 -0.8626
  166DOPC  H14B20081   5.403   2.909  17.267  1.6449 -0.9426 -0.5958
  166DOPC  H14C20082   5.383   2.894  17.087 -3.8399  1.2768 -0.3712
  166DOPC   C1520083   5.208   3.060  17.253  0.4267 -0.5617  0.3423
  166DOPC  H15A20084   5.179   2.957  17.239  1.7978 -0.9072 -0.0953
  166DOPC  H15B20085   5.125   3.128  17.241  0.9246  0.2100  1.1543
  166DOPC  H15C20086   5.233   3.076  17.356  1.2651  1.3318 -0.1111
  166DOPC   C1120087   5.388   3.135  16.915  0.0019  0.3167 -0.0275
  166DOPC  H11A20088   5.440   3.037  16.922 -2.1420 -0.9465 -0.9261
  166DOPC  H11B20089   5.339   3.141  16.815  1.3095 -1.0400 -0.7961
  166DOPC     P20090   5.457   3.390  16.940 -0.4455 -0.1829  0.0149
  166DOPC   O1320091   5.501   3.467  17.055 -0.8764 -0.5795  0.6775
  166DOPC   O1420092   5.322   3.410  16.895  0.2770 -0.0540  0.0818
  166DOPC   O1220093   5.487   3.234  16.945 -0.3526 -0.5018 -0.2161
  166DOPC   O1120094   5.547   3.425  16.813  0.1207 -0.3521 -0.1912
  166DOPC    C120095   5.552   3.357  16.689 -0.0122 -0.0141 -0.6540
  166DOPC    HA20096   5.555   3.429  16.604  1.7432 -0.2034 -0.7897
  166DOPC    HB20097   5.465   3.293  16.663  2.5023 -2.8659 -2.7706
  166DOPC    C220098   5.679   3.259  16.690 -0.6144  0.3443 -0.1336
  166DOPC    HS20099   5.700   3.222  16.792 -2.8906 -1.0241 -0.1022
  166DOPC   O2120100   5.785   3.339  16.628  0.0476 -0.0896  0.3465
  166DOPC   C2120101   5.904   3.316  16.656  0.0764  0.1113  0.5878
  166DOPC   O2220102   5.938   3.231  16.734 -0.4575 -0.2087 -1.0000
  166DOPC   C2220103   5.993   3.414  16.578 -0.1413  0.3062 -0.2333
  166DOPC   H2R20104   6.064   3.462  16.648 -0.8890  2.8429 -1.0976
  166DOPC   H2S20105   5.939   3.496  16.525 -0.4175 -0.5603 -1.3296
  166DOPC    C320106   5.663   3.125  16.611  0.4713 -0.1481 -0.4403
  166DOPC    HX20107   5.604   3.054  16.673 -1.0551 -0.3689 -2.0591
  166DOPC    HY20108   5.763   3.079  16.594  1.0394  0.9400 -0.1193
  166DOPC   O3120109   5.592   3.136  16.486 -0.0035 -0.3240  0.0073
  166DOPC   C3120110   5.659   3.154  16.373  0.8138  0.0950  0.1790
  166DOPC   O3220111   5.777   3.137  16.360 -0.2838 -0.1859  0.1123
  166DOPC   C3220112   5.562   3.212  16.267  0.1214 -0.5488  0.3827
  166DOPC   H2X20113   5.459   3.200  16.305  0.2668  0.5278  1.1698
  166DOPC   H2Y20114   5.588   3.320  16.257 -1.3160 -0.2768 -0.7502
  166DOPC   C2320115   6.075   3.354  16.467  0.4785  0.6240  0.5451
  166DOPC   H3R20116   6.021   3.282  16.403 -0.6710  0.1270  2.0169
  166DOPC   H3S20117   6.163   3.298  16.504  1.2201  0.8672 -0.8152
  166DOPC   C2420118   6.132   3.469  16.378  0.7454  0.3668 -0.1649
  166DOPC   H4R20119   6.191   3.542  16.438  0.8773 -0.2950  0.5290
  166DOPC   H4S20120   6.048   3.527  16.334  2.0618  1.5373 -1.2303
  166DOPC   C2520121   6.220   3.429  16.261 -0.3040  0.1857  0.1193
  166DOPC   H5R20122   6.184   3.343  16.200  1.8790 -0.5381 -0.2703
  166DOPC   H5S20123   6.317   3.397  16.306 -0.3232 -1.2438 -0.7652
  166DOPC   C2620124   6.249   3.550  16.178 -0.7141 -0.2114  0.5505
  166DOPC   H6R20125   6.308   3.626  16.234 -0.1825 -0.0737 -0.1930
  166DOPC   H6S20126   6.149   3.584  16.144 -0.7694 -0.8485  0.0521
  166DOPC   C2720127   6.329   3.531  16.050  0.1579  0.4108 -0.9790
  166DOPC   H7R20128   6.325   3.628  15.996  1.1622  0.9899 -0.0515
  166DOPC   H7S20129   6.289   3.442  15.995 -0.0461  0.7081 -1.3181
  166DOPC   C2820130   6.483   3.510  16.068 -0.0996 -0.1476 -0.3085
  166DOPC   H8R20131   6.501   3.418  16.128 -1.0953  0.8329  1.5748
  166DOPC   H8S20132   6.525   3.587  16.135 -1.3330  0.4844 -0.2295
  166DOPC   C2920133   6.558   3.515  15.940 -0.8954  0.3527  0.5415
  166DOPC   H9R20134   6.587   3.612  15.897 -2.5458  0.1990 -1.0600
  166DOPC  C21020135   6.592   3.412  15.862 -0.1416  0.0171  0.4323
  166DOPC  H10R20136   6.637   3.425  15.762 -1.5182 -2.7898 -0.6669
  166DOPC  C21120137   6.567   3.264  15.879  0.0145 -0.1789 -0.3167
  166DOPC  H11R20138   6.503   3.243  15.968 -1.7014  1.4726 -1.0776
  166DOPC  H11S20139   6.660   3.206  15.895  0.6300  0.4218 -1.5974
  166DOPC  C21220140   6.509   3.205  15.754  0.5165  0.4262 -0.5424
  166DOPC  H12R20141   6.430   3.270  15.711  0.3880  0.1128 -0.7798
  166DOPC  H12S20142   6.461   3.107  15.774 -1.4078  1.9220  3.1259
  166DOPC  C21320143   6.603   3.185  15.636  0.4026 -0.2968  0.8546
  166DOPC  H13R20144   6.689   3.120  15.663  1.8658  0.1649 -2.2806
  166DOPC  H13S20145   6.644   3.276  15.587 -1.4332  0.2000  0.1333
  166DOPC  C21420146   6.517   3.115  15.519  0.9126  0.0699 -0.8070
  166DOPC  H14R20147   6.416   3.161  15.509  0.5506 -0.8954 -1.7495
  166DOPC  H14S20148   6.503   3.008  15.547  0.8714 -0.4737 -2.7729
  166DOPC  C21520149   6.593   3.111  15.381  0.0395  0.2219  0.6189
  166DOPC  H15R20150   6.624   3.215  15.359  1.7815  0.1220  2.3405
  166DOPC  H15S20151   6.527   3.073  15.300  0.4446 -2.3327  1.4119
  166DOPC  C21620152   6.724   3.036  15.392 -0.1370  0.0307 -0.1046
  166DOPC  H16R20153   6.703   2.945  15.453 -0.6620  0.0411 -0.2639
  166DOPC  H16S20154   6.791   3.095  15.458 -1.0591  0.8931  0.0847
  166DOPC  C21720155   6.786   2.992  15.254  0.3127 -0.4011 -1.1702
  166DOPC  H17R20156   6.848   2.910  15.297 -0.2916  0.0885  0.7732
  166DOPC  H17S20157   6.857   3.072  15.225  0.1814  0.9581  1.8366
  166DOPC  C21820158   6.699   2.932  15.150  0.3445  0.0804  0.2757
  166DOPC  H18R20159   6.640   3.008  15.095  0.0305  0.6890  1.4077
  166DOPC  H18S20160   6.634   2.857  15.200  1.3634  0.1212  1.7124
  166DOPC  H18T20161   6.762   2.898  15.065  3.3501  2.1612  1.4985
  166DOPC   C3320162   5.572   3.155  16.128  0.2899  0.5558 -0.3507
  166DOPC   H3X20163   5.680   3.143  16.104  0.9370  2.4131  1.3358
  166DOPC   H3Y20164   5.522   3.235  16.069  1.3549  0.9568 -0.7495
  166DOPC   C3420165   5.516   3.014  16.131  0.8230  0.1213  0.4054
  166DOPC   H4X20166   5.413   3.012  16.174 -0.1410 -1.6831 -1.7679
  166DOPC   H4Y20167   5.573   2.957  16.208 -0.5626 -0.8029  0.7994
  166DOPC   C3520168   5.523   2.945  15.999  0.4717  0.2297  0.6349
  166DOPC   H5X20169   5.488   3.008  15.914  0.5607 -3.4222 -2.3384
  166DOPC   H5Y20170   5.459   2.855  16.008 -0.5787  1.0697  2.1436
  166DOPC   C3620171   5.665   2.896  15.961  0.0252 -0.2924 -0.2733
  166DOPC   H6X20172   5.725   2.989  15.956  0.9151 -0.8053  0.6444
  166DOPC   H6Y20173   5.702   2.837  16.047 -0.3290  0.0687  0.1294
  166DOPC   C3720174   5.652   2.805  15.838  0.6312 -0.2087 -0.5032
  166DOPC   H7X20175   5.602   2.719  15.887 -1.0575  1.2396  0.4300
  166DOPC   H7Y20176   5.579   2.841  15.762 -0.0875 -3.4944 -1.5484
  166DOPC   C3820177   5.780   2.757  15.781  0.1724 -0.0090  0.1141
  166DOPC   H8X20178   5.861   2.723  15.849  1.4715  2.3676 -0.1497
  166DOPC   H8Y20179   5.826   2.845  15.732  0.9261  0.2282  1.2165
  166DOPC   C3920180   5.750   2.642  15.688  0.2979 -0.1457 -1.0275
  166DOPC   H9X20181   5.733   2.544  15.735  2.9369  0.5394  1.6293
  166DOPC  C31020182   5.753   2.636  15.558 -0.5827 -0.4682  0.8225
  166DOPC  H10X20183   5.753   2.535  15.515  1.8629 -0.7517  1.3574
  166DOPC  C31120184   5.778   2.748  15.466 -0.3067 -0.1539  0.2414
  166DOPC  H11X20185   5.736   2.840  15.513 -1.5985 -1.7268  2.3581
  166DOPC  H11Y20186   5.727   2.732  15.369  0.2802 -0.3791 -0.0343
  166DOPC  C31220187   5.930   2.767  15.421  0.3335 -0.2252  0.3263
  166DOPC  H12X20188   5.932   2.836  15.334  1.5614  0.3304  0.7653
  166DOPC  H12Y20189   5.972   2.672  15.384 -0.1912  0.5190 -2.3778
  166DOPC  C31320190   6.029   2.827  15.529  0.1750  0.1236 -0.3000
  166DOPC  H13X20191   6.007   2.927  15.573  1.5598  0.7905 -1.0336
  166DOPC  H13Y20192   6.030   2.750  15.609  0.8286  0.9817  0.5395
  166DOPC  C31420193   6.176   2.839  15.473 -0.2104 -0.3412 -0.2605
  166DOPC  H14X20194   6.185   2.903  15.382  0.8265  1.4161  1.0144
  166DOPC  H14Y20195   6.240   2.882  15.553 -0.2922  0.0417 -0.3994
  166DOPC  C31520196   6.238   2.697  15.448 -0.0023  0.7833 -0.6549
  166DOPC  H15X20197   6.205   2.672  15.345  0.6276 -0.2137 -0.6249
  166DOPC  H15Y20198   6.208   2.621  15.523  0.6969  2.3938  1.3262
  166DOPC  C31620199   6.393   2.696  15.450 -0.7489  0.5553 -0.4110
  166DOPC  H16X20200   6.422   2.788  15.394  0.8285  0.3252 -0.0196
  166DOPC  H16Y20201   6.431   2.721  15.551  1.4662  0.8859 -1.2660
  166DOPC  C31720202   6.457   2.573  15.394  0.1713  0.3488  0.8907
  166DOPC  H17X20203   6.415   2.483  15.446  1.6136 -0.4437  0.7430
  166DOPC  H17Y20204   6.425   2.571  15.288  0.2826 -0.9312  0.8676
  166DOPC  C31820205   6.609   2.576  15.396  0.4759  0.3253  0.0977
  166DOPC  H18X20206   6.660   2.551  15.491 -1.1409 -0.6439  0.7639
  166DOPC  H18Y20207   6.653   2.513  15.316 -0.1162 -0.1971  0.1753
  166DOPC  H18Z20208   6.649   2.674  15.361  5.2530 -1.7518 -0.9563
  167DOPC     N20209   6.288   2.119  17.085 -0.0783 -0.1253 -0.0950
  167DOPC   C1220210   6.143   2.100  17.107 -0.5021 -0.8218 -0.4168
  167DOPC  H12A20211   6.128   2.140  17.206  2.5910  1.8041 -0.8633
  167DOPC  H12B20212   6.113   1.997  17.117  0.2264 -1.0148 -0.1830
  167DOPC   C1320213   6.325   2.259  17.078 -0.0584 -0.5975 -0.4049
  167DOPC  H13A20214   6.270   2.306  16.997  0.5853  0.5460 -0.2124
  167DOPC  H13B20215   6.301   2.319  17.164 -1.4581  2.4515 -2.7150
  167DOPC  H13C20216   6.431   2.268  17.057  0.3126  0.3815  1.5825
  167DOPC   C1420217   6.323   2.060  16.954 -0.5679  1.2339  0.2417
  167DOPC  H14A20218   6.298   1.954  16.952  1.3763  0.7502  0.2166
  167DOPC  H14B20219   6.272   2.113  16.874  0.2070  1.3084 -0.2083
  167DOPC  H14C20220   6.430   2.060  16.946 -0.6227  0.4244 -0.8297
  167DOPC   C1520221   6.363   2.054  17.198 -0.3666 -0.9376 -0.1987
  167DOPC  H15A20222   6.331   1.952  17.212 -1.2628 -0.8006 -1.1802
  167DOPC  H15B20223   6.348   2.100  17.294  0.0594 -2.3188  0.5566
  167DOPC  H15C20224   6.469   2.049  17.175 -0.4558  0.6237 -1.0875
  167DOPC   C1120225   6.038   2.160  17.007  0.0996 -0.7874  0.2005
  167DOPC  H11A20226   6.053   2.269  16.988 -0.6720 -0.7342 -0.1093
  167DOPC  H11B20227   6.046   2.111  16.908 -1.2306  0.0828 -0.3637
  167DOPC     P20228   5.828   2.014  17.059 -0.4024 -0.5344  0.3927
  167DOPC   O1320229   5.692   2.056  17.090  0.1509 -0.0057 -0.1515
  167DOPC   O1420230   5.891   1.911  17.143  0.4164  0.3676 -0.4879
  167DOPC   O1220231   5.905   2.146  17.061 -0.2596  0.0872 -0.1671
  167DOPC   O1120232   5.843   1.971  16.909 -0.2897  0.4339  0.2362
  167DOPC    C120233   5.949   1.873  16.877 -0.3689 -0.4316  0.6097
  167DOPC    HA20234   5.926   1.785  16.941  0.3306  0.2078  1.7535
  167DOPC    HB20235   6.052   1.907  16.899 -0.2912 -0.5837  0.4876
  167DOPC    C220236   5.944   1.828  16.732  0.2903 -0.0863 -0.0742
  167DOPC    HS20237   6.019   1.749  16.708 -0.4483 -0.5808 -0.7860
  167DOPC   O2120238   5.951   1.942  16.643 -0.0861 -0.1252  1.0664
  167DOPC   C2120239   6.074   1.999  16.626  0.2586  0.6082  0.3945
  167DOPC   O2220240   6.169   1.974  16.696  0.1509  0.2584  0.4372
  167DOPC   C2220241   6.081   2.097  16.510 -1.0656 -0.3210  0.6057
  167DOPC   H2R20242   6.139   2.186  16.546  0.6584 -0.1325 -2.3269
  167DOPC   H2S20243   5.980   2.140  16.493  0.4587  3.3173 -0.2919
  167DOPC    C320244   5.802   1.766  16.713  0.5943 -1.2174 -0.1416
  167DOPC    HX20245   5.727   1.848  16.721  0.4671 -1.1591 -1.5470
  167DOPC    HY20246   5.778   1.689  16.789 -0.2736  0.0157  0.8630
  167DOPC   O3120247   5.793   1.701  16.587  0.1577 -0.3854  0.2042
  167DOPC   C3120248   5.820   1.574  16.567 -0.1075 -0.6829 -0.1746
  167DOPC   O3220249   5.836   1.491  16.651 -0.1929  0.3482  0.3610
  167DOPC   C3220250   5.823   1.535  16.418  0.1070  1.1401  0.1254
  167DOPC   H2X20251   5.908   1.599  16.385  1.4294  0.1598  1.4517
  167DOPC   H2Y20252   5.854   1.429  16.408  1.7021  1.4718  1.1927
  167DOPC   C2320253   6.132   2.047  16.373  0.2260  0.1363 -0.0470
  167DOPC   H3R20254   6.224   1.987  16.387 -0.2852 -0.2690  1.9083
  167DOPC   H3S20255   6.158   2.135  16.310  3.2279 -2.3661 -2.6792
  167DOPC   C2420256   6.012   1.975  16.304  0.4320 -0.7146  0.3442
  167DOPC   H4R20257   5.927   2.046  16.303  2.2977  1.6986  1.2107
  167DOPC   H4S20258   5.971   1.880  16.344  0.5744 -1.2967 -0.8364
  167DOPC   C2520259   6.051   1.938  16.161  0.0471  0.0219  0.5487
  167DOPC   H5R20260   5.984   1.864  16.113 -2.3198  2.5424 -0.3609
  167DOPC   H5S20261   6.156   1.903  16.166  0.0620 -0.1413 -0.6106
  167DOPC   C2620262   6.049   2.051  16.065  0.1309 -0.2556 -0.2031
  167DOPC   H6R20263   6.119   2.130  16.101  0.9060 -1.5282  1.1962
  167DOPC   H6S20264   5.948   2.097  16.065  0.2988  0.1397  0.5700
  167DOPC   C2720265   6.093   1.999  15.929 -0.1434 -0.1185 -0.4882
  167DOPC   H7R20266   5.999   1.963  15.882 -1.6620  0.5127  1.8765
  167DOPC   H7S20267   6.157   1.908  15.928  0.4657  0.2842 -2.3229
  167DOPC   C2820268   6.169   2.115  15.855  0.4368  0.6563 -0.1783
  167DOPC   H8R20269   6.262   2.119  15.915  0.0295 -0.9640  0.6215
  167DOPC   H8S20270   6.123   2.216  15.869 -2.4170 -0.8416  2.6111
  167DOPC   C2920271   6.194   2.072  15.713 -0.1512  0.4405 -0.5921
  167DOPC   H9R20272   6.297   2.037  15.700  0.0192  0.0411  1.5756
  167DOPC  C21020273   6.102   2.077  15.616 -0.2316 -0.5241  0.7919
  167DOPC  H10R20274   6.137   2.026  15.525  0.2285 -0.8697  1.1575
  167DOPC  C21120275   5.961   2.128  15.618 -0.6579  0.0101  0.2483
  167DOPC  H11R20276   5.915   2.117  15.719  1.1139  0.7842  1.2002
  167DOPC  H11S20277   5.888   2.077  15.552 -1.8108 -0.4057  1.7666
  167DOPC  C21220278   5.944   2.283  15.596 -0.1052 -0.0977  0.4890
  167DOPC  H12R20279   5.844   2.300  15.643  0.5960 -0.3504  2.1336
  167DOPC  H12S20280   6.018   2.331  15.664 -0.9884  1.3607  0.4575
  167DOPC  C21320281   5.965   2.349  15.456  0.2821 -0.0816  0.0941
  167DOPC  H13R20282   6.073   2.348  15.431 -0.1221 -0.7237 -1.7954
  167DOPC  H13S20283   5.937   2.457  15.458  0.3827 -0.0577  2.1549
  167DOPC  C21420284   5.882   2.270  15.357  0.1949 -0.1133  0.2479
  167DOPC  H14R20285   5.782   2.263  15.406  0.1202 -0.5373  0.0435
  167DOPC  H14S20286   5.921   2.166  15.359  1.2781  0.3009  0.8464
  167DOPC  C21520287   5.858   2.340  15.223  0.6036  0.1570  0.6971
  167DOPC  H15R20288   5.957   2.355  15.173  0.6923 -0.4263  0.6987
  167DOPC  H15S20289   5.817   2.439  15.253  0.7466  0.3084  0.4006
  167DOPC  C21620290   5.758   2.275  15.120  0.2201  0.4347 -0.3788
  167DOPC  H16R20291   5.691   2.355  15.082  0.3008  0.3735 -0.6552
  167DOPC  H16S20292   5.685   2.206  15.168  0.2748  0.5217 -0.1714
  167DOPC  C21720293   5.828   2.206  14.998 -0.6072  0.4792  0.2424
  167DOPC  H17R20294   5.905   2.265  14.941 -1.5892 -1.3495 -3.2751
  167DOPC  H17S20295   5.751   2.179  14.922 -0.5345  0.7133  0.0818
  167DOPC  C21820296   5.889   2.066  15.021 -0.1921 -0.3702  0.0445
  167DOPC  H18R20297   5.914   2.022  14.923  2.9144  1.1142  0.0505
  167DOPC  H18S20298   5.814   2.002  15.072  0.3038  0.3541  1.7779
  167DOPC  H18T20299   5.977   2.074  15.088 -0.4357 -1.6384  0.5475
  167DOPC   C3320300   5.692   1.557  16.335  0.1668 -0.1490 -0.1691
  167DOPC   H3X20301   5.661   1.662  16.356  3.7304  0.7703  1.2474
  167DOPC   H3Y20302   5.614   1.487  16.373 -0.3429  0.5529  0.1048
  167DOPC   C3420303   5.720   1.535  16.186 -0.3419  0.4053  0.3474
  167DOPC   H4X20304   5.627   1.515  16.129  0.7632  1.2001 -1.8594
  167DOPC   H4Y20305   5.778   1.440  16.177  2.9052  2.3080 -0.4610
  167DOPC   C3520306   5.807   1.645  16.125 -0.4748 -0.2620 -0.2131
  167DOPC   H5X20307   5.912   1.640  16.161 -0.2031 -0.6189 -1.0349
  167DOPC   H5Y20308   5.774   1.741  16.171 -0.6942 -1.3739  2.1432
  167DOPC   C3620309   5.809   1.656  15.978  0.4291  0.5297  0.4414
  167DOPC   H6X20310   5.710   1.703  15.955 -0.7755 -2.3696 -0.8445
  167DOPC   H6Y20311   5.894   1.713  15.934  1.0396  0.6161  1.7014
  167DOPC   C3720312   5.821   1.524  15.904 -0.0536  0.1152  0.2031
  167DOPC   H7X20313   5.883   1.536  15.813  1.0271 -2.9644  0.3936
  167DOPC   H7Y20314   5.870   1.445  15.965 -2.7143 -1.8142  0.0070
  167DOPC   C3820315   5.689   1.457  15.856  0.6778 -0.0392 -0.4925
  167DOPC   H8X20316   5.615   1.442  15.937  0.0537 -0.1916 -1.0869
  167DOPC   H8Y20317   5.718   1.354  15.828 -0.4385 -1.8881  4.1684
  167DOPC   C3920318   5.615   1.525  15.746 -0.3446 -0.3705  0.0557
  167DOPC   H9X20319   5.592   1.630  15.769  0.5254  0.0837 -1.0494
  167DOPC  C31020320   5.580   1.477  15.632  0.2320 -0.9794 -0.4021
  167DOPC  H10X20321   5.515   1.533  15.564  1.3747 -0.6099 -1.2365
  167DOPC  C31120322   5.608   1.338  15.576  0.3086 -0.1963  0.4827
  167DOPC  H11X20323   5.520   1.275  15.602  1.7614 -1.7458  1.8440
  167DOPC  H11Y20324   5.699   1.294  15.622  0.8114 -0.6936 -0.9399
  167DOPC  C31220325   5.625   1.351  15.422  0.3497 -0.5642 -0.3668
  167DOPC  H12X20326   5.688   1.442  15.411 -1.0752  0.2614 -2.5601
  167DOPC  H12Y20327   5.529   1.368  15.368 -0.7679 -2.5725  0.8854
  167DOPC  C31320328   5.700   1.236  15.356  0.3645  0.2363 -0.0993
  167DOPC  H13X20329   5.806   1.234  15.390  0.5703  3.1313 -0.3185
  167DOPC  H13Y20330   5.646   1.147  15.395 -0.3338  1.3820  1.6873
  167DOPC  C31420331   5.690   1.215  15.204 -0.3138  0.0456 -1.1104
  167DOPC  H14X20332   5.581   1.208  15.182 -0.5581  2.9835 -1.2315
  167DOPC  H14Y20333   5.732   1.300  15.146 -1.7066  2.4849  1.2208
  167DOPC  C31520334   5.754   1.079  15.171  0.3175 -0.3664  0.3543
  167DOPC  H15X20335   5.772   1.010  15.256 -1.1874 -0.7451  0.3880
  167DOPC  H15Y20336   5.846   1.092  15.109 -0.5615 -2.9992 -1.6756
  167DOPC  C31620337   5.663   0.999  15.072 -0.1642 -0.4454  0.5378
  167DOPC  H16X20338   5.570   0.985  15.130 -0.2911  0.2866  0.5256
  167DOPC  H16Y20339   5.640   1.065  14.986  0.4297 -0.2366  0.5310
  167DOPC  C31720340   5.722   0.864  15.025 -0.2245 -0.1559 -0.6085
  167DOPC  H17X20341   5.808   0.897  14.963  0.1903 -0.7098 -0.3405
  167DOPC  H17Y20342   5.753   0.809  15.117 -0.8964 -1.0811 -0.9211
  167DOPC  C31820343   5.627   0.783  14.935  0.0016  0.0180 -0.3574
  167DOPC  H18X20344   5.592   0.846  14.850 -2.0080  2.0649  1.8203
  167DOPC  H18Y20345   5.677   0.686  14.913  2.1049  0.8517  0.5265
  167DOPC  H18Z20346   5.535   0.759  14.993  0.1643  2.0903  0.8545
  168DOPC     N20347   2.089   0.922  17.029 -0.0157 -0.4814 -0.6134
  168DOPC   C1220348   2.145   1.063  16.984  0.2513  0.0786 -0.4709
  168DOPC  H12A20349   2.183   1.114  17.071 -0.4174 -1.4036  0.7319
  168DOPC  H12B20350   2.062   1.125  16.952  0.1863  1.5518  2.2393
  168DOPC   C1320351   2.206   0.851  17.088 -0.6057  0.2363  0.2786
  168DOPC  H13A20352   2.174   0.750  17.109 -0.5773  0.0960 -0.3299
  168DOPC  H13B20353   2.281   0.845  17.011 -0.7391 -2.4935  0.2939
  168DOPC  H13C20354   2.247   0.898  17.177  1.6024  0.6346 -0.8937
  168DOPC   C1420355   2.018   0.844  16.916 -0.3411 -0.3805  0.1127
  168DOPC  H14A20356   1.953   0.911  16.862 -2.8672 -1.8326  1.1901
  168DOPC  H14B20357   2.101   0.802  16.862 -1.4898 -1.2000 -1.0682
  168DOPC  H14C20358   1.966   0.756  16.950  1.4852 -1.9957 -1.0761
  168DOPC   C1520359   1.998   0.941  17.145  0.1984  0.5378  0.0261
  168DOPC  H15A20360   1.968   0.842  17.176  0.2767  0.6458  0.4545
  168DOPC  H15B20361   1.904   0.989  17.121 -0.2051 -0.7506 -1.1548
  168DOPC  H15C20362   2.046   1.001  17.221  2.4053 -1.2209  0.1487
  168DOPC   C1120363   2.249   1.066  16.876 -0.3146  0.5448 -0.0557
  168DOPC  H11A20364   2.209   1.003  16.794  1.8408  0.2892 -0.9694
  168DOPC  H11B20365   2.256   1.172  16.845 -0.8288  0.8136  0.7193
  168DOPC     P20366   2.507   1.052  16.862 -0.5795 -0.5863  0.2760
  168DOPC   O1320367   2.610   0.959  16.916 -0.4379  0.4488 -0.0367
  168DOPC   O1420368   2.534   1.197  16.894 -0.4276 -0.1701 -0.4297
  168DOPC   O1220369   2.371   1.012  16.929  0.0890  0.2715  0.5004
  168DOPC   O1120370   2.486   1.029  16.708 -0.2963  0.1101 -0.1723
  168DOPC    C120371   2.502   0.904  16.642 -0.2971  0.1016  0.3574
  168DOPC    HA20372   2.560   0.834  16.706 -1.6903 -1.4901 -0.0470
  168DOPC    HB20373   2.551   0.910  16.542 -1.0320  0.9844  0.0428
  168DOPC    C220374   2.360   0.844  16.613 -0.4642 -0.7025  0.3786
  168DOPC    HS20375   2.313   0.848  16.714  0.9356 -1.6406  1.1012
  168DOPC   O2120376   2.378   0.706  16.565 -0.3851 -0.4478  0.1978
  168DOPC   C2120377   2.290   0.624  16.612 -0.2285  0.9982  0.7493
  168DOPC   O2220378   2.193   0.649  16.685 -0.0031  0.2475  0.0460
  168DOPC   C2220379   2.316   0.486  16.546 -0.6134 -1.0991 -0.1274
  168DOPC   H2R20380   2.364   0.430  16.628 -1.1314  0.9521  1.6701
  168DOPC   H2S20381   2.393   0.497  16.467  0.1576 -0.2191  0.7168
  168DOPC    C320382   2.276   0.931  16.511 -0.1696  0.8805  0.7261
  168DOPC    HX20383   2.265   1.028  16.563 -0.9450  1.0274  0.3171
  168DOPC    HY20384   2.175   0.886  16.523  1.3411 -3.0881  0.1191
  168DOPC   O3120385   2.337   0.957  16.384  0.2390  0.1755 -0.0202
  168DOPC   C3120386   2.305   0.867  16.292  0.3590 -0.4401  0.5226
  168DOPC   O3220387   2.216   0.787  16.298 -0.7857  0.1877 -0.3217
  168DOPC   C3220388   2.400   0.875  16.171 -0.5313 -0.4925  0.5363
  168DOPC   H2X20389   2.428   0.980  16.149  3.4493 -1.7653 -1.3313
  168DOPC   H2Y20390   2.483   0.813  16.211 -0.1945 -1.2432 -1.2450
  168DOPC   C2320391   2.185   0.420  16.501  0.3725 -0.1598  0.7276
  168DOPC   H3R20392   2.107   0.424  16.580 -1.0199  2.8768 -0.6454
  168DOPC   H3S20393   2.222   0.318  16.479  0.2143  0.0538 -0.6048
  168DOPC   C2420394   2.132   0.491  16.375 -0.2411 -0.2758  1.1042
  168DOPC   H4R20395   2.217   0.501  16.304 -0.4612 -0.0452  0.8695
  168DOPC   H4S20396   2.097   0.592  16.407  0.8654  0.1546  0.9743
  168DOPC   C2520397   2.004   0.424  16.317 -0.7084 -0.4714  0.4436
  168DOPC   H5R20398   1.954   0.499  16.251  1.2975 -1.0107 -1.8517
  168DOPC   H5S20399   1.939   0.392  16.401  1.0670 -1.7573  1.4191
  168DOPC   C2620400   2.043   0.315  16.215 -0.4751 -0.6313 -0.2186
  168DOPC   H6R20401   2.058   0.222  16.273  2.0998  0.2247  0.6384
  168DOPC   H6S20402   2.138   0.331  16.160 -0.4475  0.1248  0.0266
  168DOPC   C2720403   1.941   0.296  16.105  0.0722 -0.1838  0.1136
  168DOPC   H7R20404   1.931   0.390  16.047  0.3867  0.1877  0.6494
  168DOPC   H7S20405   1.843   0.272  16.150  0.7157 -1.4075  0.9492
  168DOPC   C2820406   1.961   0.182  16.008 -0.3703 -0.0803 -0.9750
  168DOPC   H8R20407   1.939   0.088  16.063  0.9980 -0.1807 -0.5532
  168DOPC   H8S20408   2.065   0.175  15.969 -0.0081  1.8915 -0.4560
  168DOPC   C2920409   1.850   0.196  15.903 -0.5664  0.4102  0.2260
  168DOPC   H9R20410   1.837   0.295  15.856 -2.0991 -0.9048 -2.3017
  168DOPC  C21020411   1.769   0.092  15.866 -0.7497  0.2820  0.2356
  168DOPC  H10R20412   1.695   0.102  15.785 -0.2507 -2.7695 -0.7136
  168DOPC  C21120413   1.774  -0.052  15.914  0.3194 -0.2336 -0.3136
  168DOPC  H11R20414   1.868  -0.081  15.967 -1.0632 -1.0324  1.8153
  168DOPC  H11S20415   1.776  -0.117  15.823  0.3120  0.3988 -0.7691
  168DOPC  C21220416   1.659  -0.090  16.009 -0.5152 -0.3794  0.6849
  168DOPC  H12R20417   1.561  -0.067  15.962 -1.3492 -0.1285  2.4354
  168DOPC  H12S20418   1.663  -0.024  16.099  0.6418  0.4089  0.0799
  168DOPC  C21320419   1.674  -0.235  16.061 -0.3123 -0.6033 -0.1740
  168DOPC  H13R20420   1.771  -0.249  16.113 -0.4088 -0.8519 -0.0576
  168DOPC  H13S20421   1.663  -0.296  15.969  0.3067 -1.3860  0.2595
  168DOPC  C21420422   1.559  -0.265  16.155 -0.4081  1.1097 -0.3720
  168DOPC  H14R20423   1.469  -0.211  16.120 -1.0577  1.1414  1.2615
  168DOPC  H14S20424   1.589  -0.217  16.251 -1.8368  1.6204 -0.1631
  168DOPC  C21520425   1.527  -0.410  16.181 -0.4610 -0.3326 -0.0223
  168DOPC  H15R20426   1.452  -0.418  16.262 -0.4594 -1.0736 -0.0889
  168DOPC  H15S20427   1.613  -0.467  16.223 -1.7931 -0.6960  2.4357
  168DOPC  C21620428   1.473  -0.495  16.069 -0.7564  0.1746 -0.3377
  168DOPC  H16R20429   1.556  -0.485  15.995  1.1669 -1.4620  1.4514
  168DOPC  H16S20430   1.382  -0.439  16.039 -0.7129  0.9184  0.8749
  168DOPC  C21720431   1.436  -0.638  16.114  0.4774  0.6107  0.4180
  168DOPC  H17R20432   1.345  -0.639  16.177 -0.0064  0.4590 -0.2787
  168DOPC  H17S20433   1.513  -0.674  16.186 -1.1879  2.2420  3.2377
  168DOPC  C21820434   1.433  -0.741  16.002 -0.2127 -0.2859 -0.3517
  168DOPC  H18R20435   1.529  -0.736  15.947  0.1675  0.8808  0.3792
  168DOPC  H18S20436   1.356  -0.728  15.922  0.1604 -2.3145 -1.1052
  168DOPC  H18T20437   1.411  -0.841  16.047 -0.3930 -0.8915 -1.7413
  168DOPC   C3320438   2.339   0.814  16.047 -0.0626 -0.4992  0.1043
  168DOPC   H3X20439   2.255   0.885  16.026  0.6831  0.1243 -0.8672
  168DOPC   H3Y20440   2.298   0.712  16.060 -1.0133  0.0083  1.2546
  168DOPC   C3420441   2.420   0.845  15.918 -0.1574 -0.3095 -0.2276
  168DOPC   H4X20442   2.513   0.784  15.913  0.4144  0.3053  1.8101
  168DOPC   H4Y20443   2.454   0.951  15.914  0.6731 -0.5470  0.3648
  168DOPC   C3520444   2.343   0.817  15.781  0.1543  0.5647 -0.2167
  168DOPC   H5X20445   2.407   0.794  15.693 -0.9649  0.8109 -1.1165
  168DOPC   H5Y20446   2.298   0.915  15.753  0.2480 -0.2716 -3.7448
  168DOPC   C3620447   2.218   0.715  15.795 -0.1882  0.4886 -0.0709
  168DOPC   H6X20448   2.155   0.726  15.886  2.1394 -1.1470  1.8694
  168DOPC   H6Y20449   2.153   0.734  15.708  0.5564 -0.1397 -0.7785
  168DOPC   C3720450   2.250   0.563  15.771 -0.3306 -0.3187 -0.4159
  168DOPC   H7X20451   2.272   0.549  15.663  1.7266  0.4465 -0.1400
  168DOPC   H7Y20452   2.333   0.529  15.837 -2.0299 -0.2314  1.9070
  168DOPC   C3820453   2.131   0.468  15.808  0.5032 -0.2759  0.3632
  168DOPC   H8X20454   2.106   0.488  15.915 -1.9888  3.3041 -0.7193
  168DOPC   H8Y20455   2.171   0.364  15.806  2.2652  0.3749 -0.1976
  168DOPC   C3920456   2.009   0.499  15.727  0.0502  1.2784 -0.1502
  168DOPC   H9X20457   1.924   0.558  15.765 -0.5631  1.8479 -2.2717
  168DOPC  C31020458   1.989   0.440  15.608  0.3088  0.0689  0.0767
  168DOPC  H10X20459   1.891   0.455  15.561 -0.2695 -0.0684  1.1925
  168DOPC  C31120460   2.079   0.346  15.543  0.6525  0.1819  0.8374
  168DOPC  H11X20461   2.105   0.263  15.611 -0.4596 -0.9535 -0.0669
  168DOPC  H11Y20462   2.175   0.391  15.507 -0.3004  0.8419 -1.0041
  168DOPC  C31220463   2.005   0.276  15.428  0.0707  0.7430 -0.6639
  168DOPC  H12X20464   1.991   0.356  15.352  1.1558  0.5089 -1.1314
  168DOPC  H12Y20465   1.903   0.249  15.464  1.5153 -0.7648  2.7961
  168DOPC  C31320466   2.082   0.154  15.375 -0.3389  0.3614 -0.0485
  168DOPC  H13X20467   2.145   0.117  15.459  1.7869 -0.6159 -1.9543
  168DOPC  H13Y20468   2.009   0.072  15.356  0.0851  0.5457 -2.8958
  168DOPC  C31420469   2.164   0.181  15.245  0.6127 -0.2918 -0.2841
  168DOPC  H14X20470   2.099   0.214  15.162 -0.5546 -3.5449 -0.8248
  168DOPC  H14Y20471   2.234   0.266  15.261 -0.2073  0.4892 -0.7899
  168DOPC  C31520472   2.232   0.049  15.203 -0.5586 -0.4584 -0.2145
  168DOPC  H15X20473   2.152  -0.021  15.172 -0.1274 -0.7312 -0.7258
  168DOPC  H15Y20474   2.293   0.014  15.289  0.9041  1.5524 -0.3467
  168DOPC  C31620475   2.313   0.073  15.076 -0.5306  0.4963  0.1941
  168DOPC  H16X20476   2.244   0.083  14.989 -0.3779  2.2909  0.2230
  168DOPC  H16Y20477   2.372   0.166  15.090 -0.4618  0.5722 -0.5632
  168DOPC  C31720478   2.412  -0.045  15.062 -0.4194 -0.4322 -0.0400
  168DOPC  H17X20479   2.497  -0.002  15.005 -0.4980  0.6488  0.6309
  168DOPC  H17Y20480   2.453  -0.060  15.164 -3.8220  1.7368  1.8510
  168DOPC  C31820481   2.368  -0.180  15.002 -0.0001 -0.8934 -0.2602
  168DOPC  H18X20482   2.326  -0.163  14.901 -1.4036 -0.7893  0.3147
  168DOPC  H18Y20483   2.445  -0.258  14.986  1.8301  1.2658 -2.7427
  168DOPC  H18Z20484   2.289  -0.230  15.063  1.2452 -1.8699  0.6069
  169DOPC     N20485   7.636   1.545  17.161 -0.1330 -0.4649  0.2239
  169DOPC   C1220486   7.731   1.536  17.042  0.3619  0.2986 -1.1319
  169DOPC  H12A20487   7.737   1.432  17.014  0.4888  0.3996 -1.4810
  169DOPC  H12B20488   7.831   1.563  17.072  0.2449 -0.4493 -0.0091
  169DOPC   C1320489   7.490   1.531  17.118 -0.3425  0.3750 -0.1677
  169DOPC  H13A20490   7.423   1.530  17.202 -0.2098 -0.3112 -0.0663
  169DOPC  H13B20491   7.466   1.611  17.050  0.1288  1.9447  1.4451
  169DOPC  H13C20492   7.473   1.448  17.051  0.5687 -1.1531  1.4177
  169DOPC   C1420493   7.654   1.682  17.221 -0.1089  0.2759  0.0748
  169DOPC  H14A20494   7.639   1.755  17.142 -0.3118  0.4265  0.2499
  169DOPC  H14B20495   7.578   1.700  17.295  0.3570  1.3651  0.3108
  169DOPC  H14C20496   7.757   1.690  17.253  0.4490  0.0194 -1.5454
  169DOPC   C1520497   7.670   1.436  17.252 -0.0320  0.6958 -0.4919
  169DOPC  H15A20498   7.638   1.343  17.208 -0.1909  0.2606  0.5219
  169DOPC  H15B20499   7.621   1.455  17.346 -1.8022 -1.0057 -0.9970
  169DOPC  H15C20500   7.775   1.411  17.255  0.2529  1.7691 -0.8775
  169DOPC   C1120501   7.698   1.614  16.911  0.6280  0.2104 -0.8426
  169DOPC  H11A20502   7.766   1.588  16.827  0.4250 -1.6394 -0.4842
  169DOPC  H11B20503   7.598   1.587  16.872  1.3922 -1.3893 -1.7881
  169DOPC     P20504   7.595   1.866  16.909  0.0340  0.5591 -0.1378
  169DOPC   O1320505   7.673   1.991  16.903  0.3195 -0.3571  0.3410
  169DOPC   O1420506   7.503   1.868  17.029  0.1449  0.1142  0.3898
  169DOPC   O1220507   7.698   1.754  16.936  0.0741  0.0003 -0.2279
  169DOPC   O1120508   7.526   1.824  16.770  0.4621 -0.7590 -0.2424
  169DOPC    C120509   7.630   1.819  16.664 -0.0938  0.1869 -0.3776
  169DOPC    HA20510   7.611   1.738  16.590  3.7291 -0.2160 -1.1282
  169DOPC    HB20511   7.734   1.794  16.694  0.3277  2.7707  0.5236
  169DOPC    C220512   7.639   1.960  16.593 -0.1534  0.0504 -0.0715
  169DOPC    HS20513   7.696   2.028  16.659 -0.0117 -1.0546  0.9921
  169DOPC   O2120514   7.500   2.007  16.574 -0.0846 -0.4164  0.2192
  169DOPC   C2120515   7.500   2.144  16.551 -0.3986  1.0812 -0.1436
  169DOPC   O2220516   7.596   2.212  16.545 -0.6684  0.3127  0.0957
  169DOPC   C2220517   7.364   2.207  16.545  0.2969 -0.1328 -0.3634
  169DOPC   H2R20518   7.361   2.269  16.452  0.0832 -0.6668 -0.7186
  169DOPC   H2S20519   7.361   2.269  16.637 -1.8974 -0.8831  0.1451
  169DOPC    C320520   7.713   1.950  16.463  0.4540 -0.0310  0.6202
  169DOPC    HX20521   7.803   1.885  16.469  1.0301  0.8690  2.8511
  169DOPC    HY20522   7.756   2.049  16.437  1.8268  0.5343  4.4481
  169DOPC   O3120523   7.633   1.895  16.358 -0.7661  0.1756  0.3538
  169DOPC   C3120524   7.586   1.973  16.263  0.0238  0.3761 -0.0698
  169DOPC   O3220525   7.609   2.089  16.253  0.3522 -0.7010 -0.1401
  169DOPC   C3220526   7.498   1.900  16.158  0.7468  0.6134  0.0913
  169DOPC   H2X20527   7.512   1.789  16.155 -0.8766  0.3894 -2.6102
  169DOPC   H2Y20528   7.396   1.931  16.191 -0.2548 -2.1435 -0.1186
  169DOPC   C2320529   7.242   2.116  16.549 -0.4035 -0.1095  0.6917
  169DOPC   H3R20530   7.146   2.169  16.569 -0.4552  0.0042  0.1606
  169DOPC   H3S20531   7.253   2.045  16.634 -0.5274  0.7935  1.4858
  169DOPC   C2420532   7.208   2.055  16.417 -0.0410  0.2031 -0.1068
  169DOPC   H4R20533   7.297   2.010  16.369 -1.7516 -1.6090 -1.7803
  169DOPC   H4S20534   7.181   2.138  16.347 -0.3007 -0.2578 -0.5617
  169DOPC   C2520535   7.108   1.936  16.424  0.3096  0.1831 -0.0743
  169DOPC   H5R20536   7.006   1.978  16.437 -1.0598 -1.8599 -3.0218
  169DOPC   H5S20537   7.125   1.868  16.510 -1.8319  0.3545  0.5371
  169DOPC   C2620538   7.099   1.854  16.294 -0.5256  0.3960  0.2131
  169DOPC   H6R20539   7.025   1.775  16.320  0.0893  0.0457  0.9375
  169DOPC   H6S20540   7.191   1.817  16.244 -0.2670  3.0701 -1.4954
  169DOPC   C2720541   7.047   1.931  16.183  0.6515 -0.2714 -0.5272
  169DOPC   H7R20542   7.114   2.015  16.156 -2.2220  1.2412 -3.6280
  169DOPC   H7S20543   6.962   1.990  16.222  1.8433  0.6898  0.7212
  169DOPC   C2820544   6.979   1.858  16.066 -0.2579 -0.3510  0.1611
  169DOPC   H8R20545   7.066   1.837  16.001  0.4288 -1.8059  1.4735
  169DOPC   H8S20546   6.921   1.934  16.009 -0.3043 -0.2439  0.3519
  169DOPC   C2920547   6.901   1.727  16.081 -0.1040 -0.3646 -0.0458
  169DOPC   H9R20548   6.811   1.739  16.144  0.4838  1.3728  0.5404
  169DOPC  C21020549   6.935   1.609  16.037 -0.6809  0.0389  0.1212
  169DOPC  H10R20550   6.860   1.529  16.049  0.5379 -1.1683 -0.0361
  169DOPC  C21120551   7.055   1.563  15.957 -0.0774 -0.2192 -0.8625
  169DOPC  H11R20552   7.078   1.460  15.992  0.0131  0.2543  0.5095
  169DOPC  H11S20553   7.146   1.622  15.979 -1.3170  1.9595 -1.2592
  169DOPC  C21220554   7.021   1.580  15.808  0.0446 -0.0736 -0.2676
  169DOPC  H12R20555   7.113   1.563  15.747 -0.2896  2.8063 -1.7408
  169DOPC  H12S20556   7.000   1.686  15.782  0.2031  0.1207  0.3801
  169DOPC  C21320557   6.914   1.486  15.752  0.5346  0.4425  0.2399
  169DOPC  H13R20558   6.819   1.500  15.808  0.3394 -0.6945  0.2306
  169DOPC  H13S20559   6.953   1.382  15.763 -1.2432 -0.1801  0.9475
  169DOPC  C21420560   6.876   1.511  15.605  0.1155  0.6231 -0.1528
  169DOPC  H14R20561   6.801   1.432  15.580  0.3783  0.1777  0.4559
  169DOPC  H14S20562   6.970   1.501  15.546 -0.6870  0.5827 -1.4826
  169DOPC  C21520563   6.814   1.650  15.581  0.0957  0.4800 -0.3884
  169DOPC  H15R20564   6.882   1.728  15.622  2.5882 -1.8150  0.1366
  169DOPC  H15S20565   6.717   1.658  15.635  0.8377 -1.7597  1.4496
  169DOPC  C21620566   6.789   1.687  15.441 -0.1471 -0.6424  0.6639
  169DOPC  H16R20567   6.697   1.638  15.402  0.9329 -1.4358 -1.0388
  169DOPC  H16S20568   6.876   1.650  15.383 -2.0108 -1.0164 -2.0961
  169DOPC  C21720569   6.770   1.839  15.430 -0.1196 -0.2557  0.0847
  169DOPC  H17R20570   6.872   1.870  15.459 -0.7512  0.3877  1.7815
  169DOPC  H17S20571   6.703   1.881  15.508 -1.5460 -0.0883 -1.1820
  169DOPC  C21820572   6.712   1.880  15.292  0.3371  0.2344 -0.1328
  169DOPC  H18R20573   6.793   1.875  15.216  0.8913 -2.2172  0.5263
  169DOPC  H18S20574   6.666   1.981  15.290  0.6136  0.4067  1.1063
  169DOPC  H18T20575   6.636   1.808  15.256 -0.0350  0.4987  0.1179
  169DOPC   C3320576   7.507   1.946  16.007 -0.2319  0.0822 -0.2299
  169DOPC   H3X20577   7.590   1.898  15.952  0.6495  1.8219 -0.4939
  169DOPC   H3Y20578   7.534   2.054  16.001  0.2416  0.0148  0.5087
  169DOPC   C3420579   7.382   1.920  15.923  0.2021 -0.5429 -0.1306
  169DOPC   H4X20580   7.296   1.957  15.982 -0.0438 -1.8169  0.3583
  169DOPC   H4Y20581   7.367   1.811  15.903 -0.7296 -0.1849 -1.5491
  169DOPC   C3520582   7.399   1.997  15.795 -0.3425 -0.7483  0.0170
  169DOPC   H5X20583   7.506   2.005  15.767 -0.4914  0.4973 -0.2228
  169DOPC   H5Y20584   7.364   2.101  15.812  0.9101 -0.7321  3.2752
  169DOPC   C3620585   7.318   1.935  15.677 -0.1239 -0.1034 -0.3303
  169DOPC   H6X20586   7.362   1.838  15.646 -0.6579 -0.4000 -0.1792
  169DOPC   H6Y20587   7.215   1.916  15.716  0.1362  2.7017  2.1247
  169DOPC   C3720588   7.312   2.037  15.565  0.1334 -0.2939 -0.1871
  169DOPC   H7X20589   7.271   2.133  15.601  0.3694  1.3034 -3.7382
  169DOPC   H7Y20590   7.415   2.046  15.523  0.6861 -2.1691  0.6453
  169DOPC   C3820591   7.221   1.986  15.449 -0.0936  0.1342 -0.5675
  169DOPC   H8X20592   7.120   2.014  15.485  0.8180  0.5065  1.8530
  169DOPC   H8Y20593   7.239   1.876  15.449 -0.5515  0.0554  0.4257
  169DOPC   C3920594   7.248   2.045  15.312 -0.1356  0.6073  0.0962
  169DOPC   H9X20595   7.272   2.152  15.310  1.3432  0.3142  0.6005
  169DOPC  C31020596   7.264   1.982  15.193 -0.6500 -0.1909  0.1781
  169DOPC  H10X20597   7.265   2.051  15.107  0.3844 -1.3992 -0.8085
  169DOPC  C31120598   7.261   1.836  15.161  1.0368 -0.5078 -0.1914
  169DOPC  H11X20599   7.162   1.802  15.122  1.2690 -0.9165 -0.4401
  169DOPC  H11Y20600   7.273   1.772  15.251  1.4553  2.2239  1.8015
  169DOPC  C31220601   7.382   1.798  15.073 -0.3000 -0.2729  0.3155
  169DOPC  H12X20602   7.370   1.864  14.984 -3.2574 -1.3250 -0.1936
  169DOPC  H12Y20603   7.372   1.693  15.041 -0.8215 -0.7429  1.9065
  169DOPC  C31320604   7.518   1.826  15.138 -0.3738 -0.0726 -0.1686
  169DOPC  H13X20605   7.606   1.825  15.070 -0.4601  1.0446 -0.3225
  169DOPC  H13Y20606   7.529   1.934  15.164 -1.2035  0.3566 -1.5106
  169DOPC  C31420607   7.560   1.730  15.256 -0.0185 -0.5712 -0.0311
  169DOPC  H14X20608   7.476   1.658  15.263  1.2926 -2.0174  2.0487
  169DOPC  H14Y20609   7.654   1.672  15.238  1.9820  2.3890  0.1555
  169DOPC  C31520610   7.557   1.793  15.393  0.7400 -0.1068  0.1573
  169DOPC  H15X20611   7.468   1.860  15.396  0.8524  0.1353 -1.2633
  169DOPC  H15Y20612   7.645   1.860  15.396  2.3443 -2.0320 -1.2749
  169DOPC  C31620613   7.564   1.686  15.499 -0.4426 -0.9048  1.3324
  169DOPC  H16X20614   7.641   1.611  15.472  1.0779  0.6611  1.1108
  169DOPC  H16Y20615   7.600   1.743  15.588 -1.3161  1.2246  0.3955
  169DOPC  C31720616   7.427   1.614  15.517 -0.6624 -0.9463  0.4502
  169DOPC  H17X20617   7.342   1.684  15.503  0.8164  1.1114  1.1046
  169DOPC  H17Y20618   7.427   1.534  15.439 -1.4452 -1.1264  0.6313
  169DOPC  C31820619   7.399   1.540  15.646 -0.4511 -0.1417  0.5203
  169DOPC  H18X20620   7.309   1.477  15.626 -1.4263  1.0809  0.9567
  169DOPC  H18Y20621   7.491   1.488  15.682 -0.6421 -0.4220  0.6119
  169DOPC  H18Z20622   7.373   1.612  15.726 -0.1134  2.3644 -1.5067
  170DOPC     N20623   6.500   7.534  17.178  0.5384 -0.2962  0.1130
  170DOPC   C1220624   6.424   7.558  17.048  0.2796 -0.6186  0.3382
  170DOPC  H12A20625   6.318   7.560  17.067  0.2243 -0.2456  0.0209
  170DOPC  H12B20626   6.435   7.477  16.977  1.2468 -1.2619  1.2015
  170DOPC   C1320627   6.438   7.424  17.258 -0.1804 -0.5939  0.1502
  170DOPC  H13A20628   6.334   7.434  17.285 -0.2009 -0.5200  0.0422
  170DOPC  H13B20629   6.450   7.325  17.217  1.0900 -0.3736 -0.0446
  170DOPC  H13C20630   6.494   7.419  17.351  0.3372  1.9158  0.0520
  170DOPC   C1420631   6.486   7.656  17.262 -0.0659 -0.4587 -0.5129
  170DOPC  H14A20632   6.521   7.739  17.203 -1.4499 -0.2974 -1.1680
  170DOPC  H14B20633   6.380   7.665  17.284 -0.0424 -1.6802  0.2159
  170DOPC  H14C20634   6.533   7.645  17.358  0.9109  0.4742 -0.8668
  170DOPC   C1520635   6.640   7.502  17.143 -0.1745 -0.2342 -0.1112
  170DOPC  H15A20636   6.690   7.563  17.070 -1.5492 -1.3884 -2.1057
  170DOPC  H15B20637   6.628   7.402  17.105 -2.5666  0.5173 -1.6004
  170DOPC  H15C20638   6.689   7.490  17.239 -0.6951 -1.3248  0.0326
  170DOPC   C1120639   6.447   7.695  16.963 -1.4362  0.2823  0.0270
  170DOPC  H11A20640   6.555   7.707  16.942 -1.5391 -1.5930 -1.8272
  170DOPC  H11B20641   6.407   7.675  16.861  1.0990  0.0489 -0.9790
  170DOPC     P20642   6.234   7.813  17.049  0.2970  0.4088 -0.0917
  170DOPC   O1320643   6.192   7.925  17.133 -0.4175 -0.0010 -0.4022
  170DOPC   O1420644   6.183   7.679  17.093 -0.4065 -0.8500  0.4310
  170DOPC   O1220645   6.388   7.813  17.021 -0.1136 -0.2559  0.6165
  170DOPC   O1120646   6.159   7.825  16.914 -0.0957 -0.2493  0.2455
  170DOPC    C120647   6.212   7.861  16.788  0.1326  0.2575 -0.1219
  170DOPC    HA20648   6.187   7.780  16.716  1.7101 -1.2362  0.9259
  170DOPC    HB20649   6.322   7.876  16.782  0.2778 -1.0754 -1.4637
  170DOPC    C220650   6.144   7.989  16.741 -0.2636 -0.5849  0.2706
  170DOPC    HS20651   6.164   8.067  16.817 -0.9049  0.7881 -0.9312
  170DOPC   O2120652   6.003   7.962  16.737  0.5364 -0.2182  0.2607
  170DOPC   C2120653   5.929   8.076  16.737 -0.3241  0.5567 -0.0721
  170DOPC   O2220654   5.975   8.189  16.745 -0.2278 -0.3056 -0.1541
  170DOPC   C2220655   5.787   8.035  16.722  0.5774  0.3428 -0.5518
  170DOPC   H2R20656   5.727   8.129  16.721 -1.2519 -0.7608  0.5118
  170DOPC   H2S20657   5.749   7.974  16.807 -1.3137  2.4366  0.2270
  170DOPC    C320658   6.187   8.031  16.601 -0.0499  0.7198 -0.1329
  170DOPC    HX20659   6.139   8.128  16.574  0.4789  1.5769  1.8214
  170DOPC    HY20660   6.138   7.956  16.535 -0.5661  0.5719  0.4064
  170DOPC   O3120661   6.330   8.026  16.588  0.2002 -0.3817 -0.5731
  170DOPC   C3120662   6.384   8.152  16.602  0.6601  0.0867  0.2305
  170DOPC   O3220663   6.322   8.252  16.626 -0.7672 -0.3442 -0.1275
  170DOPC   C3220664   6.531   8.147  16.571 -0.0512  0.1893 -1.0529
  170DOPC   H2X20665   6.576   8.247  16.590  1.0131 -0.2699 -1.1091
  170DOPC   H2Y20666   6.575   8.071  16.639  3.6875  2.3073 -0.7901
  170DOPC   C2320667   5.754   7.950  16.595 -0.1587 -0.1704  0.5949
  170DOPC   H3R20668   5.647   7.921  16.602  0.3470 -1.8000  2.4579
  170DOPC   H3S20669   5.821   7.862  16.588  1.4949  1.0596  0.4870
  170DOPC   C2420670   5.762   8.039  16.469  0.7596 -0.4534  0.6569
  170DOPC   H4R20671   5.867   8.073  16.457  0.1750  2.0227  1.9439
  170DOPC   H4S20672   5.706   8.135  16.462  1.9803  0.3957  1.9586
  170DOPC   C2520673   5.733   7.961  16.344 -0.6359  0.1386  0.4863
  170DOPC   H5R20674   5.624   7.939  16.345 -0.5812 -0.1666 -0.2096
  170DOPC   H5S20675   5.794   7.869  16.353 -0.7524  0.0018 -0.1072
  170DOPC   C2620676   5.778   8.032  16.219 -0.4371  0.2688  0.4637
  170DOPC   H6R20677   5.881   8.069  16.240 -0.5066  0.9492 -0.3397
  170DOPC   H6S20678   5.721   8.123  16.192  1.2797  1.6106  1.1857
  170DOPC   C2720679   5.773   7.936  16.098  0.6016 -0.4574 -0.1602
  170DOPC   H7R20680   5.669   7.918  16.065  0.3809 -1.4734  1.0211
  170DOPC   H7S20681   5.815   7.837  16.125  1.5327 -0.3807 -1.2565
  170DOPC   C2820682   5.871   7.987  15.986  0.0222  0.7159 -0.3757
  170DOPC   H8R20683   5.905   7.897  15.929 -0.1346  0.0330  0.5795
  170DOPC   H8S20684   5.964   8.037  16.021  0.4417  0.5325 -1.1800
  170DOPC   C2920685   5.808   8.089  15.899 -0.3509  0.3884 -0.0094
  170DOPC   H9R20686   5.766   8.178  15.949 -1.0374 -0.1105  0.3246
  170DOPC  C21020687   5.803   8.082  15.767  0.7041 -0.1013 -0.5838
  170DOPC  H10R20688   5.753   8.165  15.716 -0.3084 -0.7320 -0.6481
  170DOPC  C21120689   5.855   7.975  15.676  0.4164 -0.5563 -0.0391
  170DOPC  H11R20690   5.794   7.975  15.583 -0.4595  1.0487  0.5020
  170DOPC  H11S20691   5.846   7.876  15.725  0.8068 -0.8903 -0.6302
  170DOPC  C21220692   6.004   7.993  15.652  0.5219  0.2199  0.3773
  170DOPC  H12R20693   6.061   7.963  15.742  1.1212  1.4509  0.4210
  170DOPC  H12S20694   6.024   8.100  15.628  1.7383 -0.0588  0.1029
  170DOPC  C21320695   6.032   7.905  15.531  0.0880 -0.1625  0.5616
  170DOPC  H13R20696   5.947   7.900  15.459 -0.7152 -1.2340  1.5369
  170DOPC  H13S20697   6.051   7.798  15.553  1.5838  0.0783  0.5528
  170DOPC  C21420698   6.166   7.949  15.461 -0.1959 -0.6075  0.0271
  170DOPC  H14R20699   6.251   7.944  15.533  0.3861 -1.0337 -0.6745
  170DOPC  H14S20700   6.147   8.055  15.433 -1.2800 -0.2389  1.9395
  170DOPC  C21520701   6.197   7.865  15.343  0.1997  0.3588  0.3692
  170DOPC  H15R20702   6.123   7.879  15.261  1.0927  2.6450 -0.1455
  170DOPC  H15S20703   6.189   7.756  15.363  0.6093 -0.2392 -2.3513
  170DOPC  C21620704   6.340   7.895  15.287 -0.8601 -0.2614  0.2337
  170DOPC  H16R20705   6.405   7.867  15.373 -0.6848 -0.7180 -0.0438
  170DOPC  H16S20706   6.341   8.004  15.268 -2.9797  0.1806  2.1440
  170DOPC  C21720707   6.376   7.815  15.157 -0.8724  0.2933  0.9287
  170DOPC  H17R20708   6.281   7.806  15.099 -0.0113  2.4467 -0.9627
  170DOPC  H17S20709   6.416   7.715  15.185  0.7568  0.5901 -0.1447
  170DOPC  C21820710   6.478   7.889  15.066 -0.1448 -0.2205 -0.2552
  170DOPC  H18R20711   6.516   7.824  14.985  0.5494  1.8264 -1.6329
  170DOPC  H18S20712   6.570   7.919  15.120 -0.6550  1.3686 -0.2189
  170DOPC  H18T20713   6.430   7.981  15.026  0.4741  0.3371  0.2664
  170DOPC   C3320714   6.563   8.094  16.432  0.1041 -0.2760  0.8434
  170DOPC   H3X20715   6.521   8.161  16.354  0.1799 -1.0668  0.1249
  170DOPC   H3Y20716   6.510   7.999  16.412 -1.9385  0.9393  0.2053
  170DOPC   C3420717   6.708   8.065  16.410 -0.2639  0.1075 -0.2522
  170DOPC   H4X20718   6.719   8.020  16.309  4.3741 -1.0429  0.5514
  170DOPC   H4Y20719   6.743   7.996  16.490 -0.7695  2.2908  1.9837
  170DOPC   C3520720   6.794   8.194  16.399  0.3564  0.4011 -0.0537
  170DOPC   H5X20721   6.770   8.253  16.491  0.6106 -0.9639  0.9277
  170DOPC   H5Y20722   6.771   8.253  16.308 -4.2703 -0.6297  0.1880
  170DOPC   C3620723   6.941   8.159  16.401 -0.0393 -0.1502 -0.2154
  170DOPC   H6X20724   6.984   8.253  16.441  0.6120 -0.1647 -0.8556
  170DOPC   H6Y20725   6.961   8.077  16.474 -3.2346  0.1967  1.2271
  170DOPC   C3720726   7.004   8.127  16.259 -0.0692 -0.5313 -0.0824
  170DOPC   H7X20727   6.961   8.037  16.210 -0.5950  0.3395 -1.2621
  170DOPC   H7Y20728   6.999   8.217  16.195  0.4830  1.2750  2.2704
  170DOPC   C3820729   7.154   8.109  16.273  0.3229 -0.7067  0.2211
  170DOPC   H8X20730   7.175   8.017  16.331 -1.0746 -1.4049 -0.3153
  170DOPC   H8Y20731   7.181   8.197  16.335  0.7115 -0.3677 -0.4216
  170DOPC   C3920732   7.229   8.101  16.141  0.4713  0.4682  0.2660
  170DOPC   H9X20733   7.196   8.176  16.068  0.1475  0.3537  0.2920
  170DOPC  C31020734   7.310   8.003  16.096 -0.4707  0.5038 -0.0524
  170DOPC  H10X20735   7.353   8.008  15.995  0.2416  1.9629  0.3008
  170DOPC  C31120736   7.347   7.874  16.169 -0.5373 -0.8853 -0.0239
  170DOPC  H11X20737   7.348   7.796  16.090  0.6603  0.1462 -1.0780
  170DOPC  H11Y20738   7.278   7.836  16.247 -1.5212  0.4993 -0.1841
  170DOPC  C31220739   7.488   7.888  16.220 -0.6106 -0.5484 -0.4591
  170DOPC  H12X20740   7.523   7.797  16.273  2.5151  1.7489  1.7670
  170DOPC  H12Y20741   7.492   7.967  16.297  0.9651 -0.1998 -0.8765
  170DOPC  C31320742   7.596   7.924  16.114 -0.2429  0.1733  0.2117
  170DOPC  H13X20743   7.600   7.849  16.032 -1.4181  0.5912 -0.2427
  170DOPC  H13Y20744   7.569   8.022  16.068 -0.0338 -0.0367 -0.3790
  170DOPC  C31420745   7.745   7.934  16.165  0.1893 -0.0828 -0.0123
  170DOPC  H14X20746   7.741   8.007  16.248  0.0679 -1.6722  1.4246
  170DOPC  H14Y20747   7.775   7.835  16.205 -0.8363  0.1809  1.4834
  170DOPC  C31520748   7.834   7.993  16.053  0.4337  0.7995  0.8570
  170DOPC  H15X20749   7.771   8.056  15.987 -1.0263 -0.9713  0.4607
  170DOPC  H15Y20750   7.873   7.903  16.002 -0.9293  1.0037 -0.6456
  170DOPC  C31620751   7.961   8.068  16.099 -0.1010 -0.6331  0.1130
  170DOPC  H16X20752   8.022   8.094  16.010  0.1381 -0.8747  0.2013
  170DOPC  H16Y20753   7.921   8.163  16.140 -4.4271 -1.2766 -2.0483
  170DOPC  C31720754   8.044   8.000  16.212  0.0323  0.0513  0.7253
  170DOPC  H17X20755   8.080   8.080  16.279  0.7313 -0.5468  1.0713
  170DOPC  H17Y20756   7.987   7.928  16.275 -0.5083  0.7378  1.0376
  170DOPC  C31820757   8.172   7.930  16.160  0.7781 -0.1860 -0.2131
  170DOPC  H18X20758   8.144   7.873  16.069  2.2271  1.0157 -1.4771
  170DOPC  H18Y20759   8.248   8.003  16.126 -1.4641  1.6192 -1.5936
  170DOPC  H18Z20760   8.216   7.859  16.234  1.0622  0.4602  0.2450
  171DOPC     N20761   2.143   3.222  12.975 -0.1679  0.0207  0.1638
  171DOPC   C1220762   2.232   3.283  13.084  0.4626  0.5418 -0.0443
  171DOPC  H12A20763   2.175   3.277  13.176  1.1107 -2.2465  0.2562
  171DOPC  H12B20764   2.248   3.385  13.053 -0.5663  1.0771  1.0943
  171DOPC   C1320765   2.214   3.234  12.841  0.4141 -0.3471 -0.2757
  171DOPC  H13A20766   2.158   3.195  12.757 -0.6384  1.7990 -0.6507
  171DOPC  H13B20767   2.233   3.335  12.808 -4.0289  0.3044 -1.4514
  171DOPC  H13C20768   2.304   3.174  12.842 -0.6687 -2.1874 -2.5939
  171DOPC   C1420769   2.013   3.307  12.962 -0.1279 -0.3111  0.2074
  171DOPC  H14A20770   1.938   3.258  12.902 -2.0400 -2.4021  3.8763
  171DOPC  H14B20771   1.967   3.320  13.059 -2.3469 -1.4003 -0.6432
  171DOPC  H14C20772   2.033   3.405  12.921  0.5840 -1.1302 -1.4891
  171DOPC   C1520773   2.103   3.076  13.000 -0.7027 -0.3779  0.9914
  171DOPC  H15A20774   2.191   3.014  12.991 -1.3494 -1.0164 -2.5780
  171DOPC  H15B20775   2.027   3.047  12.928  0.5766  1.3600 -1.1902
  171DOPC  H15C20776   2.074   3.070  13.103  1.3405  0.8200  1.6920
  171DOPC   C1120777   2.377   3.223  13.110  0.5549 -0.2814 -0.0304
  171DOPC  H11A20778   2.410   3.229  13.216 -0.0637 -1.0007  0.2084
  171DOPC  H11B20779   2.393   3.117  13.082 -1.2913 -0.1110 -2.0363
  171DOPC     P20780   2.505   3.440  13.025  0.1683 -0.3780 -0.2308
  171DOPC   O1320781   2.386   3.522  13.014 -0.6115  0.1954  0.0254
  171DOPC   O1420782   2.623   3.456  12.937 -0.2770  0.1308 -0.1822
  171DOPC   O1220783   2.462   3.288  13.024 -0.4940  0.0683  0.0768
  171DOPC   O1120784   2.558   3.444  13.175  0.4106  0.1095 -0.3349
  171DOPC    C120785   2.567   3.572  13.246  0.0076 -0.0754  0.3759
  171DOPC    HA20786   2.517   3.658  13.197  0.3801 -0.9114 -1.5584
  171DOPC    HB20787   2.669   3.608  13.222 -1.3791  1.7246 -3.5707
  171DOPC    C220788   2.529   3.554  13.397  0.2237  0.5189  0.0299
  171DOPC    HS20789   2.548   3.649  13.452 -1.0154 -0.4045  2.1543
  171DOPC   O2120790   2.607   3.452  13.458  0.1654 -0.4414  0.3282
  171DOPC   C2120791   2.730   3.497  13.484  0.6724 -0.3736 -0.2780
  171DOPC   O2220792   2.767   3.612  13.459  0.5817 -0.2288 -0.6799
  171DOPC   C2220793   2.810   3.388  13.549 -0.1037 -0.0432  0.1504
  171DOPC   H2R20794   2.842   3.327  13.462 -0.9900  0.2509 -0.3905
  171DOPC   H2S20795   2.744   3.322  13.610 -0.0120  0.5405  0.9000
  171DOPC    C320796   2.381   3.514  13.402  0.4446  0.2337 -0.5870
  171DOPC    HX20797   2.333   3.488  13.499  0.3963  0.2447 -0.6070
  171DOPC    HY20798   2.376   3.426  13.336  1.0607 -0.5098  0.3346
  171DOPC   O3120799   2.310   3.629  13.345  0.4742 -0.0879  0.0854
  171DOPC   C3120800   2.204   3.595  13.273 -0.2892  0.0243  0.4617
  171DOPC   O3220801   2.143   3.490  13.276 -0.0210 -0.3798  0.1962
  171DOPC   C3220802   2.153   3.708  13.185 -0.4727  1.0747  0.1919
  171DOPC   H2X20803   2.219   3.797  13.199  1.5980 -0.7725  3.3047
  171DOPC   H2Y20804   2.178   3.686  13.079  1.4128 -1.3435  1.0529
  171DOPC   C2320805   2.942   3.426  13.619  1.0535  0.0748 -0.4027
  171DOPC   H3R20806   2.918   3.450  13.725 -2.6858 -0.5652 -0.9896
  171DOPC   H3S20807   2.997   3.513  13.575  0.5439  0.8987  0.5366
  171DOPC   C2420808   3.053   3.317  13.625 -0.3803  0.3731 -0.4658
  171DOPC   H4R20809   3.077   3.284  13.521 -0.4334  0.6364 -0.5624
  171DOPC   H4S20810   3.006   3.232  13.677 -1.8069  0.3598 -1.6980
  171DOPC   C2520811   3.185   3.362  13.687  0.6887 -0.2064 -0.4111
  171DOPC   H5R20812   3.206   3.456  13.632  1.7161 -0.3425 -0.2620
  171DOPC   H5S20813   3.267   3.287  13.677  1.2648  0.4197 -0.4170
  171DOPC   C2620814   3.166   3.383  13.835 -0.9495 -0.4657 -0.6724
  171DOPC   H6R20815   3.130   3.287  13.879  2.9575 -1.5639  0.5566
  171DOPC   H6S20816   3.081   3.449  13.862 -0.6478 -0.1262 -0.5531
  171DOPC   C2720817   3.298   3.424  13.909 -0.0180  0.6579 -0.0813
  171DOPC   H7R20818   3.307   3.530  13.880 -2.0226  0.5014 -1.4723
  171DOPC   H7S20819   3.380   3.358  13.874  1.0899  0.6737  2.3013
  171DOPC   C2820820   3.288   3.412  14.058  0.3370  0.0200  0.3988
  171DOPC   H8R20821   3.267   3.309  14.096 -0.0677  0.4896  1.4770
  171DOPC   H8S20822   3.194   3.464  14.084 -0.4813 -0.0390 -2.1720
  171DOPC   C2920823   3.409   3.478  14.119 -0.2040  0.3264 -0.3867
  171DOPC   H9R20824   3.504   3.466  14.066 -0.8128 -0.5954 -1.2929
  171DOPC  C21020825   3.398   3.544  14.240  0.5003  0.4199 -0.2111
  171DOPC  H10R20826   3.483   3.598  14.282  1.4687  1.8740 -3.7018
  171DOPC  C21120827   3.282   3.556  14.329  0.1537  0.2465  0.5192
  171DOPC  H11R20828   3.197   3.490  14.300  0.8716 -1.3542  1.8657
  171DOPC  H11S20829   3.242   3.659  14.324 -0.8796 -0.1192  1.0276
  171DOPC  C21220830   3.325   3.517  14.466 -0.0154 -0.1258 -0.5895
  171DOPC  H12R20831   3.375   3.603  14.514 -1.2054  0.3280 -0.1331
  171DOPC  H12S20832   3.386   3.424  14.464  3.1786  1.6979  2.1705
  171DOPC  C21320833   3.208   3.496  14.566  0.3651  0.5442 -0.0490
  171DOPC  H13R20834   3.156   3.407  14.524  2.1586  0.4954 -2.3944
  171DOPC  H13S20835   3.131   3.576  14.569  0.8115  0.9505  1.4143
  171DOPC  C21420836   3.255   3.447  14.706  0.0222  0.2131 -0.7157
  171DOPC  H14R20837   3.316   3.520  14.764 -0.1447 -0.8646  0.8458
  171DOPC  H14S20838   3.335   3.370  14.697  2.5748  2.3247  1.9023
  171DOPC  C21520839   3.133   3.400  14.792 -0.4996  0.0215  0.5151
  171DOPC  H15R20840   3.123   3.294  14.761 -0.2041  0.0169  0.4346
  171DOPC  H15S20841   3.047   3.451  14.743 -1.1907 -0.7661  0.8927
  171DOPC  C21620842   3.144   3.427  14.944  0.7114  0.3044 -0.0406
  171DOPC  H16R20843   3.145   3.537  14.957 -1.2773  0.1533  1.9552
  171DOPC  H16S20844   3.244   3.402  14.987 -0.4450  0.8408  3.2269
  171DOPC  C21720845   3.033   3.372  15.028 -0.0548  0.1797 -0.4841
  171DOPC  H17R20846   3.042   3.405  15.134 -1.5012  0.4651 -0.4300
  171DOPC  H17S20847   3.041   3.261  15.030 -0.9366  0.1081  1.0820
  171DOPC  C21820848   2.890   3.402  14.975  0.0661 -0.4797 -0.6637
  171DOPC  H18R20849   2.857   3.339  14.890 -1.5417 -0.4701 -0.0942
  171DOPC  H18S20850   2.885   3.507  14.937  1.5197 -0.4011 -0.6672
  171DOPC  H18T20851   2.817   3.398  15.058  1.2437 -1.4621  0.3428
  171DOPC   C3320852   2.013   3.754  13.218 -0.3139 -0.4414  0.5459
  171DOPC   H3X20853   1.951   3.678  13.272  0.0070 -0.9114  0.2635
  171DOPC   H3Y20854   1.964   3.771  13.120 -1.3822  2.0317  1.4337
  171DOPC   C3420855   1.993   3.886  13.299 -0.4192 -0.0177  0.4835
  171DOPC   H4X20856   1.884   3.893  13.318 -0.8161 -0.0677 -1.5310
  171DOPC   H4Y20857   2.025   3.971  13.235  0.6771 -0.2735  0.6668
  171DOPC   C3520858   2.041   3.888  13.445  0.0394 -0.6408 -0.1596
  171DOPC   H5X20859   2.020   3.988  13.489 -0.3515 -1.2324  1.0323
  171DOPC   H5Y20860   2.152   3.877  13.448  0.3384  1.9062  0.0602
  171DOPC   C3620861   1.972   3.786  13.536 -0.2734 -0.3933  0.1771
  171DOPC   H6X20862   1.862   3.790  13.523 -0.3909  1.3355  1.3504
  171DOPC   H6Y20863   2.004   3.683  13.513  0.5687 -0.1248  0.0914
  171DOPC   C3720864   2.001   3.807  13.685  0.1596 -0.8197  0.6706
  171DOPC   H7X20865   2.095   3.752  13.705  0.2846 -0.6831  0.4539
  171DOPC   H7Y20866   2.019   3.915  13.703 -0.6358 -0.7879  1.3602
  171DOPC   C3820867   1.880   3.755  13.760  0.8848 -1.0785 -0.1507
  171DOPC   H8X20868   1.795   3.819  13.726 -1.1553 -3.7202 -0.3885
  171DOPC   H8Y20869   1.887   3.763  13.870 -1.4591 -1.7668  0.1078
  171DOPC   C3920870   1.856   3.613  13.738  0.1676 -0.0944 -0.3411
  171DOPC   H9X20871   1.794   3.594  13.648 -1.3693 -1.2624  0.9048
  171DOPC  C31020872   1.910   3.510  13.797  0.6493 -0.0512 -0.4887
  171DOPC  H10X20873   1.897   3.408  13.759  1.8366 -0.5443  0.3768
  171DOPC  C31120874   2.010   3.511  13.906 -0.7015 -0.0054 -0.0199
  171DOPC  H11X20875   2.066   3.606  13.910 -0.0328 -0.4284  1.3842
  171DOPC  H11Y20876   2.088   3.438  13.874 -0.7407 -0.6248  1.2115
  171DOPC  C31220877   1.964   3.465  14.055  0.0042  0.5107  0.1321
  171DOPC  H12X20878   1.932   3.361  14.032 -1.6710  0.7943  0.9536
  171DOPC  H12Y20879   1.878   3.531  14.079  0.7487  1.3738  0.4660
  171DOPC  C31320880   2.070   3.466  14.163  0.5208  0.3619 -0.0036
  171DOPC  H13X20881   2.163   3.430  14.114 -0.5162 -1.2639 -0.8886
  171DOPC  H13Y20882   2.088   3.569  14.199  0.9630 -0.0451  0.9711
  171DOPC  C31420883   2.046   3.359  14.273  0.1274 -0.3333 -0.0384
  171DOPC  H14X20884   1.940   3.373  14.300  0.7304 -0.6871  2.8914
  171DOPC  H14Y20885   2.060   3.258  14.230  0.6284 -0.6354  0.8047
  171DOPC  C31520886   2.132   3.387  14.394  0.0224 -0.3100  1.1061
  171DOPC  H15X20887   2.139   3.496  14.418 -0.7058 -0.5952  2.7009
  171DOPC  H15Y20888   2.233   3.349  14.367  0.3092  2.0850 -1.7562
  171DOPC  C31620889   2.088   3.315  14.513  0.4334 -0.0128  0.4105
  171DOPC  H16X20890   1.993   3.368  14.533  0.1265 -0.0359 -0.8956
  171DOPC  H16Y20891   2.067   3.206  14.504  0.3179 -0.0807  1.4610
  171DOPC  C31720892   2.176   3.335  14.632 -0.5955  0.8090 -0.1741
  171DOPC  H17X20893   2.272   3.280  14.621  0.5947  2.6359  0.6086
  171DOPC  H17Y20894   2.205   3.440  14.654  1.5151  0.2377  0.0033
  171DOPC  C31820895   2.106   3.285  14.753 -0.4400  0.3072  0.2019
  171DOPC  H18X20896   2.099   3.174  14.761 -0.6296  0.2485 -0.6927
  171DOPC  H18Y20897   2.164   3.314  14.843 -1.4223 -2.0569  1.6853
  171DOPC  H18Z20898   2.013   3.344  14.766 -0.1093  0.9871 -0.4016
  172DOPC     N20899   1.076   4.578  12.807 -0.4998 -0.4077  0.0583
  172DOPC   C1220900   1.011   4.488  12.912 -0.0010 -0.0055 -0.5016
  172DOPC  H12A20901   1.072   4.401  12.933  1.0263  1.5308  3.7972
  172DOPC  H12B20902   0.910   4.471  12.878 -1.6435  2.8825  2.3471
  172DOPC   C1320903   1.207   4.632  12.865 -0.1840 -0.1567  0.1623
  172DOPC  H13A20904   1.190   4.705  12.942  1.1037  0.4475 -0.1030
  172DOPC  H13B20905   1.270   4.558  12.912  0.2569  0.1159  0.0084
  172DOPC  H13C20906   1.262   4.675  12.782  1.6059 -1.2142  0.7439
  172DOPC   C1420907   0.981   4.687  12.776  0.6184  0.1732  0.1719
  172DOPC  H14A20908   0.941   4.752  12.852 -0.4533  2.1054 -1.9230
  172DOPC  H14B20909   1.027   4.751  12.702  1.6256 -0.5877  0.1221
  172DOPC  H14C20910   0.892   4.648  12.730  0.8164  1.0541 -0.9891
  172DOPC   C1520911   1.093   4.500  12.678 -0.2548 -0.6278 -0.4746
  172DOPC  H15A20912   1.132   4.567  12.603 -3.1090 -1.0606 -2.5259
  172DOPC  H15B20913   0.999   4.456  12.650 -0.7316 -0.0167  0.1284
  172DOPC  H15C20914   1.169   4.425  12.694  1.6278  1.4681  0.9484
  172DOPC   C1120915   0.982   4.533  13.061 -0.1652  0.5585  0.0550
  172DOPC  H11A20916   0.928   4.458  13.124  0.6985 -0.4036 -0.3412
  172DOPC  H11B20917   1.082   4.542  13.109 -0.7968 -1.5581  2.0087
  172DOPC     P20918   0.775   4.684  13.131  0.3811  0.2840  0.1739
  172DOPC   O1320919   0.677   4.580  13.083 -0.2826  0.2156 -0.2604
  172DOPC   O1420920   0.744   4.830  13.106 -0.5567  0.4520 -0.5075
  172DOPC   O1220921   0.909   4.658  13.063  0.2596 -0.1926 -0.1185
  172DOPC   O1120922   0.804   4.652  13.283 -0.0838 -0.3881  0.2226
  172DOPC    C120923   0.911   4.706  13.351  0.3736  0.0515 -0.6136
  172DOPC    HA20924   1.006   4.718  13.294  1.1547  0.4646  0.7145
  172DOPC    HB20925   0.937   4.635  13.432 -1.8341  0.0883  0.1781
  172DOPC    C220926   0.874   4.847  13.405  0.1869  0.5415 -0.6886
  172DOPC    HS20927   0.854   4.906  13.313 -0.5835 -1.6051 -1.9637
  172DOPC   O2120928   0.994   4.899  13.464 -0.0950  0.2781 -0.3323
  172DOPC   C2120929   0.991   5.026  13.499  0.3878 -0.0762 -0.1220
  172DOPC   O2220930   0.903   5.103  13.463 -0.4034  0.0395  0.1611
  172DOPC   C2220931   1.110   5.063  13.581 -0.4945 -0.2761  0.2654
  172DOPC   H2R20932   1.101   5.174  13.577  1.0801 -0.1531 -0.8807
  172DOPC   H2S20933   1.202   5.023  13.532 -0.4370  0.6690 -0.4267
  172DOPC    C320934   0.757   4.848  13.502 -0.1577  0.3484  0.7505
  172DOPC    HX20935   0.684   4.781  13.452 -1.5680  1.4829  1.2104
  172DOPC    HY20936   0.710   4.948  13.515 -1.4594 -0.0694 -0.4828
  172DOPC   O3120937   0.795   4.793  13.632 -0.3487  0.0863 -0.4287
  172DOPC   C3120938   0.696   4.740  13.696  0.3880  0.1521 -0.3943
  172DOPC   O3220939   0.578   4.740  13.655  0.0065 -0.0278 -0.5835
  172DOPC   C3220940   0.734   4.692  13.840  0.0937 -0.7358  0.2005
  172DOPC   H2X20941   0.637   4.696  13.894 -0.0823  2.0846 -0.1561
  172DOPC   H2Y20942   0.757   4.584  13.830 -0.5906 -0.8890  0.2639
  172DOPC   C2320943   1.109   5.000  13.721 -0.6164 -0.2684 -0.0835
  172DOPC   H3R20944   1.131   4.892  13.714  1.7850  0.2056 -0.8664
  172DOPC   H3S20945   1.009   5.021  13.765 -0.4023  0.1698  0.2001
  172DOPC   C2420946   1.213   5.056  13.817 -0.1802  0.3744  0.0042
  172DOPC   H4R20947   1.198   5.166  13.818  0.2762  0.4353  0.4262
  172DOPC   H4S20948   1.309   5.041  13.763 -1.0510  0.0247 -1.5012
  172DOPC   C2520949   1.203   5.000  13.961 -0.5364 -0.5888 -0.0394
  172DOPC   H5R20950   1.216   4.889  13.957  1.6001 -0.6173  3.5610
  172DOPC   H5S20951   1.100   5.027  13.993 -0.8596 -2.8426  1.0009
  172DOPC   C2620952   1.319   5.036  14.064 -0.3264  0.2899 -0.0140
  172DOPC   H6R20953   1.292   5.138  14.098 -1.7768  1.1110 -3.2489
  172DOPC   H6S20954   1.419   5.035  14.014  0.5732 -2.6057  1.5760
  172DOPC   C2720955   1.313   4.930  14.171 -1.1652 -0.5897  0.2412
  172DOPC   H7R20956   1.333   4.830  14.126 -0.9312 -1.6313  2.4931
  172DOPC   H7S20957   1.209   4.929  14.210 -1.9142  1.0018 -1.5766
  172DOPC   C2820958   1.426   4.939  14.273  0.1086 -0.0960 -1.0206
  172DOPC   H8R20959   1.445   5.046  14.295 -2.0314  0.2229 -0.4448
  172DOPC   H8S20960   1.507   4.902  14.207  0.3665  0.4501 -1.0156
  172DOPC   C2920961   1.397   4.844  14.390 -0.3434 -0.0717 -0.5680
  172DOPC   H9R20962   1.401   4.737  14.366 -1.0655 -0.2647  0.1486
  172DOPC  C21020963   1.343   4.881  14.512  0.2595 -0.0875  0.8114
  172DOPC  H10R20964   1.336   4.809  14.594  0.2562 -0.0462  0.8482
  172DOPC  C21120965   1.311   5.029  14.544 -0.0156 -0.1302  0.4188
  172DOPC  H11R20966   1.214   5.063  14.501 -0.0117  0.0285  0.5365
  172DOPC  H11S20967   1.397   5.091  14.510 -0.4229  0.0510 -0.3060
  172DOPC  C21220968   1.310   5.038  14.697 -0.5883  0.4868  0.2395
  172DOPC  H12R20969   1.415   5.011  14.722 -1.8412 -2.5518  2.8663
  172DOPC  H12S20970   1.237   4.963  14.733 -0.4500  1.0922  1.8498
  172DOPC  C21320971   1.258   5.170  14.752  0.0865  0.8935  0.4264
  172DOPC  H13R20972   1.151   5.183  14.724 -0.2087 -2.0345 -0.0979
  172DOPC  H13S20973   1.311   5.253  14.700 -2.4096  1.9037 -0.6891
  172DOPC  C21420974   1.285   5.183  14.902  0.3090 -0.3838  0.3900
  172DOPC  H14R20975   1.262   5.288  14.931 -2.3092 -1.0498  1.0511
  172DOPC  H14S20976   1.391   5.166  14.927  0.8075 -0.4945 -1.6258
  172DOPC  C21520977   1.192   5.095  14.996  0.3052 -0.3830 -0.0032
  172DOPC  H15R20978   1.238   4.995  15.008  0.0021 -0.5457 -0.1646
  172DOPC  H15S20979   1.089   5.085  14.956  0.4518 -1.1735 -0.1981
  172DOPC  C21620980   1.175   5.155  15.136 -0.2646 -0.4850  0.4952
  172DOPC  H16R20981   1.276   5.182  15.175 -0.0890 -0.5734  0.1128
  172DOPC  H16S20982   1.120   5.085  15.202 -1.6244 -0.1035 -0.2065
  172DOPC  C21720983   1.091   5.286  15.139  0.7563  0.3400  0.4232
  172DOPC  H17R20984   0.999   5.268  15.080 -0.9523  3.9350  1.6490
  172DOPC  H17S20985   1.142   5.365  15.079  1.0284 -1.0903 -1.3027
  172DOPC  C21820986   1.050   5.338  15.279 -0.6165 -0.0899  0.3581
  172DOPC  H18R20987   0.991   5.265  15.338 -0.4455 -1.3563 -0.9922
  172DOPC  H18S20988   0.989   5.430  15.261 -0.8988 -0.2305  0.5810
  172DOPC  H18T20989   1.130   5.354  15.354 -3.0448  2.5287  2.6870
  172DOPC   C3320990   0.872   4.740  13.903 -0.0766  0.0395  0.6421
  172DOPC   H3X20991   0.871   4.851  13.911 -0.4864 -0.0139  1.3801
  172DOPC   H3Y20992   0.955   4.703  13.839 -2.3609 -2.7096 -0.9754
  172DOPC   C3420993   0.887   4.688  14.050  0.8212 -0.4232 -0.1730
  172DOPC   H4X20994   0.886   4.577  14.039 -1.5339 -0.4757  0.0368
  172DOPC   H4Y20995   0.798   4.713  14.112  0.5896  1.7144 -1.2727
  172DOPC   C3520996   1.005   4.746  14.121 -0.3098 -0.5192  0.4526
  172DOPC   H5X20997   0.975   4.852  14.122 -1.1680 -0.7495  0.0421
  172DOPC   H5Y20998   1.106   4.740  14.074 -0.0768  0.7135  0.7607
  172DOPC   C3620999   1.030   4.704  14.265 -0.3698  0.2897 -0.1420
  172DOPC   H6X21000   1.104   4.779  14.302 -1.1016 -0.2463  2.6533
  172DOPC   H6Y21001   0.936   4.725  14.321 -0.2432  0.9375 -0.1659
  172DOPC   C3721002   1.087   4.562  14.284  0.6767  0.5537  0.1641
  172DOPC   H7X21003   1.020   4.481  14.250  0.9091 -0.0141  1.0311
  172DOPC   H7Y21004   1.172   4.547  14.214  1.9420 -2.7827  2.1592
  172DOPC   C3821005   1.135   4.539  14.428 -1.4786  0.4032 -0.2433
  172DOPC   H8X21006   1.052   4.524  14.500 -0.9268 -0.1821  0.2888
  172DOPC   H8Y21007   1.213   4.613  14.457 -0.4891  0.1176 -2.0395
  172DOPC   C3921008   1.212   4.410  14.424 -0.1758  0.1614  0.4402
  172DOPC   H9X21009   1.165   4.344  14.349  0.7023  0.9612 -0.8523
  172DOPC  C31021010   1.325   4.379  14.489 -0.4371 -0.6927 -0.2594
  172DOPC  H10X21011   1.370   4.281  14.468 -0.3063 -0.3225 -1.8220
  172DOPC  C31121012   1.410   4.463  14.586 -1.1944  0.2692 -0.0457
  172DOPC  H11X21013   1.423   4.572  14.570  3.8907  0.2481  1.9981
  172DOPC  H11Y21014   1.517   4.432  14.580 -0.8393  1.2925  0.7114
  172DOPC  C31221015   1.366   4.453  14.735 -0.0504  0.0895  0.0787
  172DOPC  H12X21016   1.355   4.344  14.754 -0.2030 -0.5608 -3.0938
  172DOPC  H12Y21017   1.268   4.506  14.732  0.5929  1.3255 -2.7271
  172DOPC  C31321018   1.460   4.531  14.831  0.0444  0.0272  0.2222
  172DOPC  H13X21019   1.556   4.476  14.819  0.9521  1.0430  2.2896
  172DOPC  H13Y21020   1.472   4.638  14.804  1.8020  0.3787  2.1508
  172DOPC  C31421021   1.414   4.511  14.975  0.6352 -0.0076  0.0465
  172DOPC  H14X21022   1.348   4.592  15.012 -0.4247 -0.4252 -0.8625
  172DOPC  H14Y21023   1.360   4.414  14.981  2.3510 -0.8984  2.3171
  172DOPC  C31521024   1.534   4.511  15.073 -0.2901  0.1328 -0.2211
  172DOPC  H15X21025   1.605   4.595  15.061  2.4043 -1.5860  2.3853
  172DOPC  H15Y21026   1.596   4.421  15.054  0.0413  0.3115  0.0006
  172DOPC  C31621027   1.488   4.520  15.219  0.0499  0.2779 -0.2549
  172DOPC  H16X21028   1.449   4.623  15.230  0.4303  0.3451  0.5641
  172DOPC  H16Y21029   1.406   4.446  15.208  1.0505 -0.9530  0.3440
  172DOPC  C31721030   1.578   4.492  15.340  0.2295 -0.1790  1.3060
  172DOPC  H17X21031   1.524   4.512  15.434 -1.2865 -1.2413  0.6921
  172DOPC  H17Y21032   1.622   4.391  15.327 -1.1969 -0.5168 -1.7851
  172DOPC  C31821033   1.695   4.596  15.336  0.1207 -0.4358 -0.4507
  172DOPC  H18X21034   1.758   4.580  15.426  2.0404 -0.7025 -1.7730
  172DOPC  H18Y21035   1.754   4.593  15.241 -2.3430  0.7053 -2.1394
  172DOPC  H18Z21036   1.653   4.699  15.340  0.4378 -0.3454  0.9223
  173DOPC     N21037   1.584   1.917  13.222  0.3168  0.0099  1.0714
  173DOPC   C1221038   1.507   1.983  13.107  0.9582 -0.3283  0.2833
  173DOPC  H12A21039   1.474   1.916  13.029  1.3217 -0.8696  0.5870
  173DOPC  H12B21040   1.568   2.058  13.058 -0.9366  1.2098  0.1160
  173DOPC   C1321041   1.500   1.816  13.297  0.0715  0.3169  0.9733
  173DOPC  H13A21042   1.462   1.742  13.229 -4.1845  0.8157  2.5586
  173DOPC  H13B21043   1.572   1.769  13.362  0.6283  0.0382  0.1777
  173DOPC  H13C21044   1.414   1.863  13.342 -0.6284 -0.5404  0.5623
  173DOPC   C1421045   1.638   2.023  13.315 -0.5833 -0.3211 -0.1710
  173DOPC  H14A21046   1.724   2.070  13.270 -0.7619  0.3001  0.1315
  173DOPC  H14B21047   1.558   2.095  13.324  0.1395  0.7562 -1.8665
  173DOPC  H14C21048   1.667   1.977  13.408 -0.9546 -3.1538 -1.3495
  173DOPC   C1521049   1.696   1.839  13.164  0.0986 -0.8693 -0.6161
  173DOPC  H15A21050   1.744   1.898  13.087 -0.7233  0.9124  0.1944
  173DOPC  H15B21051   1.662   1.743  13.129  0.8713 -1.1775 -0.5452
  173DOPC  H15C21052   1.765   1.818  13.245 -0.3292 -1.7047 -0.4564
  173DOPC   C1121053   1.372   2.059  13.149 -0.4682  0.2314 -0.2372
  173DOPC  H11A21054   1.327   2.086  13.051 -1.7403  0.7622  0.4704
  173DOPC  H11B21055   1.294   1.994  13.194  0.7980 -1.0083  0.2464
  173DOPC     P21056   1.306   2.302  13.240  0.0189 -0.1651 -0.3199
  173DOPC   O1321057   1.174   2.274  13.176  0.3236  0.2058  0.1650
  173DOPC   O1421058   1.383   2.411  13.170  0.2200  0.6587 -0.2446
  173DOPC   O1221059   1.400   2.172  13.227  0.3098  0.3134  0.1661
  173DOPC   O1121060   1.283   2.348  13.389 -0.4056 -0.1516 -0.1740
  173DOPC    C121061   1.299   2.265  13.505  0.1003 -0.2133 -0.5307
  173DOPC    HA21062   1.278   2.332  13.592 -0.1133 -0.6120 -0.2717
  173DOPC    HB21063   1.402   2.227  13.523  0.1590  0.8283  1.6736
  173DOPC    C221064   1.202   2.150  13.521  0.7207 -0.2621  0.3089
  173DOPC    HS21065   1.207   2.080  13.435 -1.1156 -0.8637  0.6505
  173DOPC   O2121066   1.071   2.211  13.544  0.2201 -0.6470  0.1413
  173DOPC   C2121067   0.971   2.133  13.515  0.5237 -0.1545  0.8265
  173DOPC   O2221068   0.972   2.024  13.452 -0.4540  0.0023 -0.2399
  173DOPC   C2221069   0.852   2.192  13.573  0.2304  1.0362 -1.2419
  173DOPC   H2R21070   0.772   2.165  13.500  0.5001 -0.9669 -0.8521
  173DOPC   H2S21071   0.853   2.302  13.587  0.4533  0.6961  2.1218
  173DOPC    C321072   1.244   2.066  13.646 -0.2515  0.5876 -0.0830
  173DOPC    HX21073   1.222   2.138  13.728  0.9010 -1.5412  2.2233
  173DOPC    HY21074   1.352   2.040  13.646  0.6366  3.7466 -0.5039
  173DOPC   O3121075   1.169   1.949  13.662  0.4312  0.1684 -0.8075
  173DOPC   C3121076   1.209   1.847  13.585 -0.1814  0.1586  0.1259
  173DOPC   O3221077   1.311   1.841  13.519 -0.2805 -0.3250 -0.9917
  173DOPC   C3221078   1.119   1.724  13.604  0.6823  0.3024 -0.2907
  173DOPC   H2X21079   1.010   1.734  13.584  0.3661 -0.1406  1.1107
  173DOPC   H2Y21080   1.156   1.648  13.533  0.6185 -1.0366  1.0611
  173DOPC   C2321081   0.821   2.126  13.708  0.0695 -0.7411  1.0485
  173DOPC   H3R21082   0.874   2.176  13.792  0.6448 -2.7135  1.9415
  173DOPC   H3S21083   0.837   2.016  13.711  0.1834 -0.8400 -1.4242
  173DOPC   C2421084   0.670   2.141  13.723 -0.1594  0.2382  0.1562
  173DOPC   H4R21085   0.632   2.071  13.646 -2.8155  1.7144  0.0262
  173DOPC   H4S21086   0.641   2.246  13.698  0.0379  0.4298  0.6993
  173DOPC   C2521087   0.628   2.115  13.870 -0.0106  0.2788 -0.0536
  173DOPC   H5R21088   0.665   2.012  13.887 -0.4417  0.3017  1.1531
  173DOPC   H5S21089   0.517   2.114  13.870 -0.0690  2.4053 -0.9370
  173DOPC   C2621090   0.677   2.219  13.982  0.2043 -0.0880  0.7342
  173DOPC   H6R21091   0.636   2.321  13.970  2.0816  0.5103 -1.3236
  173DOPC   H6S21092   0.788   2.223  13.989  0.2542 -0.6851  0.3998
  173DOPC   C2721093   0.623   2.163  14.115 -0.1660  0.0327  0.0397
  173DOPC   H7R21094   0.694   2.078  14.124  2.8585  2.3267 -0.0958
  173DOPC   H7S21095   0.519   2.126  14.106 -0.2563  0.4592 -0.7134
  173DOPC   C2821096   0.656   2.256  14.227  0.1750 -0.7862  0.7597
  173DOPC   H8R21097   0.580   2.338  14.218  0.4603 -0.3655  2.0357
  173DOPC   H8S21098   0.751   2.304  14.195 -0.5650 -1.0336 -2.0643
  173DOPC   C2921099   0.644   2.199  14.363 -0.2162 -0.0636 -0.0042
  173DOPC   H9R21100   0.540   2.184  14.395 -0.0527 -1.9277 -0.2332
  173DOPC  C21021101   0.754   2.181  14.448  0.2912  0.4294  0.5160
  173DOPC  H10R21102   0.722   2.144  14.546 -0.5487 -0.2629 -0.0016
  173DOPC  C21121103   0.897   2.213  14.434  0.0241 -0.4169  0.3354
  173DOPC  H11R21104   0.942   2.169  14.342 -0.4949 -3.8867  1.5767
  173DOPC  H11S21105   0.950   2.147  14.506 -0.0904 -0.3951  0.4396
  173DOPC  C21221106   0.936   2.358  14.466  0.2881 -0.4188  0.3501
  173DOPC  H12R21107   0.882   2.402  14.553 -1.8943  0.4592 -1.3324
  173DOPC  H12S21108   0.902   2.415  14.376 -0.8381  1.7382  2.0434
  173DOPC  C21321109   1.081   2.387  14.483 -0.6049  0.2949  0.2794
  173DOPC  H13R21110   1.100   2.494  14.502  0.6545 -0.0113  0.7910
  173DOPC  H13S21111   1.144   2.364  14.394 -0.0042  2.8167 -0.0291
  173DOPC  C21421112   1.149   2.315  14.609 -0.5710 -0.3793  0.0533
  173DOPC  H14R21113   1.140   2.205  14.601 -1.9049 -0.1658 -2.3483
  173DOPC  H14S21114   1.086   2.340  14.697 -0.6252  0.3061 -0.1721
  173DOPC  C21521115   1.296   2.355  14.626  0.6485 -0.0069 -0.0242
  173DOPC  H15R21116   1.294   2.465  14.619  0.3041  0.0284  0.5852
  173DOPC  H15S21117   1.352   2.315  14.539 -0.5288  2.2578 -1.9431
  173DOPC  C21621118   1.365   2.305  14.753 -0.4417 -0.1216 -0.1648
  173DOPC  H16R21119   1.360   2.201  14.792  1.1505 -0.8847 -1.8666
  173DOPC  H16S21120   1.301   2.356  14.829 -1.5844 -1.3328 -0.2622
  173DOPC  C21721121   1.511   2.344  14.775 -0.1664 -0.1849  0.6417
  173DOPC  H17R21122   1.524   2.343  14.886 -0.7054 -1.1532  0.7118
  173DOPC  H17S21123   1.529   2.447  14.740  1.0248 -0.7726 -0.5709
  173DOPC  C21821124   1.617   2.255  14.707  0.2233 -0.1531 -0.9563
  173DOPC  H18R21125   1.586   2.239  14.601  0.1695  0.7308 -1.0831
  173DOPC  H18S21126   1.613   2.161  14.766 -0.7584  1.0304  0.9440
  173DOPC  H18T21127   1.721   2.293  14.719  0.0139 -0.4103  2.8948
  173DOPC   C3321128   1.139   1.663  13.746 -0.3578 -0.1895  0.0510
  173DOPC   H3X21129   1.243   1.671  13.785 -0.3961 -1.2815  0.3938
  173DOPC   H3Y21130   1.120   1.554  13.748  1.3356 -0.5178  2.3570
  173DOPC   C3421131   1.034   1.723  13.835 -0.1998 -0.7123  0.3050
  173DOPC   H4X21132   0.943   1.728  13.771 -0.7065 -0.9175  1.0095
  173DOPC   H4Y21133   1.064   1.822  13.875  0.0282 -0.2143 -1.0493
  173DOPC   C3521134   0.993   1.633  13.952 -0.9184 -0.8774 -0.6476
  173DOPC   H5X21135   0.992   1.526  13.921  1.7296 -1.3263  0.5209
  173DOPC   H5Y21136   0.887   1.664  13.964 -0.5396 -0.0106  0.7614
  173DOPC   C3621137   1.085   1.647  14.072  1.0290 -0.2357  0.1163
  173DOPC   H6X21138   1.190   1.616  14.055  0.3644 -3.0361  0.4640
  173DOPC   H6Y21139   1.086   1.754  14.101 -0.5026 -0.6907  2.0950
  173DOPC   C3721140   1.037   1.565  14.186 -0.5423  0.1310 -0.3785
  173DOPC   H7X21141   1.054   1.456  14.172  0.1645  0.0116  1.2187
  173DOPC   H7Y21142   1.088   1.586  14.283 -1.0699 -1.1979  0.2184
  173DOPC   C3821143   0.885   1.571  14.225 -0.1307 -0.0729  0.1100
  173DOPC   H8X21144   0.871   1.508  14.315  1.5605  1.2919  1.3985
  173DOPC   H8Y21145   0.830   1.522  14.142  0.2711  1.5675 -1.1637
  173DOPC   C3921146   0.834   1.711  14.251  0.0282 -0.4730 -0.5010
  173DOPC   H9X21147   0.833   1.777  14.162  0.3313  0.3269  0.0827
  173DOPC  C31021148   0.785   1.770  14.363  0.6583 -0.0696 -0.2439
  173DOPC  H10X21149   0.754   1.875  14.369 -0.3926 -0.3458 -0.6270
  173DOPC  C31121150   0.764   1.705  14.504  0.9597  0.0887  0.7678
  173DOPC  H11X21151   0.808   1.604  14.514 -1.6505 -1.1983  0.1009
  173DOPC  H11Y21152   0.656   1.688  14.521  1.2322 -0.1991  2.4342
  173DOPC  C31221153   0.804   1.789  14.624 -0.4998 -0.4059  0.0540
  173DOPC  H12X21154   0.771   1.734  14.715  0.0264  0.8956  1.0739
  173DOPC  H12Y21155   0.759   1.891  14.624  1.3532  0.4680 -0.8926
  173DOPC  C31321156   0.957   1.797  14.635  0.2188  0.5199 -0.2020
  173DOPC  H13X21157   1.008   1.700  14.620 -1.1653 -0.5305  1.4985
  173DOPC  H13Y21158   1.002   1.859  14.554 -2.6777  1.1537 -1.4637
  173DOPC  C31421159   1.003   1.847  14.778  0.1662 -0.2441  0.9287
  173DOPC  H14X21160   0.935   1.823  14.862  0.9212  1.3072  2.0464
  173DOPC  H14Y21161   1.097   1.795  14.806  0.5755  0.0294  0.1076
  173DOPC  C31521162   1.053   1.994  14.772 -0.0623  0.3209 -0.6672
  173DOPC  H15X21163   0.979   2.064  14.728  0.0079  0.8387  0.0166
  173DOPC  H15Y21164   1.136   1.996  14.698  0.8599 -1.0401  0.2820
  173DOPC  C31621165   1.112   2.053  14.899 -0.0993 -0.0077  0.6898
  173DOPC  H16X21166   1.184   2.134  14.874  2.7136 -2.9926 -1.7085
  173DOPC  H16Y21167   1.029   2.086  14.966 -0.7540 -3.1539  1.5867
  173DOPC  C31721168   1.189   1.962  14.994 -0.4341  0.5566 -0.2393
  173DOPC  H17X21169   1.127   1.880  15.036 -0.2243  0.9368  0.8521
  173DOPC  H17Y21170   1.278   1.926  14.938  0.7471  3.5788 -0.5093
  173DOPC  C31821171   1.240   2.036  15.125 -0.0633  0.3299 -0.2598
  173DOPC  H18X21172   1.166   2.096  15.181  1.6055 -0.0940  2.5807
  173DOPC  H18Y21173   1.271   1.960  15.201 -1.0772 -0.9657 -1.0975
  173DOPC  H18Z21174   1.326   2.101  15.100 -0.2842  1.4439  1.7055
  174DOPC     N21175   4.638   3.095  12.849  0.4634  0.5120  0.7544
  174DOPC   C1221176   4.712   3.120  12.980  0.7445  0.1769  0.0842
  174DOPC  H12A21177   4.749   3.220  12.966 -1.4145  0.9461 -0.5563
  174DOPC  H12B21178   4.802   3.061  12.976  1.5540  1.4336 -1.7537
  174DOPC   C1321179   4.553   2.969  12.862  0.2540 -0.3645 -0.5317
  174DOPC  H13A21180   4.495   2.953  12.772  0.6765 -1.1166 -0.6777
  174DOPC  H13B21181   4.609   2.878  12.873 -1.2791 -1.1100  1.6670
  174DOPC  H13C21182   4.487   2.978  12.946  0.0579  1.4484 -0.8310
  174DOPC   C1421183   4.744   3.071  12.737  0.0988 -0.5257  0.5256
  174DOPC  H14A21184   4.805   3.156  12.712  0.7330 -1.5466 -1.6629
  174DOPC  H14B21185   4.806   2.987  12.765 -0.9412 -1.4654  0.1169
  174DOPC  H14C21186   4.692   3.036  12.649  0.1583 -3.0771  1.4358
  174DOPC   C1521187   4.553   3.225  12.808  0.2817  0.4149  0.1234
  174DOPC  H15A21188   4.611   3.312  12.782 -3.4232  2.8616 -0.7940
  174DOPC  H15B21189   4.494   3.257  12.893 -0.8514 -1.2951  0.0310
  174DOPC  H15C21190   4.490   3.194  12.727  2.2418 -1.0878 -0.9057
  174DOPC   C1121191   4.640   3.113  13.114 -0.0684 -0.2179 -0.6913
  174DOPC  H11A21192   4.609   3.008  13.129 -0.6103  0.1161  0.7005
  174DOPC  H11B21193   4.702   3.140  13.202 -2.6801 -2.1509  1.9656
  174DOPC     P21194   4.477   3.302  13.208 -0.2685 -0.0317  0.0246
  174DOPC   O1321195   4.333   3.335  13.180 -0.3676  0.2147  0.3963
  174DOPC   O1421196   4.571   3.414  13.189 -0.2078 -0.1312 -0.1016
  174DOPC   O1221197   4.519   3.194  13.109  0.0260 -0.2185  0.4996
  174DOPC   O1121198   4.491   3.241  13.350 -0.3995 -0.1770 -0.0196
  174DOPC    C121199   4.416   3.128  13.387 -0.0640  0.0113  0.1395
  174DOPC    HA21200   4.479   3.037  13.398 -0.0468 -0.2036 -1.4722
  174DOPC    HB21201   4.342   3.094  13.311 -1.4855  0.8019  1.1350
  174DOPC    C221202   4.338   3.154  13.518 -0.2105  0.3091  0.1257
  174DOPC    HS21203   4.268   3.070  13.539  1.0463 -1.5173 -2.4649
  174DOPC   O2121204   4.255   3.271  13.513 -0.1798 -0.6451  0.0221
  174DOPC   C2121205   4.153   3.256  13.436  0.6863 -0.3309  0.2736
  174DOPC   O2221206   4.124   3.155  13.375  0.0032  0.5002 -0.1163
  174DOPC   C2221207   4.066   3.382  13.422  0.4384 -0.4307  0.5749
  174DOPC   H2R21208   4.105   3.436  13.333 -0.8485  0.0366  0.2852
  174DOPC   H2S21209   4.079   3.448  13.510  1.1159 -0.4164  0.4673
  174DOPC    C321210   4.440   3.166  13.627 -0.1369  0.4301 -0.4154
  174DOPC    HX21211   4.493   3.262  13.613  3.4868 -1.5537 -1.6055
  174DOPC    HY21212   4.519   3.087  13.621  0.2364  0.8797 -1.6735
  174DOPC   O3121213   4.386   3.158  13.765 -0.0988  0.0783  0.1985
  174DOPC   C3121214   4.325   3.045  13.788  0.2627  0.1806 -0.9418
  174DOPC   O3221215   4.327   2.939  13.727 -0.3080  0.0309 -0.3879
  174DOPC   C3221216   4.233   3.067  13.908 -0.3897  0.4130  0.0552
  174DOPC   H2X21217   4.302   3.046  13.993 -1.4056 -1.3947  0.4817
  174DOPC   H2Y21218   4.191   3.169  13.919 -2.0042 -0.3179  1.0072
  174DOPC   C2321219   3.918   3.344  13.388  0.4172 -0.0500 -0.4303
  174DOPC   H3R21220   3.915   3.259  13.316  1.2853  0.3173 -0.9141
  174DOPC   H3S21221   3.870   3.426  13.330  0.8403  0.8918  0.5259
  174DOPC   C2421222   3.829   3.307  13.516  0.4353 -0.1305  0.3633
  174DOPC   H4R21223   3.883   3.226  13.571  1.4038  0.3640  0.1513
  174DOPC   H4S21224   3.731   3.272  13.476 -0.5071  0.0020  2.4099
  174DOPC   C2521225   3.810   3.429  13.604 -0.1614  0.2671  0.2133
  174DOPC   H5R21226   3.803   3.519  13.539  0.6559  1.9722  2.3659
  174DOPC   H5S21227   3.905   3.436  13.661  0.2932 -3.9423  0.2834
  174DOPC   C2621228   3.691   3.416  13.703 -0.2417  0.3035  0.5115
  174DOPC   H6R21229   3.696   3.314  13.747 -0.3069  0.6103  1.2579
  174DOPC   H6S21230   3.593   3.414  13.650 -0.8406 -1.4096  1.5872
  174DOPC   C2721231   3.697   3.520  13.811  0.0401 -0.0621  0.5595
  174DOPC   H7R21232   3.608   3.512  13.877 -0.6713  1.2468 -0.2122
  174DOPC   H7S21233   3.690   3.625  13.777  0.7608  0.4322  1.8568
  174DOPC   C2821234   3.810   3.516  13.916 -0.1232 -0.1513 -0.3108
  174DOPC   H8R21235   3.791   3.607  13.977  1.7802  0.9928 -1.3317
  174DOPC   H8S21236   3.906   3.537  13.864  0.4936 -0.0179  0.8450
  174DOPC   C2921237   3.814   3.390  13.996 -0.0033 -0.4770 -0.3351
  174DOPC   H9R21238   3.744   3.314  13.959  0.4977 -0.2472 -1.8336
  174DOPC  C21021239   3.888   3.363  14.103 -0.9175  0.0833 -0.0798
  174DOPC  H10R21240   3.861   3.269  14.154  0.9229 -0.1037  0.6248
  174DOPC  C21121241   3.985   3.458  14.171 -0.1175  0.8963 -0.8075
  174DOPC  H11R21242   4.047   3.524  14.106  1.4283 -0.4827 -0.7991
  174DOPC  H11S21243   4.064   3.400  14.223 -1.4638 -2.8281 -2.5614
  174DOPC  C21221244   3.910   3.535  14.278 -0.2076  0.4205 -0.2913
  174DOPC  H12R21245   3.822   3.586  14.234 -0.5222  1.0110  0.9718
  174DOPC  H12S21246   3.970   3.614  14.329 -0.2644  1.1389 -1.3165
  174DOPC  C21321247   3.844   3.443  14.382 -0.1956  0.1205 -0.9396
  174DOPC  H13R21248   3.930   3.398  14.436  0.3281  2.6240  0.4908
  174DOPC  H13S21249   3.782   3.355  14.355 -0.2298 -0.2575  0.2953
  174DOPC  C21421250   3.762   3.516  14.482  0.0275 -0.4805 -0.0079
  174DOPC  H14R21251   3.700   3.587  14.423  0.8802  0.2805 -0.0113
  174DOPC  H14S21252   3.838   3.585  14.523 -0.0554  0.3148 -1.1755
  174DOPC  C21521253   3.675   3.441  14.583  0.2518  0.2944 -0.2068
  174DOPC  H15R21254   3.625   3.357  14.530 -1.8722  1.7251 -0.5850
  174DOPC  H15S21255   3.595   3.507  14.621  0.9098  0.7050  0.4794
  174DOPC  C21621256   3.749   3.373  14.694 -0.5728 -1.0589 -0.2724
  174DOPC  H16R21257   3.813   3.296  14.647 -1.6342 -0.2700 -3.2186
  174DOPC  H16S21258   3.677   3.319  14.759  0.5199 -1.2558  0.7936
  174DOPC  C21721259   3.848   3.461  14.773  0.1665 -0.5714  0.3455
  174DOPC  H17R21260   3.925   3.519  14.717 -0.9012 -0.5291 -1.1662
  174DOPC  H17S21261   3.903   3.398  14.846  2.4234  1.0672  0.1445
  174DOPC  C21821262   3.769   3.567  14.855 -0.0468  0.0314 -0.7515
  174DOPC  H18R21263   3.709   3.629  14.785 -0.2239 -0.5938 -1.1630
  174DOPC  H18S21264   3.842   3.630  14.908  0.4278 -0.9865 -0.1603
  174DOPC  H18T21265   3.705   3.508  14.923  1.2636 -2.1032 -1.2662
  174DOPC   C3321266   4.121   2.954  13.920  0.1004 -0.3676 -0.2855
  174DOPC   H3X21267   4.166   2.854  13.900  1.1294  0.2340 -1.0632
  174DOPC   H3Y21268   4.043   2.974  13.844 -0.0745  1.6041  0.3581
  174DOPC   C3421269   4.055   2.950  14.055 -0.4330 -0.0789  0.0177
  174DOPC   H4X21270   3.970   2.878  14.049 -0.1574 -0.5004  0.9826
  174DOPC   H4Y21271   4.005   3.048  14.064  2.6644  1.6721 -0.4162
  174DOPC   C3521272   4.152   2.932  14.172  0.0806 -0.4360  0.1066
  174DOPC   H5X21273   4.221   3.018  14.172 -0.0248 -0.3520 -0.1123
  174DOPC   H5Y21274   4.222   2.845  14.167  1.2000  0.4887 -0.7320
  174DOPC   C3621275   4.083   2.943  14.303  0.1616  0.4925 -0.6664
  174DOPC   H6X21276   4.033   3.041  14.315 -1.6354 -0.5633  1.0197
  174DOPC   H6Y21277   4.011   2.858  14.307  1.0086 -0.3850 -2.4433
  174DOPC   C3721278   4.185   2.938  14.424 -0.1790 -0.0349 -0.1014
  174DOPC   H7X21279   4.251   2.849  14.417  2.2029  1.7166 -1.0699
  174DOPC   H7Y21280   4.250   3.028  14.429 -1.5855  1.0216 -0.2526
  174DOPC   C3821281   4.116   2.933  14.564  0.4835  0.5176 -0.4865
  174DOPC   H8X21282   4.192   2.979  14.631 -1.5831  2.8762  0.3673
  174DOPC   H8Y21283   4.119   2.824  14.588  0.2188  0.5992 -0.0660
  174DOPC   C3921284   3.979   2.995  14.584  0.3441 -0.0177  0.2208
  174DOPC   H9X21285   3.950   3.079  14.519  2.0585  0.7098  0.3510
  174DOPC  C31021286   3.901   2.967  14.693 -0.3400 -0.3872  0.5878
  174DOPC  H10X21287   3.800   3.011  14.697 -0.1504  0.4959 -2.2090
  174DOPC  C31121288   3.940   2.877  14.805  0.0396  0.6678  0.1560
  174DOPC  H11X21289   3.927   2.939  14.896  0.3083  2.9415 -1.2663
  174DOPC  H11Y21290   4.047   2.849  14.808  0.9158  3.6252 -0.1635
  174DOPC  C31221291   3.872   2.740  14.813  0.2855  0.1879  0.0377
  174DOPC  H12X21292   3.878   2.698  14.710  1.0115 -0.7301  0.4478
  174DOPC  H12Y21293   3.768   2.763  14.844  0.1589  2.8316 -1.9459
  174DOPC  C31321294   3.955   2.658  14.917 -0.3384  0.3214  0.3155
  174DOPC  H13X21295   4.062   2.657  14.886 -0.2866 -0.6485  0.4770
  174DOPC  H13Y21296   3.946   2.712  15.013 -2.4719  1.6411 -0.5396
  174DOPC  C31421297   3.904   2.516  14.932  0.8296 -0.3180  0.0257
  174DOPC  H14X21298   3.798   2.531  14.962  1.6202  0.1796  2.8867
  174DOPC  H14Y21299   3.905   2.456  14.838 -2.3368 -2.0935  0.9541
  174DOPC  C31521300   3.976   2.434  15.045 -0.8556 -0.5987  0.3406
  174DOPC  H15X21301   3.906   2.358  15.086  0.8460 -1.9544  0.8301
  174DOPC  H15Y21302   3.995   2.502  15.131  0.6094 -1.4349  0.7028
  174DOPC  C31621303   4.107   2.371  15.007  0.0483  0.6746  0.0256
  174DOPC  H16X21304   4.086   2.297  14.926 -2.9703  0.1956  1.0969
  174DOPC  H16Y21305   4.171   2.444  14.954  1.1014 -0.1114  0.1846
  174DOPC  C31721306   4.185   2.312  15.125  0.0723  0.1928  0.0405
  174DOPC  H17X21307   4.192   2.398  15.195  0.1539  0.8313 -0.7367
  174DOPC  H17Y21308   4.121   2.233  15.169 -1.8843  1.7108  0.0557
  174DOPC  C31821309   4.327   2.259  15.103  0.1460  0.0380 -0.5749
  174DOPC  H18X21310   4.328   2.178  15.027 -1.9335  0.9777 -1.6924
  174DOPC  H18Y21311   4.387   2.345  15.068 -0.5513  0.5812 -0.4692
  174DOPC  H18Z21312   4.359   2.217  15.201  1.7023  0.6643 -0.7877
  175DOPC     N21313   2.457   6.471  12.748 -0.3071 -0.1195  0.9944
  175DOPC   C1221314   2.471   6.462  12.902 -0.0970 -0.0226 -0.3272
  175DOPC  H12A21315   2.424   6.550  12.944  0.7030  0.7502 -1.0297
  175DOPC  H12B21316   2.577   6.459  12.920 -0.1741 -0.7232  0.0493
  175DOPC   C1321317   2.528   6.587  12.686  0.4037  0.4894  0.2126
  175DOPC  H13A21318   2.634   6.584  12.708  0.2397 -0.3671  0.9544
  175DOPC  H13B21319   2.519   6.583  12.579  0.0041  1.0420  0.2175
  175DOPC  H13C21320   2.488   6.678  12.729 -3.1307 -0.9684  0.3077
  175DOPC   C1421321   2.316   6.482  12.712 -0.4311 -0.3255 -0.1585
  175DOPC  H14A21322   2.259   6.556  12.766  0.1554 -0.8204  1.1768
  175DOPC  H14B21323   2.300   6.503  12.607 -1.4427  1.3559  0.2908
  175DOPC  H14C21324   2.264   6.388  12.723  0.5289 -0.6916  1.5550
  175DOPC   C1521325   2.506   6.343  12.678 -0.6279 -0.2573  0.7890
  175DOPC  H15A21326   2.502   6.364  12.573 -1.5806 -0.0189  0.8597
  175DOPC  H15B21327   2.439   6.259  12.694 -0.8105 -0.0698  1.0118
  175DOPC  H15C21328   2.605   6.309  12.703  0.3165  1.5015 -0.4053
  175DOPC   C1121329   2.401   6.338  12.970 -0.8490  0.7114  0.5816
  175DOPC  H11A21330   2.405   6.342  13.081  0.9745  0.5459  0.5412
  175DOPC  H11B21331   2.294   6.322  12.944 -0.1658 -0.8274 -1.5887
  175DOPC     P21332   2.620   6.194  12.996  0.0010  0.6271  0.5051
  175DOPC   O1321333   2.712   6.296  12.935  0.2865  0.0934  0.3526
  175DOPC   O1421334   2.656   6.048  12.971  0.4112 -0.0830 -0.6348
  175DOPC   O1221335   2.473   6.217  12.934 -0.0058 -0.1888  0.7045
  175DOPC   O1121336   2.607   6.217  13.153  0.3540 -0.0591  0.0443
  175DOPC    C121337   2.563   6.104  13.231  0.6020 -0.2011  0.3410
  175DOPC    HA21338   2.606   6.103  13.333 -0.0937  1.0753  0.6705
  175DOPC    HB21339   2.588   6.007  13.185 -1.3605  0.2845 -1.9356
  175DOPC    C221340   2.409   6.108  13.247  0.4656  0.8280 -0.2131
  175DOPC    HS21341   2.369   6.099  13.144 -0.4259 -3.1235  0.3047
  175DOPC   O2121342   2.373   6.232  13.300 -0.3516 -0.1701 -0.3687
  175DOPC   C2121343   2.249   6.251  13.305  0.8822  0.2868  0.3369
  175DOPC   O2221344   2.161   6.185  13.248 -0.2565 -0.2427  0.3416
  175DOPC   C2221345   2.211   6.368  13.396  0.2533 -0.5600 -0.4094
  175DOPC   H2R21346   2.173   6.444  13.324  1.6045 -0.0199 -0.5792
  175DOPC   H2S21347   2.305   6.413  13.434 -0.2132  1.0636 -1.0800
  175DOPC    C321348   2.346   5.989  13.328 -0.5513 -0.0211 -0.5019
  175DOPC    HX21349   2.405   5.904  13.289  0.3067  0.7495 -0.9270
  175DOPC    HY21350   2.243   5.981  13.288 -0.2100  1.6548 -1.8520
  175DOPC   O3121351   2.351   6.008  13.467 -0.1257  0.2847  0.1001
  175DOPC   C3121352   2.355   5.894  13.535  0.2584  0.3808 -1.0885
  175DOPC   O3221353   2.375   5.784  13.486 -0.3971 -0.7118 -0.4764
  175DOPC   C3221354   2.347   5.932  13.684 -0.2326 -0.3546  0.4684
  175DOPC   H2X21355   2.438   5.992  13.708 -3.0141  4.3870  0.5664
  175DOPC   H2Y21356   2.261   6.001  13.702  0.1072 -0.1073  1.1977
  175DOPC   C2321357   2.117   6.342  13.512 -0.2557  0.1217 -0.1255
  175DOPC   H3R21358   2.035   6.273  13.482 -2.1901  1.4715  1.7153
  175DOPC   H3S21359   2.070   6.438  13.542  0.5466 -0.4211  3.1833
  175DOPC   C2421360   2.190   6.288  13.645  0.4223 -0.1990  0.2276
  175DOPC   H4R21361   2.245   6.377  13.686  0.7585  0.2772 -1.2087
  175DOPC   H4S21362   2.264   6.208  13.626  1.6687  1.4590 -2.4203
  175DOPC   C2521363   2.087   6.235  13.751  0.0712 -0.3929  0.0445
  175DOPC   H5R21364   2.068   6.134  13.710  2.2610  0.3544 -3.2017
  175DOPC   H5S21365   1.992   6.292  13.741  0.2264  0.1554  1.4416
  175DOPC   C2621366   2.136   6.257  13.893 -0.2471  0.1704 -0.2689
  175DOPC   H6R21367   2.166   6.363  13.902 -1.1557  0.2702  3.2185
  175DOPC   H6S21368   2.226   6.192  13.895  0.3850  0.9386 -2.1142
  175DOPC   C2721369   2.035   6.221  14.002  0.2262 -0.3324  0.1342
  175DOPC   H7R21370   2.010   6.113  13.999  0.4637 -0.4939  2.2769
  175DOPC   H7S21371   1.938   6.271  13.984 -1.6028 -4.0594 -1.2804
  175DOPC   C2821372   2.088   6.232  14.150 -0.6085 -0.4843  0.4787
  175DOPC   H8R21373   2.116   6.338  14.173  0.0796  0.0251 -2.3112
  175DOPC   H8S21374   2.186   6.180  14.151 -0.8286 -0.8872  1.0559
  175DOPC   C2921375   1.986   6.170  14.252  0.5916 -0.1599  0.5398
  175DOPC   H9R21376   1.963   6.066  14.220 -0.8222 -0.0366  1.0662
  175DOPC  C21021377   1.912   6.213  14.356  0.0477 -0.4996  0.3511
  175DOPC  H10R21378   1.844   6.143  14.407 -3.1924  1.3610 -1.1159
  175DOPC  C21121379   1.915   6.354  14.407  0.1273 -0.1136 -0.1352
  175DOPC  H11R21380   1.809   6.385  14.401  0.6116  1.3797 -2.2400
  175DOPC  H11S21381   1.982   6.413  14.341  0.1772 -0.1696 -0.1343
  175DOPC  C21221382   1.956   6.359  14.557 -0.0730  0.1452  0.0784
  175DOPC  H12R21383   1.882   6.291  14.604 -0.6091 -0.1241 -1.1289
  175DOPC  H12S21384   1.947   6.467  14.584  0.9624  1.3609 -3.7748
  175DOPC  C21321385   2.096   6.306  14.579 -0.4658 -0.6024 -0.0176
  175DOPC  H13R21386   2.175   6.368  14.532 -0.9445 -0.6419 -0.9003
  175DOPC  H13S21387   2.112   6.203  14.541 -0.2315 -0.7709  0.5349
  175DOPC  C21421388   2.131   6.302  14.730  0.5697 -0.2966  0.0109
  175DOPC  H14R21389   2.084   6.215  14.781  1.9285 -0.6447  0.7225
  175DOPC  H14S21390   2.094   6.398  14.771 -0.4896 -0.7947  0.2599
  175DOPC  C21521391   2.282   6.269  14.756  0.0379 -0.3215 -0.2908
  175DOPC  H15R21392   2.335   6.342  14.690 -1.4311  0.4245 -0.7035
  175DOPC  H15S21393   2.308   6.168  14.720 -0.2711 -0.0002 -1.4649
  175DOPC  C21621394   2.310   6.278  14.906 -0.3061  0.0082  0.9498
  175DOPC  H16R21395   2.416   6.248  14.918  0.4416  1.3720 -1.7036
  175DOPC  H16S21396   2.248   6.200  14.956 -0.5700  0.1411  0.8313
  175DOPC  C21721397   2.298   6.411  14.973 -0.1989  0.0785  0.0591
  175DOPC  H17R21398   2.340   6.393  15.075  1.7001 -1.8386 -0.9937
  175DOPC  H17S21399   2.192   6.442  14.980 -0.2234  0.1583 -0.6197
  175DOPC  C21821400   2.373   6.518  14.908 -0.6162  0.7021  0.1647
  175DOPC  H18R21401   2.375   6.613  14.965 -0.0884 -0.2938  1.8768
  175DOPC  H18S21402   2.312   6.540  14.818  0.5608  0.5175 -0.7068
  175DOPC  H18T21403   2.479   6.495  14.885 -0.4861 -0.0471  1.3906
  175DOPC   C3321404   2.331   5.815  13.781  0.1172  0.7866 -0.4753
  175DOPC   H3X21405   2.419   5.747  13.776  0.5696  1.4467 -1.8488
  175DOPC   H3Y21406   2.244   5.757  13.744  0.4810 -1.1773  1.5350
  175DOPC   C3421407   2.295   5.872  13.920 -0.7290  0.6034 -0.6104
  175DOPC   H4X21408   2.218   5.952  13.917 -1.0435  0.2703 -1.9151
  175DOPC   H4Y21409   2.389   5.912  13.963 -0.9873 -1.3606  2.0032
  175DOPC   C3521410   2.253   5.761  14.022 -0.4443 -0.7128  0.6776
  175DOPC   H5X21411   2.341   5.697  14.044  0.6146  0.5318  0.1719
  175DOPC   H5Y21412   2.169   5.705  13.975 -0.4502  0.9936 -1.5068
  175DOPC   C3621413   2.205   5.812  14.153  0.0177 -0.1390  0.8692
  175DOPC   H6X21414   2.123   5.883  14.127  0.8232  1.1991  1.8557
  175DOPC   H6Y21415   2.153   5.734  14.214  3.2635 -2.8338  0.4406
  175DOPC   C3721416   2.320   5.882  14.243  0.3763 -0.1578  0.8098
  175DOPC   H7X21417   2.416   5.826  14.241  0.5827  0.2116  0.0718
  175DOPC   H7Y21418   2.346   5.981  14.200 -1.8189  0.3866  0.6120
  175DOPC   C3821419   2.272   5.907  14.394 -0.4188  0.3026 -0.0812
  175DOPC   H8X21420   2.228   5.811  14.428  0.1047  0.5757  1.4698
  175DOPC   H8Y21421   2.198   5.990  14.397 -1.6621 -0.7360 -1.1764
  175DOPC   C3921422   2.386   5.938  14.488  0.4755 -0.6468 -0.9085
  175DOPC   H9X21423   2.454   6.014  14.445  1.4018 -1.5669 -1.1221
  175DOPC  C31021424   2.409   5.881  14.609 -0.8584 -0.4435  0.1775
  175DOPC  H10X21425   2.488   5.929  14.669  0.3052  0.3693 -1.9104
  175DOPC  C31121426   2.332   5.773  14.672 -0.0619  0.3781  0.2959
  175DOPC  H11X21427   2.384   5.719  14.754  3.2380  2.6728 -0.1068
  175DOPC  H11Y21428   2.313   5.706  14.586 -3.5559  2.0297 -0.3916
  175DOPC  C31221429   2.198   5.836  14.720 -0.0239 -0.6196 -0.2578
  175DOPC  H12X21430   2.115   5.766  14.696 -1.1190  0.5412  0.0385
  175DOPC  H12Y21431   2.160   5.931  14.675  0.6428 -0.4596 -0.4902
  175DOPC  C31321432   2.202   5.874  14.869  0.4196  0.5666 -0.3863
  175DOPC  H13X21433   2.265   5.795  14.914  1.6436  1.5010 -0.4112
  175DOPC  H13Y21434   2.246   5.976  14.876  2.3409 -0.2768  0.4493
  175DOPC  C31421435   2.063   5.886  14.936 -0.3558 -0.5913 -0.0214
  175DOPC  H14X21436   2.016   5.973  14.884 -1.3093 -0.7256  0.5866
  175DOPC  H14Y21437   2.011   5.790  14.915  0.7980 -0.8117 -2.1527
  175DOPC  C31521438   2.067   5.917  15.083  0.8029 -0.5440 -0.0702
  175DOPC  H15X21439   2.126   6.008  15.104  0.8902 -0.0381 -2.2253
  175DOPC  H15Y21440   2.116   5.842  15.149 -2.8418 -1.5708  1.7352
  175DOPC  C31621441   1.933   5.959  15.139  0.4728 -0.0223  0.2947
  175DOPC  H16X21442   1.881   6.039  15.082  0.7668  0.3460  0.5413
  175DOPC  H16Y21443   1.874   5.865  15.131  0.8763 -0.3960  1.5964
  175DOPC  C31721444   1.925   5.985  15.288  0.3414  0.2283 -0.1314
  175DOPC  H17X21445   1.981   5.908  15.346 -0.3223  1.9608  3.0099
  175DOPC  H17Y21446   1.964   6.086  15.315 -1.3604  0.5266  1.3908
  175DOPC  C31821447   1.784   5.979  15.354  1.1643  0.3478 -0.1262
  175DOPC  H18X21448   1.712   6.023  15.282 -3.0494 -0.3200  3.2787
  175DOPC  H18Y21449   1.753   5.874  15.376  1.3340  0.2752 -0.2336
  175DOPC  H18Z21450   1.785   6.044  15.444  0.8688 -1.5380  1.3066
  176DOPC     N21451   3.142   2.068  12.799 -0.7420  0.0122 -0.0938
  176DOPC   C1221452   2.993   2.107  12.794 -0.3379  0.6150 -0.3388
  176DOPC  H12A21453   2.940   2.013  12.805 -0.5903  0.8293  0.3271
  176DOPC  H12B21454   2.963   2.146  12.699 -3.7609  2.1658  1.2087
  176DOPC   C1321455   3.170   1.987  12.922  0.2907  1.0818 -0.0392
  176DOPC  H13A21456   3.275   1.962  12.927  0.4979  2.1289  1.6252
  176DOPC  H13B21457   3.157   2.035  13.018 -1.9933 -1.2699  0.9774
  176DOPC  H13C21458   3.115   1.894  12.923  1.7532  0.1611 -1.3468
  176DOPC   C1421459   3.226   2.196  12.794 -0.3122  0.9963 -0.1197
  176DOPC  H14A21460   3.322   2.196  12.744 -0.9393  3.4087 -1.4814
  176DOPC  H14B21461   3.183   2.270  12.728 -0.7388  1.5342  0.7404
  176DOPC  H14C21462   3.234   2.236  12.894  2.1547 -0.5498  0.3873
  176DOPC   C1521463   3.186   1.985  12.688  0.2615  0.1939  0.5542
  176DOPC  H15A21464   3.123   1.899  12.670  0.6674 -0.1748  0.8898
  176DOPC  H15B21465   3.281   1.940  12.711  0.8234  0.6201 -0.8334
  176DOPC  H15C21466   3.199   2.044  12.598 -0.2518  0.3082  0.5538
  176DOPC   C1121467   2.950   2.212  12.898 -0.4944  0.3738  0.6146
  176DOPC  H11A21468   2.992   2.314  12.883 -0.0255 -0.0264 -0.9916
  176DOPC  H11B21469   2.843   2.224  12.871 -0.3180  1.2694  0.2679
  176DOPC     P21470   2.865   2.066  13.088  0.0892  0.3830  0.0577
  176DOPC   O1321471   2.929   1.964  13.175  0.1531 -0.1883  0.5296
  176DOPC   O1421472   2.784   2.008  12.975 -0.1402 -0.2729 -0.0951
  176DOPC   O1221473   2.969   2.158  13.028 -0.2121 -0.0726 -0.1030
  176DOPC   O1121474   2.786   2.167  13.176  0.0414 -0.6474 -0.4090
  176DOPC    C121475   2.869   2.260  13.259  0.3169 -0.6730  0.4945
  176DOPC    HA21476   2.835   2.365  13.258 -0.1402 -0.8207 -0.6983
  176DOPC    HB21477   2.974   2.268  13.223  0.6674 -1.2238  1.3479
  176DOPC    C221478   2.863   2.211  13.406  0.5719 -0.0059 -0.2325
  176DOPC    HS21479   2.898   2.106  13.400 -0.5493 -0.3264 -2.4268
  176DOPC   O2121480   2.722   2.229  13.453  0.2322 -0.4360  0.1275
  176DOPC   C2121481   2.660   2.117  13.496  0.1342  0.1443  0.3449
  176DOPC   O2221482   2.710   2.007  13.476  0.5330 -0.4433 -0.0702
  176DOPC   C2221483   2.513   2.139  13.556  0.1949  0.2320  0.3791
  176DOPC   H2R21484   2.438   2.131  13.474 -1.4632  0.5901  1.8029
  176DOPC   H2S21485   2.508   2.242  13.597 -0.6769 -0.2342  1.4721
  176DOPC    C321486   2.959   2.295  13.496  0.1495  0.5226 -0.1943
  176DOPC    HX21487   2.933   2.403  13.501  3.2523  1.3523  0.2914
  176DOPC    HY21488   3.063   2.298  13.456  0.1239 -1.3332 -0.4816
  176DOPC   O3121489   2.968   2.240  13.629 -0.0326  0.3127 -0.8528
  176DOPC   C3121490   3.026   2.120  13.649 -0.6388  0.2147  0.1310
  176DOPC   O3221491   3.085   2.047  13.569 -0.6062 -0.0390  0.1735
  176DOPC   C3221492   3.015   2.092  13.796  0.5312 -1.1525  0.0639
  176DOPC   H2X21493   3.074   2.165  13.855 -1.8375  0.0889  1.0290
  176DOPC   H2Y21494   2.910   2.105  13.828  0.7299  1.1424 -0.0819
  176DOPC   C2321495   2.474   2.038  13.668  0.6946 -0.3241 -0.5572
  176DOPC   H3R21496   2.505   1.933  13.649 -1.0449 -0.7978 -0.9762
  176DOPC   H3S21497   2.364   2.030  13.681  0.8483 -1.2323  0.3599
  176DOPC   C2421498   2.524   2.100  13.800  0.4547 -0.6114  0.2887
  176DOPC   H4R21499   2.470   2.197  13.806  0.3002 -0.7917  2.2793
  176DOPC   H4S21500   2.635   2.098  13.788  0.3462  0.6233 -1.3911
  176DOPC   C2521501   2.479   2.026  13.924  0.2975 -0.4431  0.0602
  176DOPC   H5R21502   2.526   1.925  13.927 -2.4272 -1.8353 -0.6422
  176DOPC   H5S21503   2.371   2.012  13.947  0.3983  2.0390  2.6153
  176DOPC   C2621504   2.520   2.089  14.057 -0.2867 -0.5845  0.1278
  176DOPC   H6R21505   2.461   2.182  14.075 -0.1058 -0.5960  0.8415
  176DOPC   H6S21506   2.621   2.134  14.047 -0.3464 -0.1910  1.1509
  176DOPC   C2721507   2.512   1.995  14.173  0.8129  0.7238  0.5613
  176DOPC   H7R21508   2.555   2.041  14.265 -3.3302  2.7361  1.7423
  176DOPC   H7S21509   2.568   1.904  14.144 -1.6242 -0.0434 -2.2818
  176DOPC   C2821510   2.373   1.955  14.220  0.2764  0.1516  0.0086
  176DOPC   H8R21511   2.385   1.874  14.294 -0.2383 -0.7879 -0.9146
  176DOPC   H8S21512   2.320   1.908  14.135 -1.0988  1.3180  0.1718
  176DOPC   C2921513   2.296   2.066  14.281 -0.2346 -0.7850 -0.4822
  176DOPC   H9R21514   2.302   2.156  14.218  0.7350  0.4367  1.3034
  176DOPC  C21021515   2.237   2.076  14.403  0.0940 -0.3141 -0.6711
  176DOPC  H10R21516   2.185   2.171  14.423  0.0662 -0.7069  1.2835
  176DOPC  C21121517   2.238   1.971  14.516 -0.2266 -0.4762 -0.7862
  176DOPC  H11R21518   2.226   2.031  14.609 -1.3015  1.4680 -2.1082
  176DOPC  H11S21519   2.337   1.922  14.531 -0.2015 -0.4108 -0.7377
  176DOPC  C21221520   2.120   1.876  14.505  0.4424  0.3303  0.0411
  176DOPC  H12R21521   2.133   1.822  14.409  0.7635  0.9334 -0.2636
  176DOPC  H12S21522   2.021   1.927  14.502 -0.5951 -1.3630  2.3013
  176DOPC  C21321523   2.105   1.773  14.629 -0.1061  0.4185 -0.0849
  176DOPC  H13R21524   2.100   1.836  14.720  0.9007  0.9850 -0.4000
  176DOPC  H13S21525   2.191   1.703  14.635  0.6979  1.4756  4.8740
  176DOPC  C21421526   1.972   1.689  14.619 -0.0848  0.2231  0.1106
  176DOPC  H14R21527   1.951   1.658  14.515 -1.4766 -2.6645  1.1548
  176DOPC  H14S21528   1.880   1.746  14.645 -0.5899 -0.1935 -0.7237
  176DOPC  C21521529   1.974   1.561  14.710  0.3423  0.5789  0.2278
  176DOPC  H15R21530   1.872   1.541  14.750  0.6676 -2.6599 -0.2254
  176DOPC  H15S21531   2.035   1.574  14.802  2.5166 -1.2272 -0.8654
  176DOPC  C21621532   2.016   1.446  14.619  0.2887 -0.3351 -1.1050
  176DOPC  H16R21533   2.113   1.476  14.575  1.4325  1.0281  2.0601
  176DOPC  H16S21534   1.950   1.436  14.530 -0.1318  1.2085 -0.9866
  176DOPC  C21721535   2.043   1.318  14.697  0.2255 -0.3058  0.4371
  176DOPC  H17R21536   1.960   1.301  14.770 -1.5041 -1.6792 -1.7038
  176DOPC  H17S21537   2.144   1.331  14.740  0.2596  0.5647  0.1007
  176DOPC  C21821538   2.043   1.189  14.611  0.1078  0.6174 -0.1790
  176DOPC  H18R21539   2.114   1.214  14.529  0.7968 -0.4729  0.0657
  176DOPC  H18S21540   1.940   1.156  14.589  0.7671 -1.2196 -0.6283
  176DOPC  H18T21541   2.084   1.107  14.674 -1.1522  1.5688  2.0149
  176DOPC   C3321542   3.062   1.950  13.836  0.5296  0.5147  0.4559
  176DOPC   H3X21543   3.153   1.926  13.776 -1.5455 -1.4084 -2.1815
  176DOPC   H3Y21544   2.986   1.882  13.791  0.4195 -0.0297  1.4441
  176DOPC   C3421545   3.103   1.940  13.980 -0.7493  0.2511 -0.4095
  176DOPC   H4X21546   3.185   2.012  14.001  0.3749 -1.1023 -0.0449
  176DOPC   H4Y21547   3.152   1.843  14.002 -0.6264  0.2773 -0.5637
  176DOPC   C3521548   2.988   1.966  14.066 -0.1481  0.6900 -0.0451
  176DOPC   H5X21549   2.917   1.881  14.057  0.0703  0.5820 -0.8782
  176DOPC   H5Y21550   2.922   2.051  14.038 -1.6080 -0.1891  0.5778
  176DOPC   C3621551   3.029   1.983  14.214 -0.5930 -0.0165 -0.3830
  176DOPC   H6X21552   3.085   1.895  14.252  0.1062 -0.5473 -2.4716
  176DOPC   H6Y21553   3.096   2.071  14.216  0.7910 -1.0287  1.5834
  176DOPC   C3721554   2.912   1.996  14.324 -0.1853  0.5448  0.6019
  176DOPC   H7X21555   2.858   2.092  14.307 -1.7119 -0.6111 -1.6057
  176DOPC   H7Y21556   2.844   1.910  14.307 -0.2291  0.5134  0.9425
  176DOPC   C3821557   2.971   1.987  14.464  0.3197  0.0271 -0.5469
  176DOPC   H8X21558   3.042   2.069  14.484  2.2134 -1.2106 -1.8551
  176DOPC   H8Y21559   3.026   1.892  14.479 -1.4002 -0.6334  2.3946
  176DOPC   C3921560   2.860   1.981  14.561  0.0506  0.7304 -0.0976
  176DOPC   H9X21561   2.836   1.877  14.587  0.6634  0.1657 -1.6695
  176DOPC  C31021562   2.797   2.073  14.632 -0.4751 -0.1327 -0.1345
  176DOPC  H10X21563   2.724   2.030  14.701  0.2111 -3.8006 -1.4679
  176DOPC  C31121564   2.817   2.223  14.635 -0.3809 -0.0466 -0.0552
  176DOPC  H11X21565   2.770   2.261  14.541  1.1708 -0.7881 -1.1727
  176DOPC  H11Y21566   2.926   2.243  14.640  0.0763 -2.5130  1.0014
  176DOPC  C31221567   2.763   2.299  14.764  0.3385  0.2005  0.4927
  176DOPC  H12X21568   2.818   2.271  14.857  0.7306 -1.0139 -0.0845
  176DOPC  H12Y21569   2.661   2.259  14.781  0.6276 -0.3346  1.0243
  176DOPC  C31321570   2.766   2.451  14.744  0.0891  0.1500  0.2465
  176DOPC  H13X21571   2.729   2.488  14.646 -0.6348 -2.4608 -0.5331
  176DOPC  H13Y21572   2.706   2.506  14.819  2.4602  0.2289  2.2335
  176DOPC  C31421573   2.906   2.511  14.772  0.0092  0.5610 -0.0943
  176DOPC  H14X21574   2.936   2.481  14.874 -0.7162  2.0631  0.5987
  176DOPC  H14Y21575   2.974   2.459  14.702 -1.7537  1.1158 -2.3606
  176DOPC  C31521576   2.924   2.664  14.749 -0.5657  0.7399 -0.5676
  176DOPC  H15X21577   2.861   2.719  14.822 -1.5817  0.9407 -1.5768
  176DOPC  H15Y21578   2.909   2.692  14.642  2.1452  0.6682 -1.0509
  176DOPC  C31621579   3.062   2.711  14.778 -0.3814  1.0373  0.4043
  176DOPC  H16X21580   3.087   2.693  14.885 -2.6646  1.2897  1.0294
  176DOPC  H16Y21581   3.133   2.645  14.725 -1.6439 -0.5445  0.6172
  176DOPC  C31721582   3.093   2.857  14.739  0.6786 -0.6775 -0.6386
  176DOPC  H17X21583   3.192   2.885  14.780 -0.1950  0.4459  0.8007
  176DOPC  H17Y21584   3.121   2.866  14.632  1.1665 -0.7559 -0.5205
  176DOPC  C31821585   2.984   2.961  14.776 -0.4216  0.0516 -0.5914
  176DOPC  H18X21586   3.027   3.063  14.770  2.0325 -0.9648 -2.3362
  176DOPC  H18Y21587   2.904   2.961  14.698  0.1008  1.4460 -1.1591
  176DOPC  H18Z21588   2.947   2.937  14.877 -0.5505 -1.7198 -1.0186
  177DOPC     N21589   3.322   5.711  12.860  0.5755  0.0688 -0.1466
  177DOPC   C1221590   3.276   5.755  12.992 -0.4750  0.3692  0.0227
  177DOPC  H12A21591   3.344   5.727  13.071 -1.4270 -1.1146  0.3566
  177DOPC  H12B21592   3.195   5.692  13.025 -1.7956  2.7615  1.7078
  177DOPC   C1321593   3.448   5.783  12.815  0.6093 -0.2539  0.2593
  177DOPC  H13A21594   3.489   5.739  12.725 -0.2644 -1.1882  0.3115
  177DOPC  H13B21595   3.420   5.885  12.796 -1.7477 -0.6962  1.0494
  177DOPC  H13C21596   3.525   5.777  12.891  0.9757 -0.8776 -0.1545
  177DOPC   C1421597   3.219   5.733  12.749 -0.2067 -0.0214 -0.1715
  177DOPC  H14A21598   3.187   5.835  12.739 -0.8153 -0.3996 -2.5923
  177DOPC  H14B21599   3.262   5.695  12.657 -0.1889 -0.2366 -0.0758
  177DOPC  H14C21600   3.130   5.675  12.769  0.9178 -1.7224  0.1362
  177DOPC   C1521601   3.349   5.565  12.879 -0.9117  0.2704  0.2476
  177DOPC  H15A21602   3.269   5.497  12.903  0.4462 -0.6478  2.4400
  177DOPC  H15B21603   3.422   5.563  12.959 -1.1608  1.2665  0.5169
  177DOPC  H15C21604   3.393   5.520  12.791 -1.4291 -0.9856  0.6057
  177DOPC   C1121605   3.241   5.896  13.007 -0.1713 -0.9040  0.5961
  177DOPC  H11A21606   3.326   5.957  12.972  0.0334 -2.2956 -1.4887
  177DOPC  H11B21607   3.152   5.922  12.946  0.5685  0.4473  0.0542
  177DOPC     P21608   3.275   6.020  13.238 -0.0467 -0.0394  0.4687
  177DOPC   O1321609   3.254   6.149  13.168 -0.2413  0.1833  0.1422
  177DOPC   O1421610   3.412   5.978  13.262 -0.1677  0.1862 -0.0277
  177DOPC   O1221611   3.209   5.914  13.142 -0.3098 -0.1897 -0.3873
  177DOPC   O1121612   3.182   6.001  13.368  0.5015  0.1420  0.2023
  177DOPC    C121613   3.204   6.086  13.481 -0.2909 -0.3677 -0.1601
  177DOPC    HA21614   3.155   6.185  13.468  0.8796  0.2280 -0.1784
  177DOPC    HB21615   3.308   6.127  13.486 -0.2728 -0.4167 -0.1322
  177DOPC    C221616   3.170   6.026  13.614  0.3822  0.0727  0.3351
  177DOPC    HS21617   3.226   5.931  13.627  0.0200  0.0059  1.4899
  177DOPC   O2121618   3.026   6.008  13.617  0.2080 -0.8571  0.2354
  177DOPC   C2121619   2.977   5.897  13.563 -0.6445 -0.0553  0.4557
  177DOPC   O2221620   3.040   5.802  13.519  0.2720  0.1945  0.0470
  177DOPC   C2221621   2.821   5.911  13.558 -0.0549  0.1576 -0.1999
  177DOPC   H2R21622   2.798   5.901  13.450 -1.0503 -2.5975  0.1825
  177DOPC   H2S21623   2.784   6.012  13.586 -1.4799 -0.2242 -0.5914
  177DOPC    C321624   3.207   6.120  13.736  1.5848  0.5648 -0.0498
  177DOPC    HX21625   3.168   6.223  13.722  1.6362  0.9962  2.5456
  177DOPC    HY21626   3.315   6.141  13.717  1.9524  0.5715  1.8415
  177DOPC   O3121627   3.166   6.059  13.864  0.0054  0.1800 -0.2155
  177DOPC   C3121628   3.265   5.985  13.913  0.5604 -0.3926 -0.0746
  177DOPC   O3221629   3.374   5.965  13.865 -0.2580  0.4153  0.1653
  177DOPC   C3221630   3.218   5.925  14.041 -0.3111 -0.2341  0.6159
  177DOPC   H2X21631   3.156   6.004  14.089 -0.3545 -0.7099  1.3613
  177DOPC   H2Y21632   3.152   5.837  14.020 -0.9880  0.2702  0.6060
  177DOPC   C2321633   2.752   5.800  13.648  0.5504 -0.4318  0.2671
  177DOPC   H3R21634   2.799   5.702  13.624 -1.3451 -1.1235 -0.7771
  177DOPC   H3S21635   2.652   5.778  13.606  0.2997  1.1843 -0.0579
  177DOPC   C2421636   2.743   5.842  13.790 -0.5340  0.1394 -0.6293
  177DOPC   H4R21637   2.663   5.917  13.801 -1.2303 -0.6458 -0.2484
  177DOPC   H4S21638   2.847   5.880  13.806  0.5554 -2.0230 -2.0133
  177DOPC   C2521639   2.709   5.727  13.881  0.0712 -0.1623 -0.3065
  177DOPC   H5R21640   2.794   5.656  13.889 -1.2090 -1.6498  0.9216
  177DOPC   H5S21641   2.613   5.685  13.844  0.8448 -1.4981 -0.8759
  177DOPC   C2621642   2.670   5.774  14.022 -0.0255  0.3001  0.2371
  177DOPC   H6R21643   2.645   5.678  14.071 -3.1015  0.8215 -0.0918
  177DOPC   H6S21644   2.586   5.847  14.013  1.9700  2.7553  0.1903
  177DOPC   C2721645   2.776   5.846  14.103 -0.5988  0.2298 -0.1729
  177DOPC   H7R21646   2.799   5.939  14.047 -0.1287  0.4477  0.3739
  177DOPC   H7S21647   2.871   5.789  14.114  1.4652  3.2458 -1.0166
  177DOPC   C2821648   2.723   5.879  14.243 -0.0816 -0.3032  0.0646
  177DOPC   H8R21649   2.635   5.947  14.237  0.9000  0.9323 -0.6896
  177DOPC   H8S21650   2.788   5.951  14.297  0.8938  0.9679 -2.6378
  177DOPC   C2921651   2.698   5.761  14.328  0.1812 -0.5366 -0.2213
  177DOPC   H9R21652   2.596   5.738  14.361 -0.1358  1.7635  0.5683
  177DOPC  C21021653   2.795   5.678  14.368 -0.1563 -0.3807  0.3438
  177DOPC  H10R21654   2.761   5.587  14.419  0.3832  0.1073  1.6323
  177DOPC  C21121655   2.942   5.686  14.342 -0.2366  0.9890 -0.0522
  177DOPC  H11R21656   2.979   5.789  14.322  0.5285  0.7151 -0.0810
  177DOPC  H11S21657   2.981   5.630  14.254 -0.1203  0.6179  0.2331
  177DOPC  C21221658   3.029   5.645  14.463 -0.0038 -0.3752 -0.1346
  177DOPC  H12R21659   2.995   5.553  14.515 -2.0848 -1.2219 -2.7269
  177DOPC  H12S21660   3.044   5.733  14.530 -1.2159 -1.4141  1.5936
  177DOPC  C21321661   3.173   5.621  14.414 -0.1397 -0.2667  0.3969
  177DOPC  H13R21662   3.200   5.725  14.388 -0.5358 -0.0735  0.7527
  177DOPC  H13S21663   3.181   5.566  14.318 -1.5978  2.2426 -1.2808
  177DOPC  C21421664   3.264   5.567  14.527  0.1607  0.6442  0.5143
  177DOPC  H14R21665   3.254   5.456  14.536  0.2590  0.4816 -1.0714
  177DOPC  H14S21666   3.221   5.593  14.626 -1.6344  1.0899 -0.3511
  177DOPC  C21521667   3.409   5.595  14.496 -0.2031  0.8905 -0.8407
  177DOPC  H15R21668   3.422   5.705  14.493  0.2885  0.8565 -0.2157
  177DOPC  H15S21669   3.438   5.563  14.394 -1.0328 -1.2680 -0.4554
  177DOPC  C21621670   3.501   5.553  14.612  0.8501 -0.1179 -1.1327
  177DOPC  H16R21671   3.477   5.449  14.643  0.0045  0.7443  1.3777
  177DOPC  H16S21672   3.462   5.617  14.694  2.0802 -1.1113  0.2747
  177DOPC  C21721673   3.650   5.572  14.594  0.3138  0.6885 -0.7612
  177DOPC  H17R21674   3.679   5.676  14.569 -0.6095  0.6947 -1.9523
  177DOPC  H17S21675   3.683   5.508  14.509 -0.2134 -1.4454  0.5565
  177DOPC  C21821676   3.744   5.532  14.710 -0.4037 -0.0112  0.5636
  177DOPC  H18R21677   3.733   5.603  14.795  0.8670  1.1135 -0.1670
  177DOPC  H18S21678   3.844   5.563  14.672 -1.1180  1.6321 -0.0794
  177DOPC  H18T21679   3.738   5.429  14.750 -0.2861 -0.9363 -1.6740
  177DOPC   C3321680   3.329   5.877  14.136  0.6298 -0.4275 -0.3377
  177DOPC   H3X21681   3.386   5.792  14.091 -0.6056 -0.6132 -1.6270
  177DOPC   H3Y21682   3.283   5.838  14.229 -0.7582 -0.0463 -0.8425
  177DOPC   C3421683   3.427   5.985  14.184  0.1559 -0.0066  0.6399
  177DOPC   H4X21684   3.365   6.072  14.212 -0.7357  0.5274 -2.5243
  177DOPC   H4Y21685   3.498   6.024  14.107  0.2780  0.0334  0.7723
  177DOPC   C3521686   3.503   5.954  14.309 -0.6905 -0.0347 -0.2487
  177DOPC   H5X21687   3.572   5.867  14.306  0.3672  0.6974  1.3992
  177DOPC   H5Y21688   3.434   5.928  14.392 -0.2583 -0.8671 -0.1422
  177DOPC   C3621689   3.585   6.073  14.365  0.0089  0.1701  0.1689
  177DOPC   H6X21690   3.646   6.111  14.279  0.5293  0.2699  0.5759
  177DOPC   H6Y21691   3.515   6.159  14.371 -1.5827 -1.0565 -0.2989
  177DOPC   C3721692   3.684   6.055  14.484 -0.1758  0.6036  0.0175
  177DOPC   H7X21693   3.632   6.015  14.574  3.1581 -0.4893  1.6140
  177DOPC   H7Y21694   3.767   5.981  14.473 -0.6831 -0.2879  1.8519
  177DOPC   C3821695   3.748   6.189  14.536 -0.5638  0.4516 -0.2607
  177DOPC   H8X21696   3.813   6.169  14.623 -0.8863  0.5421 -0.0002
  177DOPC   H8Y21697   3.673   6.256  14.582  1.2608  0.5191  2.8072
  177DOPC   C3921698   3.831   6.265  14.436 -0.7108  0.7897 -0.7750
  177DOPC   H9X21699   3.773   6.298  14.348  0.6976  1.4700 -1.4778
  177DOPC  C31021700   3.961   6.308  14.449  0.2864  0.1284  0.5912
  177DOPC  H10X21701   3.998   6.371  14.367 -0.1593  0.5979  0.7422
  177DOPC  C31121702   4.062   6.292  14.559 -0.3718 -0.2378 -0.3023
  177DOPC  H11X21703   4.023   6.266  14.659  0.9496  1.0209  0.5684
  177DOPC  H11Y21704   4.111   6.390  14.575 -0.3089 -0.1319 -1.0772
  177DOPC  C31221705   4.183   6.205  14.516 -1.3988 -0.1540  0.2700
  177DOPC  H12X21706   4.236   6.248  14.428 -0.0598 -1.0249  0.6090
  177DOPC  H12Y21707   4.152   6.106  14.476 -0.2864 -0.3420 -0.1570
  177DOPC  C31321708   4.302   6.197  14.626 -0.3438 -0.4575 -0.2902
  177DOPC  H13X21709   4.251   6.152  14.714 -0.7528 -0.0731 -0.3295
  177DOPC  H13Y21710   4.372   6.120  14.587  0.9455  0.7937 -0.5265
  177DOPC  C31421711   4.378   6.326  14.672  0.1885 -0.0081  0.2242
  177DOPC  H14X21712   4.306   6.407  14.700  0.3017  0.6264 -1.2357
  177DOPC  H14Y21713   4.433   6.291  14.762  1.5401 -1.9063 -1.2685
  177DOPC  C31521714   4.481   6.390  14.584 -0.1107 -0.7563  0.1283
  177DOPC  H15X21715   4.430   6.417  14.489  0.6762  3.3522  0.6601
  177DOPC  H15Y21716   4.560   6.321  14.548  2.2267  2.8444 -2.3411
  177DOPC  C31621717   4.535   6.527  14.637  0.0589 -0.0228 -0.5336
  177DOPC  H16X21718   4.456   6.606  14.632  0.2677  0.2503  0.2215
  177DOPC  H16Y21719   4.573   6.509  14.740  2.2315  0.4372 -1.2032
  177DOPC  C31721720   4.647   6.590  14.558  0.2270 -0.1426  0.2472
  177DOPC  H17X21721   4.689   6.668  14.625  1.2581 -0.6427  0.1917
  177DOPC  H17Y21722   4.726   6.517  14.530 -0.4574 -0.1500 -1.8498
  177DOPC  C31821723   4.602   6.651  14.423  0.0645 -0.4358 -0.1101
  177DOPC  H18X21724   4.681   6.715  14.378  0.0227 -1.0758 -1.1346
  177DOPC  H18Y21725   4.582   6.568  14.351  0.3999 -1.9191  1.4543
  177DOPC  H18Z21726   4.510   6.710  14.441  0.3913 -0.6198  2.4761
  178DOPC     N21727   1.193   5.677  13.102  0.4859  0.8041  1.1369
  178DOPC   C1221728   1.115   5.743  13.217  0.2608 -0.1600  0.4883
  178DOPC  H12A21729   1.039   5.674  13.249 -1.3865  1.2331 -0.2643
  178DOPC  H12B21730   1.065   5.830  13.177  2.1880  0.3912 -0.9093
  178DOPC   C1321731   1.238   5.536  13.148 -0.3786  0.1845  0.3172
  178DOPC  H13A21732   1.158   5.466  13.167 -2.9727  2.6002 -0.9010
  178DOPC  H13B21733   1.286   5.485  13.066 -3.5392 -2.0262 -0.3458
  178DOPC  H13C21734   1.298   5.547  13.237 -1.6266  0.1584  1.1917
  178DOPC   C1421735   1.309   5.758  13.053 -0.0242 -0.1177  0.4681
  178DOPC  H14A21736   1.288   5.862  13.034 -0.8040 -0.6092 -1.6686
  178DOPC  H14B21737   1.387   5.763  13.127  1.0927  1.6979 -0.7485
  178DOPC  H14C21738   1.337   5.719  12.956 -3.2166 -0.3177 -0.5057
  178DOPC   C1521739   1.088   5.654  12.993 -0.2372 -0.4122 -0.2063
  178DOPC  H15A21740   1.050   5.746  12.951  0.9374  0.2422  0.1336
  178DOPC  H15B21741   1.002   5.598  13.028 -0.5847 -0.3698 -0.9810
  178DOPC  H15C21742   1.133   5.606  12.907  0.8483  0.8066 -0.3383
  178DOPC   C1121743   1.194   5.801  13.336  0.4339  0.4533 -0.2593
  178DOPC  H11A21744   1.125   5.841  13.414  0.5950 -1.0626  0.7031
  178DOPC  H11B21745   1.248   5.715  13.381  0.0713  0.3505 -0.0195
  178DOPC     P21746   1.238   6.054  13.297  0.3135  0.1839 -0.2921
  178DOPC   O1321747   1.107   6.066  13.226 -0.2878  0.8258 -0.0252
  178DOPC   O1421748   1.345   6.133  13.230  0.0797  0.3554 -0.0223
  178DOPC   O1221749   1.284   5.902  13.295  0.0956  0.7676  0.0222
  178DOPC   O1121750   1.226   6.096  13.446 -0.3308  0.0903 -0.2077
  178DOPC    C121751   1.305   6.023  13.543 -0.8299 -0.5194 -0.3837
  178DOPC    HA21752   1.405   5.998  13.501 -0.9897 -0.5363 -0.7627
  178DOPC    HB21753   1.254   5.929  13.572  1.9003 -1.4403  1.8097
  178DOPC    C221754   1.337   6.111  13.664 -0.0355 -0.3594  0.2777
  178DOPC    HS21755   1.387   6.040  13.734 -0.9403 -1.3496 -0.0536
  178DOPC   O2121756   1.207   6.146  13.719 -0.0327  0.5290  0.0060
  178DOPC   C2121757   1.202   6.157  13.846  0.2852 -0.0238  0.0382
  178DOPC   O2221758   1.268   6.109  13.934  0.2702 -0.0314  0.2552
  178DOPC   C2221759   1.092   6.267  13.876 -0.1232  0.0469  0.5662
  178DOPC   H2R21760   0.997   6.211  13.858 -1.2312  2.1666 -0.5033
  178DOPC   H2S21761   1.093   6.343  13.796 -0.5353 -0.6275 -0.0881
  178DOPC    C321762   1.421   6.238  13.625  0.6298  0.4796  0.2171
  178DOPC    HX21763   1.363   6.313  13.566 -0.0246  0.2922  0.6091
  178DOPC    HY21764   1.504   6.201  13.561 -0.3018 -0.6158 -0.3952
  178DOPC   O3121765   1.471   6.299  13.746 -0.4398 -0.1562 -0.2128
  178DOPC   C3121766   1.591   6.357  13.756 -0.4742  0.6032  0.1830
  178DOPC   O3221767   1.672   6.366  13.667  0.4087 -0.5502  0.7397
  178DOPC   C3221768   1.613   6.396  13.902  0.3802  0.3788  0.1668
  178DOPC   H2X21769   1.532   6.465  13.932  0.2821  0.1500  0.4342
  178DOPC   H2Y21770   1.614   6.304  13.964 -1.7291 -0.0175 -0.2943
  178DOPC   C2321771   1.082   6.329  14.018 -0.2241 -0.3548 -0.2099
  178DOPC   H3R21772   1.062   6.250  14.094  0.7032 -0.3038  0.0938
  178DOPC   H3S21773   0.994   6.395  14.032  1.8369  2.9956 -1.7088
  178DOPC   C2421774   1.206   6.415  14.042  1.1227  0.7665 -0.3575
  178DOPC   H4R21775   1.215   6.498  13.970  1.9339  1.3319  0.3767
  178DOPC   H4S21776   1.282   6.334  14.041 -1.5987 -2.1291  2.2736
  178DOPC   C2521777   1.209   6.476  14.179 -0.9034  0.5078 -0.4588
  178DOPC   H5R21778   1.188   6.411  14.267  0.9629  1.2658  0.5921
  178DOPC   H5S21779   1.130   6.555  14.178 -1.1666  0.2436 -0.9320
  178DOPC   C2621780   1.339   6.545  14.214  0.2432 -0.1385 -0.0918
  178DOPC   H6R21781   1.378   6.619  14.141  0.6308  1.5462  1.7249
  178DOPC   H6S21782   1.418   6.468  14.229  0.3114 -0.3516 -1.4443
  178DOPC   C2721783   1.322   6.636  14.338 -0.0981 -0.5431 -0.6234
  178DOPC   H7R21784   1.265   6.591  14.423 -0.1168 -0.6141 -0.6734
  178DOPC   H7S21785   1.263   6.728  14.315  0.4293  0.1346  0.6375
  178DOPC   C2821786   1.462   6.668  14.409 -0.6538  0.5462 -0.2117
  178DOPC   H8R21787   1.427   6.716  14.502 -2.4210 -3.2454  1.3003
  178DOPC   H8S21788   1.507   6.740  14.337  0.1956  0.9412  0.7018
  178DOPC   C2921789   1.552   6.552  14.449  0.4154  0.4554 -0.8438
  178DOPC   H9R21790   1.609   6.511  14.365 -1.2459  0.3450 -1.9758
  178DOPC  C21021791   1.570   6.498  14.574  0.2522 -0.3402 -0.1053
  178DOPC  H10R21792   1.637   6.414  14.593  0.3496 -0.2431 -0.0171
  178DOPC  C21121793   1.502   6.537  14.703 -0.3469  0.2938  0.0552
  178DOPC  H11R21794   1.403   6.587  14.695 -0.2555  0.7357  1.4698
  178DOPC  H11S21795   1.572   6.603  14.759  0.4258 -1.0124  0.6585
  178DOPC  C21221796   1.477   6.418  14.793  1.0678 -0.0908  0.1722
  178DOPC  H12R21797   1.455   6.460  14.893  0.3306 -1.2742  0.5365
  178DOPC  H12S21798   1.555   6.339  14.797  0.1131 -1.0223  1.8829
  178DOPC  C21321799   1.349   6.343  14.753 -0.7955 -0.1946 -0.3239
  178DOPC  H13R21800   1.366   6.316  14.647 -0.1382  0.0623 -0.2869
  178DOPC  H13S21801   1.269   6.420  14.745 -0.4544  0.3309  1.0074
  178DOPC  C21421802   1.306   6.234  14.841  0.4192 -0.3350 -0.2208
  178DOPC  H14R21803   1.316   6.265  14.947  3.3200  0.2567 -0.5693
  178DOPC  H14S21804   1.365   6.140  14.829  0.4381 -0.5638  1.4081
  178DOPC  C21521805   1.162   6.199  14.802  0.2122  0.4886 -0.1174
  178DOPC  H15R21806   1.147   6.209  14.692  0.5306  2.1640 -0.0322
  178DOPC  H15S21807   1.088   6.277  14.831  0.2785  1.0433 -1.3441
  178DOPC  C21621808   1.126   6.056  14.852  0.1228 -0.0071 -0.7888
  178DOPC  H16R21809   1.187   5.978  14.802 -0.0633 -0.6761 -0.0100
  178DOPC  H16S21810   1.019   6.048  14.822  0.0475  0.4974 -0.6560
  178DOPC  C21721811   1.148   6.034  15.003 -0.9147  0.5637  0.2154
  178DOPC  H17R21812   1.257   6.024  15.025 -0.8634 -0.0982 -0.3282
  178DOPC  H17S21813   1.112   5.932  15.028  2.7315 -0.1841  3.4822
  178DOPC  C21821814   1.065   6.126  15.093  0.0765 -0.5660  0.2963
  178DOPC  H18R21815   1.076   6.092  15.198  0.9595 -0.7873  0.1341
  178DOPC  H18S21816   0.955   6.127  15.077 -0.0213  1.2071  0.8519
  178DOPC  H18T21817   1.105   6.229  15.084  1.1504 -1.1083 -1.8050
  178DOPC   C3321818   1.739   6.480  13.924  0.4773  0.1610  0.9122
  178DOPC   H3X21819   1.749   6.570  13.859  2.1338 -0.1880  0.6246
  178DOPC   H3Y21820   1.827   6.418  13.895 -0.5634 -0.1861 -1.7995
  178DOPC   C3421821   1.733   6.539  14.063 -0.5326 -0.6010  0.4424
  178DOPC   H4X21822   1.737   6.455  14.136  0.7466 -0.2763  0.7695
  178DOPC   H4Y21823   1.632   6.585  14.071  0.0238  0.7298  0.1751
  178DOPC   C3521824   1.848   6.633  14.091 -0.0087 -0.3428  0.6463
  178DOPC   H5X21825   1.859   6.722  14.025  2.0914 -0.7087  0.4387
  178DOPC   H5Y21826   1.943   6.576  14.089 -0.1168 -0.5233  0.6129
  178DOPC   C3621827   1.835   6.702  14.231  0.0744 -0.1056 -0.4670
  178DOPC   H6X21828   1.730   6.733  14.250  0.2352  0.7778 -0.9315
  178DOPC   H6Y21829   1.867   6.627  14.306  0.4974  1.3767  0.9062
  178DOPC   C3721830   1.913   6.832  14.237  0.0795 -0.1605 -0.1461
  178DOPC   H7X21831   2.016   6.808  14.205 -0.4713  0.5384 -2.6608
  178DOPC   H7Y21832   1.874   6.896  14.156  2.0311  0.8200 -0.3640
  178DOPC   C3821833   1.920   6.895  14.375  0.4033  0.3744  0.4926
  178DOPC   H8X21834   2.009   6.957  14.394  1.0407 -0.5079  0.4425
  178DOPC   H8Y21835   1.933   6.809  14.445  0.7586 -2.5549 -2.8727
  178DOPC   C3921836   1.796   6.972  14.411 -0.0870 -0.2658  0.5372
  178DOPC   H9X21837   1.780   7.063  14.351  1.7348  0.9635  1.8264
  178DOPC  C31021838   1.722   6.952  14.520  0.4507 -0.1456 -0.6376
  178DOPC  H10X21839   1.636   7.020  14.531  0.9360  0.2791  0.7777
  178DOPC  C31121840   1.735   6.845  14.633  0.3213 -0.2422  0.6547
  178DOPC  H11X21841   1.770   6.745  14.602 -1.4485 -0.0995 -2.1971
  178DOPC  H11Y21842   1.634   6.816  14.667  0.7136 -1.4778  0.7837
  178DOPC  C31221843   1.816   6.892  14.754  0.5666  0.2112  0.1215
  178DOPC  H12X21844   1.799   7.001  14.772 -2.0151 -0.3324  1.4973
  178DOPC  H12Y21845   1.926   6.889  14.736  1.0960  2.1545  2.3961
  178DOPC  C31321846   1.783   6.813  14.884 -0.3719 -0.0401  0.8080
  178DOPC  H13X21847   1.674   6.804  14.904 -0.6825  0.6602 -0.4586
  178DOPC  H13Y21848   1.824   6.710  14.886 -0.0552  0.0816  0.7472
  178DOPC  C31421849   1.830   6.884  15.014  0.7816  0.3717 -0.0042
  178DOPC  H14X21850   1.785   6.985  15.027  0.1117 -0.0625  1.2702
  178DOPC  H14Y21851   1.794   6.816  15.094  2.3905 -3.0262 -1.9316
  178DOPC  C31521852   1.978   6.908  15.033  0.6716 -0.8612 -0.4700
  178DOPC  H15X21853   1.986   6.952  15.134  1.3533 -0.8879 -0.5020
  178DOPC  H15Y21854   2.012   6.981  14.956  2.4066  0.5097  1.4877
  178DOPC  C31621855   2.064   6.782  15.032 -0.5570  0.7615  0.3410
  178DOPC  H16X21856   1.991   6.701  15.055 -0.8011  0.1247 -2.3875
  178DOPC  H16Y21857   2.091   6.754  14.928  0.9710  0.6491  0.7460
  178DOPC  C31721858   2.179   6.769  15.133  0.1705  0.6718  0.0937
  178DOPC  H17X21859   2.139   6.760  15.237  0.8685  0.8516  0.3854
  178DOPC  H17Y21860   2.226   6.677  15.094 -1.6595  0.8830 -2.9409
  178DOPC  C31821861   2.283   6.888  15.133 -0.5968 -0.5294 -0.1636
  178DOPC  H18X21862   2.332   6.888  15.034 -0.4857  0.3166 -0.1151
  178DOPC  H18Y21863   2.231   6.984  15.152  4.0015  2.1621  0.2662
  178DOPC  H18Z21864   2.357   6.870  15.214 -0.1290  1.2105 -0.1588
  179DOPC     N21865   3.779   6.216  13.348 -0.1781  0.5860  0.4434
  179DOPC   C1221866   3.900   6.115  13.365  0.5240  0.0675  0.2347
  179DOPC  H12A21867   3.988   6.166  13.402  2.0233 -1.4187 -1.0960
  179DOPC  H12B21868   3.926   6.086  13.264 -1.8299 -1.2190 -0.0700
  179DOPC   C1321869   3.819   6.323  13.247 -0.0772 -0.5018 -0.2714
  179DOPC  H13A21870   3.845   6.277  13.153 -1.1920  0.2977 -1.0022
  179DOPC  H13B21871   3.748   6.403  13.235  0.4130 -0.0372 -0.1420
  179DOPC  H13C21872   3.912   6.365  13.281  0.4815 -1.6241 -0.3551
  179DOPC   C1421873   3.737   6.284  13.475  0.4394  0.4480 -0.3912
  179DOPC  H14A21874   3.706   6.214  13.552 -1.1619  3.3477  1.7872
  179DOPC  H14B21875   3.797   6.364  13.514  1.8298 -0.8545  0.2768
  179DOPC  H14C21876   3.639   6.326  13.459  0.5476  1.1408  0.7270
  179DOPC   C1521877   3.654   6.151  13.288 -0.4190 -0.2847  0.0137
  179DOPC  H15A21878   3.577   6.227  13.293  0.9438  1.0683  1.5229
  179DOPC  H15B21879   3.638   6.063  13.349  2.2804 -0.6600  0.2735
  179DOPC  H15C21880   3.667   6.124  13.184 -0.3757  1.9605 -0.6200
  179DOPC   C1121881   3.884   5.989  13.445 -0.6054  0.2280  0.3319
  179DOPC  H11A21882   3.980   5.934  13.453 -0.0109  1.0470 -0.8856
  179DOPC  H11B21883   3.867   6.022  13.549  2.3804  3.1510  0.0718
  179DOPC     P21884   3.825   5.778  13.318  0.1007 -0.1873  0.0040
  179DOPC   O1321885   3.937   5.806  13.234  0.0412  0.6901 -0.0324
  179DOPC   O1421886   3.709   5.719  13.246  0.7696  0.0463 -0.2814
  179DOPC   O1221887   3.775   5.904  13.388  0.2170 -0.4500 -0.6536
  179DOPC   O1121888   3.859   5.677  13.441 -0.2892  0.4298  0.3645
  179DOPC    C121889   3.784   5.690  13.568  0.2026 -0.2454 -0.6192
  179DOPC    HA21890   3.675   5.683  13.548 -0.5516  1.5372  2.2387
  179DOPC    HB21891   3.804   5.786  13.621  0.6132 -0.2385 -0.7864
  179DOPC    C221892   3.839   5.578  13.675 -0.1326  0.4679 -0.4476
  179DOPC    HS21893   3.798   5.586  13.778 -0.8495 -1.1416 -0.5672
  179DOPC   O2121894   3.983   5.578  13.666  0.0128 -0.1183  0.2887
  179DOPC   C2121895   4.041   5.653  13.754  0.8615 -0.0462  0.2554
  179DOPC   O2221896   3.985   5.707  13.849  0.0121 -0.0391 -0.1214
  179DOPC   C2221897   4.192   5.654  13.741  0.1641  0.6374  0.7840
  179DOPC   H2R21898   4.224   5.746  13.796  0.1449  2.2562 -1.7346
  179DOPC   H2S21899   4.215   5.668  13.633 -1.6669 -0.7477  0.1626
  179DOPC    C321900   3.788   5.437  13.644  0.4138  0.0203  0.3099
  179DOPC    HX21901   3.809   5.419  13.536 -1.6123 -0.7921 -0.0009
  179DOPC    HY21902   3.678   5.446  13.655  0.5768  0.8268  1.4011
  179DOPC   O3121903   3.832   5.333  13.734 -0.2366  0.3704  0.1852
  179DOPC   C3121904   3.945   5.267  13.693  0.5356  0.2274  0.2977
  179DOPC   O3221905   4.006   5.293  13.592  0.3552  0.3408  0.5495
  179DOPC   C3221906   3.991   5.162  13.796  0.4634 -0.0847 -0.1545
  179DOPC   H2X21907   3.966   5.179  13.903 -1.8396 -1.9148 -0.3241
  179DOPC   H2Y21908   3.925   5.077  13.769  1.4972  0.0826 -3.6957
  179DOPC   C2321909   4.257   5.523  13.788  0.2083 -0.3019  0.9904
  179DOPC   H3R21910   4.221   5.444  13.719 -0.4811 -1.6014  2.7738
  179DOPC   H3S21911   4.220   5.509  13.892 -0.6557  2.2630  1.1143
  179DOPC   C2421912   4.407   5.535  13.788 -0.0774 -0.0269  0.1535
  179DOPC   H4R21913   4.444   5.615  13.856 -4.3022  0.7839  1.8058
  179DOPC   H4S21914   4.440   5.545  13.682 -0.2493 -3.0314 -0.2703
  179DOPC   C2521915   4.476   5.406  13.837 -0.3330  0.4566 -0.0918
  179DOPC   H5R21916   4.418   5.330  13.779  0.7452 -0.8138  0.4392
  179DOPC   H5S21917   4.463   5.392  13.946 -0.0538  1.1124  0.0264
  179DOPC   C2621918   4.617   5.397  13.786 -0.0902 -0.0498 -0.2357
  179DOPC   H6R21919   4.604   5.425  13.679 -1.9880 -0.4366 -0.1476
  179DOPC   H6S21920   4.660   5.295  13.785  1.1271  0.4328  0.7941
  179DOPC   C2721921   4.710   5.485  13.866 -0.1866 -0.0425  0.0893
  179DOPC   H7R21922   4.700   5.452  13.972  5.1257  1.3775  1.3181
  179DOPC   H7S21923   4.664   5.586  13.854 -0.2011 -0.1395 -0.7109
  179DOPC   C2821924   4.855   5.492  13.812  0.3207 -0.3648 -0.2234
  179DOPC   H8R21925   4.862   5.552  13.719  1.4570  0.9485  0.6697
  179DOPC   H8S21926   4.881   5.387  13.788  2.6229  0.5409 -2.0378
  179DOPC   C2921927   4.954   5.552  13.907  0.0481 -0.1952 -0.2926
  179DOPC   H9R21928   4.989   5.650  13.872  1.1793  1.0371  3.7549
  179DOPC  C21021929   5.024   5.498  14.006  0.2557 -0.1873  0.0367
  179DOPC  H10R21930   5.081   5.560  14.077  0.7635 -1.6542  0.9644
  179DOPC  C21121931   5.016   5.351  14.049  0.7272 -0.2609  0.2692
  179DOPC  H11R21932   4.957   5.290  13.977  1.2983 -0.1621 -0.2913
  179DOPC  H11S21933   4.959   5.338  14.143 -0.2675 -3.9843 -0.6747
  179DOPC  C21221934   5.154   5.283  14.060  1.0228  0.0673 -0.6299
  179DOPC  H12R21935   5.143   5.197  14.130  1.7714  1.3409  1.1295
  179DOPC  H12S21936   5.229   5.347  14.111  0.3484  0.9501 -0.7211
  179DOPC  C21321937   5.204   5.242  13.917 -0.5858 -0.3707 -0.8299
  179DOPC  H13R21938   5.175   5.329  13.855  0.2646  0.8142  0.3575
  179DOPC  H13S21939   5.145   5.156  13.880 -3.2867  0.6616  0.8024
  179DOPC  C21421940   5.357   5.221  13.908  0.3584 -0.1091 -0.3878
  179DOPC  H14R21941   5.379   5.132  13.970  0.9526 -1.6248 -2.6627
  179DOPC  H14S21942   5.411   5.311  13.945 -0.0512 -0.2633  0.6206
  179DOPC  C21521943   5.403   5.179  13.771  0.3065 -0.4990  0.0667
  179DOPC  H15R21944   5.397   5.266  13.703  3.3402  0.0236  0.3211
  179DOPC  H15S21945   5.349   5.085  13.745 -2.6149  0.2964  2.6150
  179DOPC  C21621946   5.544   5.129  13.777  0.5530 -0.1344 -0.0919
  179DOPC  H16R21947   5.546   5.057  13.861  1.3320  0.2614  0.2416
  179DOPC  H16S21948   5.604   5.215  13.815  1.3325 -0.5759 -0.2984
  179DOPC  C21721949   5.595   5.085  13.639 -0.7111 -0.4148  0.1239
  179DOPC  H17R21950   5.584   5.166  13.563 -1.4931  0.5610  1.2461
  179DOPC  H17S21951   5.530   5.005  13.596 -1.2685  0.2625 -0.3234
  179DOPC  C21821952   5.747   5.045  13.654 -0.0287 -0.1588  0.5021
  179DOPC  H18R21953   5.795   5.007  13.561 -0.4286  0.4531  0.0350
  179DOPC  H18S21954   5.741   4.967  13.732 -1.5794 -0.3980  0.1761
  179DOPC  H18T21955   5.800   5.132  13.698 -0.6433  0.3222  0.3103
  179DOPC   C3321956   4.141   5.129  13.782 -0.4008  0.3341  0.7301
  179DOPC   H3X21957   4.188   5.228  13.765 -1.2825  0.3830 -1.8556
  179DOPC   H3Y21958   4.162   5.075  13.688  1.3528 -1.8215  2.2445
  179DOPC   C3421959   4.217   5.074  13.906 -0.0183 -0.4438  0.0226
  179DOPC   H4X21960   4.314   5.043  13.861 -0.0932 -2.3374  1.0736
  179DOPC   H4Y21961   4.182   4.976  13.945  0.2986 -0.2696  0.7726
  179DOPC   C3521962   4.217   5.172  14.024  0.0382 -0.0501  0.3828
  179DOPC   H5X21963   4.117   5.172  14.073 -0.0417 -1.5486  0.2797
  179DOPC   H5Y21964   4.236   5.274  13.985 -0.3635 -0.7056 -1.5900
  179DOPC   C3621965   4.330   5.132  14.123  0.0022  0.2858  0.7380
  179DOPC   H6X21966   4.309   5.026  14.150 -2.1226  0.5416  0.3306
  179DOPC   H6Y21967   4.421   5.122  14.060 -1.1350 -0.0659 -0.9315
  179DOPC   C3721968   4.336   5.229  14.239  0.6791 -0.7353 -0.6512
  179DOPC   H7X21969   4.394   5.322  14.216  0.2061 -0.0053  0.9373
  179DOPC   H7Y21970   4.239   5.262  14.280  1.1238 -1.5928  1.2156
  179DOPC   C3821971   4.400   5.152  14.364 -0.0332  0.1372  0.8923
  179DOPC   H8X21972   4.429   5.232  14.434 -0.6312 -0.1209  1.4446
  179DOPC   H8Y21973   4.495   5.103  14.333 -1.1824 -2.2144  0.8180
  179DOPC   C3921974   4.327   5.037  14.425  0.5447  1.0288 -0.2768
  179DOPC   H9X21975   4.224   5.025  14.388  0.2571 -0.9829  0.9845
  179DOPC  C31021976   4.364   4.963  14.535  0.0687  0.1720 -0.2097
  179DOPC  H10X21977   4.308   4.870  14.552  0.0344  0.3317  0.6194
  179DOPC  C31121978   4.491   4.991  14.620 -0.3496  0.8172 -0.0782
  179DOPC  H11X21979   4.555   5.054  14.555 -1.9446  2.5397 -0.0708
  179DOPC  H11Y21980   4.552   4.901  14.639  0.9151  1.4968 -0.7855
  179DOPC  C31221981   4.459   5.071  14.753  0.5516  0.5971  0.7852
  179DOPC  H12X21982   4.408   5.166  14.725  1.2735  0.3207 -1.7278
  179DOPC  H12Y21983   4.553   5.093  14.808  1.1319  0.2897 -0.0600
  179DOPC  C31321984   4.369   4.985  14.851 -0.5755 -0.2048 -0.5649
  179DOPC  H13X21985   4.281   5.044  14.883 -0.9489 -0.8392 -0.4226
  179DOPC  H13Y21986   4.332   4.887  14.813 -0.9893  0.1263 -1.0297
  179DOPC  C31421987   4.433   4.954  14.993 -0.1492  0.0194  0.1175
  179DOPC  H14X21988   4.485   5.049  15.017 -0.3176  1.0196 -3.0054
  179DOPC  H14Y21989   4.357   4.923  15.068  1.0813 -1.6743  0.7339
  179DOPC  C31521990   4.531   4.829  14.983  0.4244  0.0645 -0.0462
  179DOPC  H15X21991   4.615   4.846  15.054 -0.6739  0.1793  1.2531
  179DOPC  H15Y21992   4.579   4.847  14.884 -0.6933  0.2037 -0.5793
  179DOPC  C31621993   4.476   4.684  14.987 -0.2929  1.0674  0.2375
  179DOPC  H16X21994   4.401   4.658  15.065  0.2228 -1.0543  0.0910
  179DOPC  H16Y21995   4.411   4.659  14.901 -0.4786 -1.0196  0.9297
  179DOPC  C31721996   4.597   4.588  14.991 -0.8812  0.0653  0.7817
  179DOPC  H17X21997   4.673   4.623  14.917  1.4895 -2.8298  1.6330
  179DOPC  H17Y21998   4.661   4.614  15.078 -0.5015  0.6113  0.3471
  179DOPC  C31821999   4.567   4.440  14.980 -0.5365  0.0254 -0.1702
  179DOPC  H18X22000   4.529   4.426  14.877 -1.5924 -0.4924  0.2751
  179DOPC  H18Y22001   4.650   4.368  14.991 -2.1187 -1.7226  0.9705
  179DOPC  H18Z22002   4.501   4.423  15.068  1.1336 -1.2528  0.8953
  180DOPC     N22003   5.393   3.511  12.780 -0.2072  0.1996 -0.1805
  180DOPC   C1222004   5.478   3.635  12.819  0.9248 -0.2756  0.0590
  180DOPC  H12A22005   5.418   3.693  12.889  1.0372  0.8228 -0.7294
  180DOPC  H12B22006   5.496   3.696  12.732 -0.8834  1.4797  0.8345
  180DOPC   C1322007   5.342   3.445  12.900 -0.4636 -0.0111 -0.3031
  180DOPC  H13A22008   5.269   3.509  12.949 -2.7852 -1.9844 -0.9946
  180DOPC  H13B22009   5.304   3.346  12.880  0.4319  0.0320 -2.4665
  180DOPC  H13C22010   5.424   3.443  12.971 -0.2021  0.6845 -0.5732
  180DOPC   C1422011   5.475   3.405  12.706 -0.6316 -0.1090 -0.2254
  180DOPC  H14A22012   5.520   3.450  12.619 -0.1381 -0.5287 -0.1917
  180DOPC  H14B22013   5.554   3.388  12.778 -1.6246  1.7643  1.3682
  180DOPC  H14C22014   5.425   3.311  12.686 -1.1945  0.4878 -1.8169
  180DOPC   C1522015   5.282   3.557  12.695 -0.0457 -0.0324 -0.6331
  180DOPC  H15A22016   5.225   3.478  12.648 -2.4751  0.3654  1.4185
  180DOPC  H15B22017   5.322   3.627  12.622 -1.5362 -0.4366 -1.8854
  180DOPC  H15C22018   5.200   3.606  12.746  1.4906  0.9570  1.0157
  180DOPC   C1122019   5.610   3.608  12.896 -1.3396  0.4524 -0.7584
  180DOPC  H11A22020   5.678   3.550  12.830  1.3265  1.3596  1.0397
  180DOPC  H11B22021   5.642   3.712  12.917 -2.1667  0.4520  0.6808
  180DOPC     P22022   5.660   3.579  13.157 -0.2846 -0.2698 -0.1075
  180DOPC   O1322023   5.806   3.607  13.140 -0.2225  0.0096 -0.6839
  180DOPC   O1422024   5.628   3.496  13.268 -0.1589  0.7705  0.5616
  180DOPC   O1222025   5.592   3.531  13.021  0.1117  0.3086  0.5888
  180DOPC   O1122026   5.582   3.714  13.176 -0.3188  0.0890 -0.5761
  180DOPC    C122027   5.460   3.723  13.252 -0.0506 -0.6118  0.6212
  180DOPC    HA22028   5.412   3.624  13.266  1.5462 -1.3526  1.1492
  180DOPC    HB22029   5.390   3.784  13.191  1.1704 -2.4110 -2.8339
  180DOPC    C222030   5.478   3.780  13.394  0.2611 -0.2539 -0.2642
  180DOPC    HS22031   5.541   3.708  13.451  0.4876 -1.9593 -2.5773
  180DOPC   O2122032   5.342   3.790  13.452 -0.4058 -0.3610 -0.7059
  180DOPC   C2122033   5.301   3.673  13.510 -0.5758  0.6767  0.1159
  180DOPC   O2222034   5.364   3.567  13.518 -0.5842 -0.4223 -0.3854
  180DOPC   C2222035   5.176   3.702  13.584 -1.5001 -0.1045  0.2018
  180DOPC   H2R22036   5.101   3.623  13.567  1.3290 -2.9775  0.0854
  180DOPC   H2S22037   5.141   3.798  13.539 -1.5633 -0.3643 -0.3051
  180DOPC    C322038   5.554   3.915  13.379 -0.1052  0.1808 -0.3674
  180DOPC    HX22039   5.488   3.984  13.321 -0.0295 -0.2787 -1.0108
  180DOPC    HY22040   5.641   3.897  13.313  0.1185  1.1879 -0.3755
  180DOPC   O3122041   5.583   3.980  13.499 -0.0008 -0.3140  0.0323
  180DOPC   C3122042   5.705   3.960  13.547 -0.2394 -0.1402 -0.3839
  180DOPC   O3222043   5.790   3.888  13.505 -0.5549  0.1650 -0.0854
  180DOPC   C3222044   5.707   4.038  13.678  0.3467  0.1247  0.1290
  180DOPC   H2X22045   5.646   4.131  13.672  1.4147  0.7616 -1.9914
  180DOPC   H2Y22046   5.670   3.978  13.764 -2.6948  2.7451  0.8442
  180DOPC   C2322047   5.199   3.734  13.730 -0.0906 -0.4952 -0.8917
  180DOPC   H3R22048   5.104   3.765  13.778  1.6425  2.5730  0.8166
  180DOPC   H3S22049   5.274   3.815  13.737 -0.7514  0.0134  0.5802
  180DOPC   C2422050   5.247   3.613  13.818  0.2989  0.0112  0.1819
  180DOPC   H4R22051   5.350   3.584  13.788  0.0347 -0.1044 -0.6490
  180DOPC   H4S22052   5.179   3.532  13.783  0.3135  0.9895 -2.2892
  180DOPC   C2522053   5.233   3.642  13.964 -0.1939 -0.2882  0.7861
  180DOPC   H5R22054   5.201   3.553  14.024  0.1301  0.4708  2.1308
  180DOPC   H5S22055   5.155   3.719  13.978  0.8433  1.7148 -3.1652
  180DOPC   C2622056   5.363   3.685  14.036 -0.0427  0.0236  0.0391
  180DOPC   H6R22057   5.421   3.590  14.040 -3.5701 -2.2833  0.1401
  180DOPC   H6S22058   5.345   3.721  14.139  2.7633  0.4015  0.4872
  180DOPC   C2722059   5.438   3.800  13.968 -0.5070  0.3785  0.1353
  180DOPC   H7R22060   5.368   3.882  13.943  0.8029  1.2841 -0.6875
  180DOPC   H7S22061   5.479   3.751  13.877  2.3013 -0.2763  1.6082
  180DOPC   C2822062   5.572   3.854  14.034  0.2198 -0.0865  0.4715
  180DOPC   H8R22063   5.549   3.932  14.110  1.4418  0.5034  0.2525
  180DOPC   H8S22064   5.630   3.916  13.962 -2.1480  2.5237  0.6325
  180DOPC   C2922065   5.659   3.755  14.103  0.5372 -0.2801  0.5723
  180DOPC   H9R22066   5.701   3.675  14.040 -0.6463 -2.5758  2.5410
  180DOPC  C21022067   5.693   3.753  14.230  0.0730  0.2987  0.6334
  180DOPC  H10R22068   5.754   3.672  14.273  0.8837  0.2987 -0.4899
  180DOPC  C21122069   5.648   3.850  14.335 -0.1634  0.0260  0.6341
  180DOPC  H11R22070   5.539   3.867  14.325 -0.1872 -1.2714 -2.2411
  180DOPC  H11S22071   5.695   3.951  14.330 -0.4524  0.2813  2.5365
  180DOPC  C21222072   5.686   3.801  14.478 -0.0265 -0.7736 -0.2652
  180DOPC  H12R22073   5.633   3.707  14.502  0.7139 -1.3852 -0.9693
  180DOPC  H12S22074   5.648   3.881  14.546  1.5809  0.9675 -1.2992
  180DOPC  C21322075   5.837   3.797  14.509 -0.2963 -0.7586  0.3295
  180DOPC  H13R22076   5.887   3.877  14.450 -1.0106 -1.3990 -1.2016
  180DOPC  H13S22077   5.882   3.699  14.481  0.9800 -0.5855  1.6096
  180DOPC  C21422078   5.875   3.823  14.652  0.4183 -0.5179 -0.0361
  180DOPC  H14R22079   5.835   3.923  14.678 -2.1666 -1.2359 -0.9843
  180DOPC  H14S22080   5.984   3.819  14.673  0.1707  0.1651  1.5208
  180DOPC  C21522081   5.819   3.713  14.746 -0.0320 -0.2621  0.2405
  180DOPC  H15R22082   5.842   3.611  14.709 -1.5103 -0.5380  0.0295
  180DOPC  H15S22083   5.709   3.729  14.748  0.0161 -0.0128  1.1221
  180DOPC  C21622084   5.876   3.715  14.890  0.2577  0.0875  0.8344
  180DOPC  H16R22085   5.866   3.817  14.932 -0.6483  0.2707  0.2000
  180DOPC  H16S22086   5.980   3.680  14.872 -0.3470 -0.9257 -0.9225
  180DOPC  C21722087   5.797   3.628  14.988  0.5932  0.1498  0.2046
  180DOPC  H17R22088   5.770   3.523  14.963  0.4247  0.1451  0.4082
  180DOPC  H17S22089   5.697   3.674  14.994  1.3058  1.8893 -0.4986
  180DOPC  C21822090   5.871   3.628  15.120  0.5489 -0.4113  0.6149
  180DOPC  H18R22091   5.828   3.579  15.210  0.6411 -1.5972  0.0311
  180DOPC  H18S22092   5.916   3.725  15.151 -0.2839  0.2699 -0.2532
  180DOPC  H18T22093   5.958   3.560  15.113 -0.7293 -2.2800  1.9302
  180DOPC   C3322094   5.851   4.082  13.724  0.5088  0.4153 -0.4147
  180DOPC   H3X22095   5.883   4.175  13.673 -0.3888  0.8395 -0.2272
  180DOPC   H3Y22096   5.926   4.003  13.705  1.6282  1.0971  0.9994
  180DOPC   C3422097   5.847   4.120  13.875 -0.1167 -0.0572  0.1952
  180DOPC   H4X22098   5.821   4.031  13.936 -1.3127 -0.6540 -1.1442
  180DOPC   H4Y22099   5.778   4.206  13.893  0.0534  0.3809 -1.1281
  180DOPC   C3522100   5.995   4.151  13.917  0.3891  0.4033 -0.0252
  180DOPC   H5X22101   6.022   4.251  13.878 -1.9510  0.5463 -1.5210
  180DOPC   H5Y22102   6.062   4.080  13.865  0.5271  0.4548  0.0824
  180DOPC   C3622103   6.028   4.149  14.067 -0.1590  0.4544  0.0454
  180DOPC   H6X22104   5.964   4.226  14.115  0.1933  0.4941  0.4548
  180DOPC   H6Y22105   6.013   4.051  14.118  1.4603  0.0113 -0.2618
  180DOPC   C3722106   6.178   4.179  14.087 -0.4749 -0.2229 -0.8553
  180DOPC   H7X22107   6.241   4.119  14.018  1.1343  0.4401 -0.0190
  180DOPC   H7Y22108   6.200   4.284  14.059 -3.5739  0.6672 -0.3389
  180DOPC   C3822109   6.230   4.130  14.229  0.3935 -0.1707  0.2687
  180DOPC   H8X22110   6.209   4.021  14.234  1.8519 -0.6017 -1.6776
  180DOPC   H8Y22111   6.161   4.175  14.304 -0.6225 -1.3615  0.0857
  180DOPC   C3922112   6.377   4.159  14.260 -0.0238  0.3204  0.1068
  180DOPC   H9X22113   6.445   4.088  14.211 -1.5073 -1.0762 -0.0030
  180DOPC  C31022114   6.435   4.265  14.319 -0.2212  0.0149  0.4524
  180DOPC  H10X22115   6.542   4.258  14.343 -0.2186 -1.4474  0.1116
  180DOPC  C31122116   6.363   4.388  14.364 -0.1946  0.5478  0.5664
  180DOPC  H11X22117   6.253   4.390  14.345 -1.0384 -2.3218  4.1213
  180DOPC  H11Y22118   6.394   4.476  14.303 -0.8588 -1.6527 -3.2776
  180DOPC  C31222119   6.386   4.414  14.514  0.0115 -0.6666  0.3175
  180DOPC  H12X22120   6.488   4.456  14.530  0.1759 -0.8861 -0.1522
  180DOPC  H12Y22121   6.395   4.321  14.574  2.6954  0.6610  2.1939
  180DOPC  C31322122   6.285   4.512  14.579 -0.0559  0.6617  0.3969
  180DOPC  H13X22123   6.185   4.487  14.538 -1.2215  2.7362  1.7887
  180DOPC  H13Y22124   6.281   4.480  14.685 -0.9457 -0.6929 -0.0287
  180DOPC  C31422125   6.325   4.661  14.573  0.3201  0.0953 -0.7362
  180DOPC  H14X22126   6.436   4.669  14.572  0.3148  0.2868 -0.1236
  180DOPC  H14Y22127   6.272   4.713  14.490 -1.9757 -1.3380 -0.2397
  180DOPC  C31522128   6.288   4.735  14.701 -0.4366  0.2786  0.0466
  180DOPC  H15X22129   6.317   4.681  14.793 -1.6969 -1.9308 -0.7829
  180DOPC  H15Y22130   6.177   4.735  14.705 -0.4906  2.2234 -0.1238
  180DOPC  C31622131   6.343   4.876  14.697  0.0214  0.0755 -0.0392
  180DOPC  H16X22132   6.451   4.860  14.718 -0.0867  0.3472  0.7464
  180DOPC  H16Y22133   6.324   4.910  14.593 -1.0014 -0.2176  0.0438
  180DOPC  C31722134   6.291   4.971  14.815  0.2236  0.2904 -0.4222
  180DOPC  H17X22135   6.181   4.988  14.806  0.3544  1.3027 -0.1470
  180DOPC  H17Y22136   6.291   4.933  14.919  2.0826 -1.9207 -1.1415
  180DOPC  C31822137   6.363   5.101  14.815  0.9167  0.6671  0.2024
  180DOPC  H18X22138   6.473   5.094  14.824  0.9353  0.4193 -0.2277
  180DOPC  H18Y22139   6.330   5.160  14.727 -2.7132  1.5114  1.9152
  180DOPC  H18Z22140   6.320   5.173  14.889 -1.2176 -1.5218  1.2449
  181DOPC     N22141   6.832   2.584  12.887  1.0923 -0.4616 -0.2270
  181DOPC   C1222142   6.764   2.721  12.853 -0.0733  0.1960  0.6206
  181DOPC  H12A22143   6.657   2.710  12.859  0.0044  0.1958  2.5001
  181DOPC  H12B22144   6.795   2.744  12.752  0.4979 -1.4573  0.3846
  181DOPC   C1322145   6.787   2.473  12.795  0.1329 -0.5548 -0.1484
  181DOPC  H13A22146   6.841   2.381  12.815  0.7636 -0.2302 -0.3246
  181DOPC  H13B22147   6.679   2.465  12.789  0.1376 -1.4289  0.7161
  181DOPC  H13C22148   6.817   2.493  12.693  1.6053  1.3960  0.5942
  181DOPC   C1422149   6.785   2.540  13.029 -0.3690 -0.6155  0.6812
  181DOPC  H14A22150   6.681   2.514  13.020 -0.0888 -1.2520 -1.1773
  181DOPC  H14B22151   6.837   2.450  13.059 -0.7809 -1.8757 -2.0322
  181DOPC  H14C22152   6.789   2.629  13.089 -1.4561 -0.9713  1.3185
  181DOPC   C1522153   6.984   2.601  12.875  0.1172 -1.0011  0.4087
  181DOPC  H15A22154   7.023   2.507  12.911  0.3899 -0.2592  2.1455
  181DOPC  H15B22155   7.026   2.682  12.932  1.3816 -0.5417 -1.0986
  181DOPC  H15C22156   7.013   2.606  12.771 -1.4217  0.6390  0.0181
  181DOPC   C1122157   6.799   2.838  12.946 -0.0508 -0.4087 -0.5027
  181DOPC  H11A22158   6.737   2.925  12.917  1.3651  0.4779 -0.9999
  181DOPC  H11B22159   6.768   2.805  13.048  0.1300  1.3220  0.1626
  181DOPC     P22160   6.961   2.987  13.061  0.1680  0.0988  0.2752
  181DOPC   O1322161   6.861   3.093  13.046 -0.3235  0.1021 -0.1106
  181DOPC   O1422162   7.103   3.026  13.047  0.2539 -0.6316 -1.0445
  181DOPC   O1222163   6.933   2.877  12.948 -0.2541  0.3624 -0.6491
  181DOPC   O1122164   6.930   2.906  13.195 -0.1913 -0.3309  0.0800
  181DOPC    C122165   7.001   2.787  13.219  0.0673  0.0779 -0.1559
  181DOPC    HA22166   7.097   2.772  13.165  0.8392 -0.0294  1.2021
  181DOPC    HB22167   6.936   2.700  13.196  1.4182 -1.0836  0.2397
  181DOPC    C222168   7.036   2.767  13.369 -0.2025  1.0107 -0.8203
  181DOPC    HS22169   7.073   2.662  13.375 -2.1188  0.2251 -1.9885
  181DOPC   O2122170   6.926   2.796  13.458 -0.3001 -0.4726  0.3049
  181DOPC   C2122171   6.828   2.713  13.444  0.2201 -0.0490  1.4224
  181DOPC   O2222172   6.814   2.619  13.361 -0.0180 -0.7097 -0.6963
  181DOPC   C2222173   6.720   2.757  13.536 -0.5083  0.4524  0.5507
  181DOPC   H2R22174   6.703   2.863  13.508 -1.0846  0.5438  1.2093
  181DOPC   H2S22175   6.762   2.756  13.639  1.3058  1.7364 -0.1219
  181DOPC    C322176   7.155   2.865  13.404 -0.2691  0.3361 -0.7440
  181DOPC    HX22177   7.123   2.971  13.402 -2.8792 -0.2149  2.1470
  181DOPC    HY22178   7.233   2.847  13.328 -0.2002  2.0531 -1.1020
  181DOPC   O3122179   7.203   2.840  13.536 -0.4753  0.1759 -0.6917
  181DOPC   C3122180   7.334   2.861  13.557 -1.2695  0.1581 -0.1769
  181DOPC   O3222181   7.422   2.887  13.475  0.2670  0.7852 -0.1499
  181DOPC   C3222182   7.359   2.833  13.708  0.3050 -0.9378  0.2017
  181DOPC   H2X22183   7.330   2.922  13.768  0.0903  0.3964 -1.7961
  181DOPC   H2Y22184   7.303   2.739  13.728 -0.5548 -0.7870 -1.3737
  181DOPC   C2322185   6.598   2.666  13.532  0.7084  0.1993 -0.1387
  181DOPC   H3R22186   6.624   2.559  13.551 -3.4350 -0.8730  0.3363
  181DOPC   H3S22187   6.556   2.672  13.429  0.8160 -0.9954 -0.2661
  181DOPC   C2422188   6.491   2.707  13.638 -0.2514 -0.6844 -0.4795
  181DOPC   H4R22189   6.478   2.814  13.612  1.1509 -0.4406 -0.2981
  181DOPC   H4S22190   6.536   2.700  13.739 -0.2361 -0.9082 -0.5018
  181DOPC   C2522191   6.364   2.623  13.624  0.4331 -0.0801 -0.4273
  181DOPC   H5R22192   6.384   2.513  13.621  1.1798  0.0292  0.2525
  181DOPC   H5S22193   6.319   2.630  13.523  1.1302 -1.3969 -0.8603
  181DOPC   C2622194   6.276   2.645  13.747  0.0318  0.8292 -0.5265
  181DOPC   H6R22195   6.243   2.750  13.736 -1.1334  0.5454  0.1006
  181DOPC   H6S22196   6.341   2.629  13.835  1.4940  0.4272 -1.6439
  181DOPC   C2722197   6.164   2.541  13.760 -0.2369 -0.2363 -0.1760
  181DOPC   H7R22198   6.199   2.438  13.780  0.1943 -0.1709 -0.5678
  181DOPC   H7S22199   6.117   2.535  13.659  0.2202 -0.9599 -0.3506
  181DOPC   C2822200   6.081   2.581  13.882 -0.3817 -0.2474  0.1462
  181DOPC   H8R22201   6.140   2.594  13.976  0.5251  2.3737 -0.6924
  181DOPC   H8S22202   6.021   2.494  13.916 -0.8225  0.3204  0.8512
  181DOPC   C2922203   6.000   2.704  13.869  0.1794 -0.4214  0.6447
  181DOPC   H9R22204   5.934   2.692  13.782  0.9730  0.5586 -0.1147
  181DOPC  C21022205   6.005   2.828  13.929 -0.1539 -0.4312  0.1864
  181DOPC  H10R22206   5.937   2.907  13.893  0.3332 -2.0615 -5.0914
  181DOPC  C21122207   6.108   2.870  14.037  0.1218  0.2383 -0.0841
  181DOPC  H11R22208   6.118   2.980  14.038 -0.1047  0.2807  1.9717
  181DOPC  H11S22209   6.208   2.828  14.015  0.7344  1.7818 -0.3318
  181DOPC  C21222210   6.062   2.816  14.172  0.1282  0.1506 -0.0764
  181DOPC  H12R22211   6.060   2.706  14.156 -0.4179  0.2002 -0.3478
  181DOPC  H12S22212   5.966   2.858  14.208 -0.9764 -2.6963  0.5349
  181DOPC  C21322213   6.172   2.839  14.275  0.1018  0.2173  0.6988
  181DOPC  H13R22214   6.279   2.810  14.264  0.6918  0.8232  3.8073
  181DOPC  H13S22215   6.144   2.802  14.376  1.0320 -1.1600  0.4846
  181DOPC  C21422216   6.192   2.995  14.286 -0.1761 -0.5119 -0.1883
  181DOPC  H14R22217   6.092   3.044  14.289 -0.6596 -1.5172  1.2420
  181DOPC  H14S22218   6.241   3.034  14.195  0.4092 -0.8008 -0.0009
  181DOPC  C21522219   6.264   3.046  14.411  0.0307 -0.1436  0.3520
  181DOPC  H15R22220   6.355   2.983  14.408 -0.6337 -1.1024 -0.3549
  181DOPC  H15S22221   6.204   3.012  14.499 -2.5783 -0.8095 -1.5593
  181DOPC  C21622222   6.284   3.195  14.428 -0.0815 -0.6282 -0.9272
  181DOPC  H16R22223   6.183   3.240  14.439 -0.3165 -1.1178 -1.0824
  181DOPC  H16S22224   6.326   3.247  14.339  1.2936 -0.2101 -0.0750
  181DOPC  C21722225   6.371   3.224  14.549 -0.1741 -0.5625  0.0521
  181DOPC  H17R22226   6.476   3.205  14.516 -0.9776 -3.6711 -1.1237
  181DOPC  H17S22227   6.352   3.146  14.626  1.6510  0.5136  1.6728
  181DOPC  C21822228   6.347   3.360  14.613  0.8477  0.3545 -0.6255
  181DOPC  H18R22229   6.401   3.379  14.708  0.3950  0.4493 -0.3849
  181DOPC  H18S22230   6.239   3.373  14.635  0.9807 -1.2083  1.1718
  181DOPC  H18T22231   6.384   3.447  14.554  0.3075  0.6703 -0.5036
  181DOPC   C3322232   7.511   2.809  13.741 -1.1217  0.0039 -0.8026
  181DOPC   H3X22233   7.568   2.903  13.725  0.0120  0.1246  2.8827
  181DOPC   H3Y22234   7.540   2.732  13.666 -1.1360 -0.7201 -0.0839
  181DOPC   C3422235   7.533   2.754  13.880 -0.2215  0.1286  0.0287
  181DOPC   H4X22236   7.496   2.649  13.876 -0.7468  0.1548  2.6074
  181DOPC   H4Y22237   7.473   2.812  13.953  2.1457  3.3464 -0.3570
  181DOPC   C3522238   7.676   2.750  13.929 -0.0930 -0.7573  1.1756
  181DOPC   H5X22239   7.728   2.693  13.849 -1.3321  3.0398 -2.7057
  181DOPC   H5Y22240   7.685   2.703  14.029  3.5883 -0.1786  1.2483
  181DOPC   C3622241   7.735   2.895  13.942  0.3576 -0.0228  1.1001
  181DOPC   H6X22242   7.728   2.950  13.846  1.3854  1.0979  1.6385
  181DOPC   H6Y22243   7.679   2.967  14.005  0.8187  2.8579 -1.5592
  181DOPC   C3722244   7.884   2.912  13.983 -0.4885 -0.1166  0.7663
  181DOPC   H7X22245   7.913   3.014  13.952  0.0948  0.2500  2.3787
  181DOPC   H7Y22246   7.906   2.910  14.092 -1.4443 -0.4389  0.9630
  181DOPC   C3822247   7.980   2.814  13.910 -0.4709  0.5881  0.7552
  181DOPC   H8X22248   7.953   2.806  13.803  1.6015 -1.3288  0.2994
  181DOPC   H8Y22249   7.959   2.715  13.956 -1.3746 -0.2569 -1.3901
  181DOPC   C3922250   8.127   2.860  13.919  0.7368  0.2392 -0.2156
  181DOPC   H9X22251   8.173   2.916  13.836  1.5301 -0.8818 -0.5586
  181DOPC  C31022252   8.206   2.838  14.023  0.0398 -0.1427  0.3693
  181DOPC  H10X22253   8.308   2.879  14.019  0.3061 -0.7356  0.8411
  181DOPC  C31122254   8.177   2.768  14.152  0.0015  0.5092 -0.4982
  181DOPC  H11X22255   8.072   2.732  14.155  0.0369  0.2944 -1.4501
  181DOPC  H11Y22256   8.193   2.839  14.236  1.7792 -1.3258  0.7999
  181DOPC  C31222257   8.265   2.645  14.196  0.2874 -0.1720  0.3170
  181DOPC  H12X22258   8.236   2.554  14.138 -0.0851  0.5907 -0.7183
  181DOPC  H12Y22259   8.239   2.623  14.302  1.0108 -0.1881  0.4926
  181DOPC  C31322260   8.414   2.653  14.175 -0.0886  0.1907 -0.1969
  181DOPC  H13X22261   8.443   2.546  14.165 -0.0731  0.3054 -1.7453
  181DOPC  H13Y22262   8.436   2.700  14.076 -1.4684 -0.9133 -1.0590
  181DOPC  C31422263   8.502   2.723  14.275  0.4344 -0.3105 -0.1842
  181DOPC  H14X22264   8.511   2.659  14.365  1.0636 -0.3007 -0.2348
  181DOPC  H14Y22265   8.604   2.735  14.233  0.3538  2.7698  0.2837
  181DOPC  C31522266   8.478   2.870  14.309 -0.3361 -0.1200 -0.4017
  181DOPC  H15X22267   8.375   2.874  14.351 -0.8066 -2.7514 -1.1506
  181DOPC  H15Y22268   8.475   2.925  14.213  0.8799 -1.8496 -1.4644
  181DOPC  C31622269   8.577   2.923  14.412 -0.2638 -0.1271 -0.1659
  181DOPC  H16X22270   8.541   2.868  14.502  1.0426 -1.1111 -0.2166
  181DOPC  H16Y22271   8.678   2.890  14.379  0.9540  0.9485  2.1920
  181DOPC  C31722272   8.571   3.079  14.426 -1.0457 -0.1753 -0.8021
  181DOPC  H17X22273   8.660   3.121  14.373 -0.4564 -0.4608 -0.0648
  181DOPC  H17Y22274   8.476   3.114  14.381 -0.5923  1.2227 -0.7366
  181DOPC  C31822275   8.581   3.121  14.569  0.3676  0.4413  0.5102
  181DOPC  H18X22276   8.508   3.203  14.583  1.3046  1.5040 -0.6061
  181DOPC  H18Y22277   8.566   3.044  14.648 -0.4462 -1.4218 -1.3488
  181DOPC  H18Z22278   8.678   3.174  14.583  0.0201  1.0662  0.5668
  182DOPC     N22279   1.474   0.857  12.842 -0.0491 -0.0814 -0.2970
  182DOPC   C1222280   1.467   0.767  12.966  0.0607 -0.2768  0.1370
  182DOPC  H12A22281   1.540   0.797  13.039  0.1625  0.7927 -0.3855
  182DOPC  H12B22282   1.488   0.665  12.939  2.1527 -0.2042  1.3379
  182DOPC   C1322283   1.383   0.797  12.734  0.1296 -0.8007 -0.2771
  182DOPC  H13A22284   1.439   0.712  12.699  0.9811 -0.9814  1.4270
  182DOPC  H13B22285   1.284   0.776  12.770  0.2107  1.6209  1.6074
  182DOPC  H13C22286   1.370   0.874  12.659  0.1761  0.5977  1.0964
  182DOPC   C1422287   1.612   0.859  12.787  0.3504  0.1108  0.0280
  182DOPC  H14A22288   1.669   0.911  12.863 -1.4752  0.3136  1.3126
  182DOPC  H14B22289   1.639   0.757  12.765 -2.5251 -0.8606  0.6772
  182DOPC  H14C22290   1.618   0.911  12.693  0.8889 -0.4753 -0.2679
  182DOPC   C1522291   1.421   0.992  12.869  0.2107  0.9951  0.2058
  182DOPC  H15A22292   1.486   1.042  12.939  1.6001 -1.1851  0.5700
  182DOPC  H15B22293   1.320   0.981  12.906  0.1971  1.9612  0.4746
  182DOPC  H15C22294   1.419   1.046  12.775 -2.5327 -1.9296 -1.6403
  182DOPC   C1122295   1.322   0.744  13.024  0.2105 -0.0442 -0.0866
  182DOPC  H11A22296   1.307   0.710  13.129 -0.8105 -0.8605 -0.4706
  182DOPC  H11B22297   1.291   0.850  13.034  2.1809  0.6277 -0.8114
  182DOPC     P22298   1.250   0.514  12.928 -0.4853  0.2531  0.1565
  182DOPC   O1322299   1.393   0.484  12.926 -0.8217 -0.1362  0.1846
  182DOPC   O1422300   1.172   0.467  12.817 -0.0387 -0.0685  0.3156
  182DOPC   O1222301   1.239   0.673  12.934 -0.0730 -0.5570  0.0346
  182DOPC   O1122302   1.194   0.457  13.063 -0.3088  0.9541 -0.0297
  182DOPC    C122303   1.071   0.505  13.113  0.2639  0.0035 -0.1128
  182DOPC    HA22304   0.996   0.445  13.057 -0.9883  1.2756  0.1472
  182DOPC    HB22305   1.049   0.613  13.098  2.5522  0.8091  1.7078
  182DOPC    C222306   1.036   0.474  13.258  0.2064 -0.0760  0.0831
  182DOPC    HS22307   0.941   0.524  13.283  0.6838 -0.4137  2.8148
  182DOPC   O2122308   1.142   0.512  13.341 -0.1237 -0.1631  0.0654
  182DOPC   C2122309   1.162   0.641  13.353 -0.4346  0.9489  0.1269
  182DOPC   O2222310   1.092   0.727  13.307  0.2824 -0.2398 -0.2984
  182DOPC   C2222311   1.298   0.668  13.428 -0.0101  0.3678  0.2645
  182DOPC   H2R22312   1.272   0.743  13.506 -0.8659 -1.6676  2.0449
  182DOPC   H2S22313   1.365   0.703  13.347  0.1751  1.6672  0.9414
  182DOPC    C322314   1.015   0.323  13.287 -0.2151  0.1355 -0.3015
  182DOPC    HX22315   1.100   0.267  13.241  0.4181  0.3342  0.5822
  182DOPC    HY22316   0.920   0.287  13.243 -1.2572 -0.1607  2.0314
  182DOPC   O3122317   0.992   0.303  13.429  0.1328  0.4747  0.0076
  182DOPC   C3122318   1.088   0.239  13.496 -0.6715  0.6669 -0.1559
  182DOPC   O3222319   1.193   0.202  13.444  0.3515 -0.1616 -0.5441
  182DOPC   C3222320   1.058   0.206  13.640 -0.7481 -0.5367 -0.9068
  182DOPC   H2X22321   0.951   0.194  13.665 -0.3676 -0.2297  0.9911
  182DOPC   H2Y22322   1.099   0.104  13.657 -1.4405 -0.5791  0.6430
  182DOPC   C2322323   1.341   0.539  13.504 -0.1577 -0.2082  0.8570
  182DOPC   H3R22324   1.372   0.463  13.429  2.1106  1.5892 -0.1503
  182DOPC   H3S22325   1.268   0.503  13.579 -0.0920 -0.5620  0.7506
  182DOPC   C2422326   1.469   0.572  13.588  0.1054 -1.0430 -0.2685
  182DOPC   H4R22327   1.549   0.589  13.513 -0.9882  0.5454 -1.1420
  182DOPC   H4S22328   1.488   0.491  13.662 -1.3419 -0.3491  0.9339
  182DOPC   C2522329   1.457   0.709  13.677  0.6152  0.5706 -0.4575
  182DOPC   H5R22330   1.370   0.700  13.746  0.0732 -3.1190 -1.3661
  182DOPC   H5S22331   1.442   0.787  13.600 -2.6904  0.5660  0.0238
  182DOPC   C2622332   1.593   0.752  13.744 -0.4239  0.3294  0.2408
  182DOPC   H6R22333   1.670   0.776  13.668  2.3386 -0.4846  2.6339
  182DOPC   H6S22334   1.631   0.659  13.792  4.4634  1.8010 -0.3278
  182DOPC   C2722335   1.593   0.867  13.835 -0.1692 -0.2547 -0.1654
  182DOPC   H7R22336   1.694   0.873  13.880 -1.2773 -1.9910  2.8551
  182DOPC   H7S22337   1.534   0.836  13.924 -0.4395 -0.1425 -0.3007
  182DOPC   C2822338   1.528   0.993  13.773 -0.5303 -1.0466 -0.0508
  182DOPC   H8R22339   1.420   0.974  13.760 -1.0165 -0.4257  2.6026
  182DOPC   H8S22340   1.575   1.016  13.675 -0.7688  2.0628  0.4593
  182DOPC   C2922341   1.559   1.114  13.863 -0.1000  0.1972 -0.4059
  182DOPC   H9R22342   1.663   1.113  13.897 -1.0318 -0.0523  2.7354
  182DOPC  C21022343   1.471   1.197  13.915 -0.0660 -0.3422  0.4306
  182DOPC  H10R22344   1.515   1.271  13.984 -2.6882  0.4310  1.3682
  182DOPC  C21122345   1.319   1.205  13.900  0.1789 -0.0112 -0.0760
  182DOPC  H11R22346   1.276   1.139  13.822 -3.3829  2.2585 -0.2997
  182DOPC  H11S22347   1.298   1.307  13.861 -1.3073  0.4636  1.7694
  182DOPC  C21222348   1.237   1.188  14.031 -0.4174  0.4961 -0.2717
  182DOPC  H12R22349   1.130   1.197  14.003  0.0114  1.9698 -1.6418
  182DOPC  H12S22350   1.278   1.275  14.086  1.4823 -1.6335  1.9119
  182DOPC  C21322351   1.279   1.056  14.100 -0.4126  0.0129  0.2497
  182DOPC  H13R22352   1.381   1.059  14.144  0.4933 -2.8426 -1.4236
  182DOPC  H13S22353   1.271   0.977  14.023  0.3422  0.6364 -0.4911
  182DOPC  C21422354   1.186   1.030  14.224 -0.6551  0.0295  0.4089
  182DOPC  H14R22355   1.201   1.119  14.289 -0.1309 -0.2548  0.6858
  182DOPC  H14S22356   1.225   0.942  14.280  0.2771  0.3248  0.2350
  182DOPC  C21522357   1.039   1.033  14.196 -0.2634  0.3214 -0.5456
  182DOPC  H15R22358   1.019   0.958  14.116  0.2940  0.0384 -0.4254
  182DOPC  H15S22359   1.005   1.127  14.148  1.3458  0.0968 -2.2564
  182DOPC  C21622360   0.955   0.982  14.316 -0.6435  0.0951 -0.1121
  182DOPC  H16R22361   0.972   0.872  14.322  1.4703  0.2867 -1.4534
  182DOPC  H16S22362   0.849   0.990  14.283 -1.0650 -1.3407  0.8156
  182DOPC  C21722363   0.974   1.074  14.448 -0.0460  0.5243  0.0703
  182DOPC  H17R22364   1.081   1.068  14.479 -0.3273  0.5494  1.0872
  182DOPC  H17S22365   0.907   1.027  14.523  0.4719 -0.3940 -0.0340
  182DOPC  C21822366   0.936   1.222  14.435 -0.2960 -0.7292  0.3131
  182DOPC  H18R22367   0.991   1.268  14.350 -0.1784 -0.0818  0.7329
  182DOPC  H18S22368   0.958   1.273  14.531 -0.9232  0.3091 -0.0736
  182DOPC  H18T22369   0.832   1.242  14.403  0.7890  3.1166 -1.5053
  182DOPC   C3322370   1.120   0.309  13.746 -0.5775 -0.2677 -0.0605
  182DOPC   H3X22371   1.229   0.325  13.732 -0.9151  0.8909 -1.5510
  182DOPC   H3Y22372   1.117   0.267  13.849 -0.7282 -0.2155 -0.0438
  182DOPC   C3422373   1.045   0.442  13.752  0.4910 -0.3635  0.2239
  182DOPC   H4X22374   0.936   0.431  13.771  0.0836  2.7092  0.2067
  182DOPC   H4Y22375   1.048   0.486  13.650  3.1093 -2.1593 -0.5759
  182DOPC   C3522376   1.092   0.538  13.860  0.4527 -0.1166  0.3611
  182DOPC   H5X22377   1.056   0.641  13.841 -0.7783 -0.5143  0.4661
  182DOPC   H5Y22378   1.201   0.543  13.880  0.6949 -0.9981 -0.6687
  182DOPC   C3622379   1.021   0.501  13.997  0.0484  0.3340  0.3717
  182DOPC   H6X22380   0.910   0.504  13.994  0.0328 -0.0929  0.5671
  182DOPC   H6Y22381   1.044   0.395  14.017 -0.2591  0.6912  2.8354
  182DOPC   C3722382   1.068   0.592  14.110 -0.0465 -0.2862 -0.8721
  182DOPC   H7X22383   1.175   0.575  14.134  0.5361  2.7124 -1.0366
  182DOPC   H7Y22384   1.049   0.699  14.087  3.0489  0.4597 -0.3636
  182DOPC   C3822385   0.980   0.564  14.228  0.0016 -0.1374  0.5994
  182DOPC   H8X22386   0.875   0.548  14.197  0.2817  1.9732 -1.7611
  182DOPC   H8Y22387   0.985   0.661  14.282 -1.5171  0.1852  0.2009
  182DOPC   C3922388   1.024   0.447  14.309  0.7664  0.5433 -1.0071
  182DOPC   H9X22389   0.998   0.346  14.274  0.8229  0.4491 -0.7788
  182DOPC  C31022390   1.105   0.448  14.411  0.3290 -0.5330 -0.3293
  182DOPC  H10X22391   1.135   0.352  14.456  1.3238 -0.1920 -0.2407
  182DOPC  C31122392   1.176   0.564  14.476  0.9417  0.8663 -0.0583
  182DOPC  H11X22393   1.192   0.644  14.400 -2.2835  2.9013  1.1853
  182DOPC  H11Y22394   1.276   0.536  14.515 -0.5715 -1.8657  2.2456
  182DOPC  C31222395   1.081   0.622  14.578 -0.7161  0.0957  0.1784
  182DOPC  H12X22396   0.977   0.609  14.542 -0.2556 -2.6797 -0.3216
  182DOPC  H12Y22397   1.105   0.728  14.601  0.0274  0.2731 -1.2566
  182DOPC  C31322398   1.091   0.549  14.713  0.2224  0.1777 -0.0762
  182DOPC  H13X22399   1.097   0.439  14.704 -0.2174 -0.0627  2.0495
  182DOPC  H13Y22400   1.185   0.577  14.765  0.1350 -1.4651  1.0283
  182DOPC  C31422401   0.972   0.595  14.796 -0.8553 -0.1628 -0.9159
  182DOPC  H14X22402   0.985   0.704  14.812 -1.4498 -0.2712  0.4537
  182DOPC  H14Y22403   0.871   0.574  14.754 -1.6092  0.3191  0.5832
  182DOPC  C31522404   0.980   0.532  14.941 -0.1094  0.5635 -0.9620
  182DOPC  H15X22405   1.079   0.561  14.984 -1.0632  0.0542  1.7207
  182DOPC  H15Y22406   0.979   0.421  14.947  1.5561  0.5307 -0.8183
  182DOPC  C31622407   0.889   0.594  15.042  0.1297 -0.5518 -0.2511
  182DOPC  H16X22408   0.851   0.692  15.006 -0.6941 -1.2642 -1.4128
  182DOPC  H16Y22409   0.807   0.522  15.067 -2.0725  1.9223  0.0762
  182DOPC  C31722410   0.952   0.647  15.171 -0.0479  0.2341 -0.2388
  182DOPC  H17X22411   1.002   0.557  15.212 -1.5556  0.9384  3.5645
  182DOPC  H17Y22412   1.029   0.721  15.138 -0.9379  0.7500 -1.2379
  182DOPC  C31822413   0.868   0.716  15.277  0.3407 -0.2892 -0.4641
  182DOPC  H18X22414   0.797   0.638  15.312  1.0582 -0.1327  1.5267
  182DOPC  H18Y22415   0.939   0.739  15.360  1.5819  1.0076 -1.8275
  182DOPC  H18Z22416   0.815   0.798  15.225 -0.9331 -1.3960 -0.9761
  183DOPC     N22417   5.643   4.825  12.563 -0.1971  0.6269  0.2071
  183DOPC   C1222418   5.602   4.959  12.619 -0.2586  0.4661 -0.5653
  183DOPC  H12A22419   5.510   4.943  12.674 -0.4468 -0.3179 -1.1009
  183DOPC  H12B22420   5.579   5.029  12.540  0.9825 -0.0274 -1.3857
  183DOPC   C1322421   5.661   4.724  12.675  0.0832 -0.3977  0.4242
  183DOPC  H13A22422   5.691   4.629  12.634  0.8102  0.1854 -0.4132
  183DOPC  H13B22423   5.733   4.757  12.749  0.9053  1.0143 -0.9500
  183DOPC  H13C22424   5.566   4.706  12.725 -1.1440 -2.1686 -2.3190
  183DOPC   C1422425   5.776   4.832  12.484  0.5261  0.8416 -0.6241
  183DOPC  H14A22426   5.857   4.868  12.545 -1.0339  2.0987  0.8133
  183DOPC  H14B22427   5.795   4.731  12.450  0.7216  0.8358 -0.4972
  183DOPC  H14C22428   5.764   4.906  12.407 -1.2234  2.0771  0.7589
  183DOPC   C1522429   5.528   4.769  12.478  0.4724  0.0111  0.6503
  183DOPC  H15A22430   5.531   4.793  12.372 -1.6593  0.1089  0.5723
  183DOPC  H15B22431   5.432   4.797  12.518  0.5807  0.5172  0.5713
  183DOPC  H15C22432   5.530   4.662  12.487 -0.8995  0.0770  2.1713
  183DOPC   C1122433   5.695   5.035  12.715  0.6366  0.5362 -0.6669
  183DOPC  H11A22434   5.787   5.052  12.655  1.9675 -0.3140  1.0622
  183DOPC  H11B22435   5.649   5.130  12.749 -0.2754 -0.3922  0.8178
  183DOPC     P22436   5.840   4.977  12.923 -0.0725  0.4009 -0.4248
  183DOPC   O1322437   5.811   5.093  13.006 -0.8072  0.7284  0.1219
  183DOPC   O1422438   5.962   4.959  12.838 -0.0459 -0.0558 -0.1812
  183DOPC   O1222439   5.716   4.953  12.833 -0.6572 -0.1116  0.2398
  183DOPC   O1122440   5.823   4.845  13.017 -0.1084 -0.1245  0.0546
  183DOPC    C122441   5.892   4.831  13.143 -0.1829 -0.0644  0.1124
  183DOPC    HA22442   5.958   4.918  13.159  0.7177 -1.0513  2.2571
  183DOPC    HB22443   5.961   4.744  13.135  0.0597  0.2929 -2.2379
  183DOPC    C222444   5.804   4.795  13.269  0.3566  0.0432  0.3527
  183DOPC    HS22445   5.753   4.699  13.249 -0.8743  0.2494  2.2316
  183DOPC   O2122446   5.713   4.903  13.295 -0.2224 -0.5014 -0.2935
  183DOPC   C2122447   5.601   4.902  13.235  0.0893  0.2191  0.0831
  183DOPC   O2222448   5.561   4.812  13.159 -0.5009 -0.0535  0.8827
  183DOPC   C2222449   5.517   5.027  13.269 -0.5339 -0.1929  0.4164
  183DOPC   H2R22450   5.536   5.089  13.178  1.9265 -1.6881 -0.1650
  183DOPC   H2S22451   5.569   5.074  13.355  0.4156 -1.4517  0.5467
  183DOPC    C322452   5.882   4.761  13.399  0.4288 -0.1888 -0.8397
  183DOPC    HX22453   5.805   4.748  13.477  1.1155  1.4374  0.1735
  183DOPC    HY22454   5.943   4.850  13.427  0.1641 -0.9966  2.9059
  183DOPC   O3122455   5.963   4.642  13.379  0.2985 -0.8658 -1.0034
  183DOPC   C3122456   6.020   4.611  13.494 -0.6285 -0.1564  0.1271
  183DOPC   O3222457   6.013   4.677  13.594  0.3029 -0.6037 -0.4697
  183DOPC   C3222458   6.085   4.478  13.476 -0.2073  0.3304  0.4755
  183DOPC   H2X22459   6.000   4.421  13.432  0.4834 -0.1209 -0.3171
  183DOPC   H2Y22460   6.163   4.481  13.396 -1.6285  0.6508 -0.9370
  183DOPC   C2322461   5.371   5.007  13.290  0.2730 -0.0205 -0.8278
  183DOPC   H3R22462   5.352   4.945  13.380 -1.1541  1.4086 -0.1119
  183DOPC   H3S22463   5.325   4.970  13.196 -2.5293 -3.1362  1.5014
  183DOPC   C2422464   5.301   5.141  13.323 -0.0646  1.1279 -0.6138
  183DOPC   H4R22465   5.305   5.200  13.229  1.7810 -1.1672 -2.0851
  183DOPC   H4S22466   5.359   5.189  13.405 -0.4208 -1.8517  1.5642
  183DOPC   C2522467   5.151   5.124  13.358 -0.3095  0.8126  0.5510
  183DOPC   H5R22468   5.129   5.025  13.403 -1.6148 -0.4941 -2.6021
  183DOPC   H5S22469   5.086   5.115  13.268  0.2779  2.6917 -0.1070
  183DOPC   C2622470   5.112   5.226  13.454  0.1554 -0.4420 -0.2505
  183DOPC   H6R22471   5.148   5.327  13.422 -0.5621  0.3103  1.2207
  183DOPC   H6S22472   5.156   5.210  13.555  0.7971  1.8853 -0.0945
  183DOPC   C2722473   4.961   5.250  13.478 -0.2855 -0.0454 -0.1709
  183DOPC   H7R22474   4.916   5.309  13.395 -0.2105 -0.1638 -0.2960
  183DOPC   H7S22475   4.949   5.300  13.576  1.6715  0.9234 -0.3658
  183DOPC   C2822476   4.889   5.116  13.505 -0.0834 -0.3824  0.5225
  183DOPC   H8R22477   4.924   5.069  13.600 -1.4985  1.1937  1.8991
  183DOPC   H8S22478   4.913   5.048  13.421 -0.5124  0.3791 -0.2277
  183DOPC   C2922479   4.736   5.120  13.522 -0.3960  0.3929  0.3094
  183DOPC   H9R22480   4.686   5.165  13.435 -0.4714  2.1250  1.1986
  183DOPC  C21022481   4.662   5.080  13.630 -0.4610 -0.4646 -0.2363
  183DOPC  H10R22482   4.553   5.087  13.620 -0.2955 -0.0660 -2.0780
  183DOPC  C21122483   4.720   5.024  13.760 -0.2447 -0.1433  0.2230
  183DOPC  H11R22484   4.796   5.095  13.799 -0.1657  0.7331 -1.4550
  183DOPC  H11S22485   4.772   4.926  13.753 -2.8501 -1.5819 -0.3040
  183DOPC  C21222486   4.609   5.002  13.866 -0.3525  0.4039  0.3183
  183DOPC  H12R22487   4.533   4.931  13.826  0.0028  0.4735 -0.4948
  183DOPC  H12S22488   4.566   5.099  13.898 -0.1823  0.3972  0.5677
  183DOPC  C21322489   4.666   4.935  13.988  0.0865  0.0240  0.0996
  183DOPC  H13R22490   4.706   4.838  13.952 -1.9688 -1.0347  0.5171
  183DOPC  H13S22491   4.582   4.899  14.051 -0.5329  0.3033 -0.5516
  183DOPC  C21422492   4.762   5.018  14.068  0.0939 -0.2095  0.1577
  183DOPC  H14R22493   4.715   5.113  14.101 -1.5569 -0.3784 -1.5459
  183DOPC  H14S22494   4.857   5.035  14.014  0.0451  1.5244  0.5602
  183DOPC  C21522495   4.819   4.939  14.188  0.0545  0.9564  0.5359
  183DOPC  H15R22496   4.861   4.839  14.167  0.2273  0.7835  1.6469
  183DOPC  H15S22497   4.729   4.911  14.247 -0.0168 -0.2421 -0.1107
  183DOPC  C21622498   4.910   5.015  14.286  0.0608 -0.2211 -0.0073
  183DOPC  H16R22499   4.860   5.113  14.301  1.6811  0.2258  3.1921
  183DOPC  H16S22500   5.011   5.044  14.250  0.5065 -1.1339  0.4993
  183DOPC  C21722501   4.929   4.943  14.419  0.3109 -0.5208 -0.3601
  183DOPC  H17R22502   5.001   4.999  14.483  0.6665 -1.1713 -0.1830
  183DOPC  H17S22503   4.984   4.848  14.403  0.2808 -0.4316 -1.0011
  183DOPC  C21822504   4.804   4.916  14.510  0.5175  0.1788 -0.3326
  183DOPC  H18R22505   4.752   4.825  14.473 -1.2401  0.3949  1.4096
  183DOPC  H18S22506   4.740   5.006  14.501 -1.1276 -0.8358  0.7153
  183DOPC  H18T22507   4.827   4.889  14.616 -1.2116 -0.1143 -0.0061
  183DOPC   C3322508   6.150   4.400  13.603 -0.1547 -0.0352 -0.5948
  183DOPC   H3X22509   6.133   4.291  13.588  0.3419 -0.1648 -0.2396
  183DOPC   H3Y22510   6.085   4.421  13.691  1.3183 -0.4347  0.6346
  183DOPC   C3422511   6.301   4.422  13.626 -0.7106  0.6717  0.3031
  183DOPC   H4X22512   6.325   4.529  13.644  0.2575  0.2720  1.5221
  183DOPC   H4Y22513   6.347   4.403  13.527  0.2743  1.8157  0.5122
  183DOPC   C3522514   6.345   4.342  13.746 -0.9014 -0.3051  0.4956
  183DOPC   H5X22515   6.313   4.235  13.740  1.7409 -1.4337  3.5833
  183DOPC   H5Y22516   6.276   4.369  13.829 -0.1612 -3.3893  2.3031
  183DOPC   C3622517   6.487   4.353  13.791 -0.2703  0.3238 -0.0840
  183DOPC   H6X22518   6.541   4.297  13.712 -2.7175 -0.8190 -1.0602
  183DOPC   H6Y22519   6.509   4.461  13.777 -0.9245  0.3597 -0.9185
  183DOPC   C3722520   6.513   4.298  13.935  0.1118 -0.1735  0.1670
  183DOPC   H7X22521   6.450   4.364  13.998  1.6849  0.4779  1.0942
  183DOPC   H7Y22522   6.475   4.194  13.944 -0.1247 -0.1481 -0.4444
  183DOPC   C3822523   6.655   4.311  13.987 -0.3016 -0.3434 -0.1578
  183DOPC   H8X22524   6.727   4.240  13.942  0.3327 -0.5478  1.1430
  183DOPC   H8Y22525   6.649   4.271  14.091  0.4296 -2.3914 -0.8602
  183DOPC   C3922526   6.714   4.451  13.981  0.7417 -0.5262 -0.2658
  183DOPC   H9X22527   6.721   4.501  13.883 -2.1770 -2.9514 -1.8773
  183DOPC  C31022528   6.754   4.524  14.089  1.1521 -0.1316 -0.4504
  183DOPC  H10X22529   6.787   4.627  14.073  2.3088  0.0414  2.4995
  183DOPC  C31122530   6.752   4.490  14.237 -0.3920  0.5602  0.6036
  183DOPC  H11X22531   6.855   4.478  14.276 -0.2584  1.0676  0.4246
  183DOPC  H11Y22532   6.704   4.392  14.255 -2.3872  0.9874 -1.8463
  183DOPC  C31222533   6.690   4.603  14.326  0.5479  0.3943  0.1882
  183DOPC  H12X22534   6.706   4.574  14.432  2.9129  0.4072 -0.1087
  183DOPC  H12Y22535   6.583   4.612  14.301  0.6131  0.5666 -0.0356
  183DOPC  C31322536   6.749   4.741  14.311 -0.0332  0.7247  0.6075
  183DOPC  H13X22537   6.859   4.732  14.321 -0.1625 -0.2410  1.3202
  183DOPC  H13Y22538   6.707   4.782  14.217 -0.2254 -1.0723 -0.1281
  183DOPC  C31422539   6.708   4.834  14.429 -0.3998 -0.4126  0.1083
  183DOPC  H14X22540   6.606   4.872  14.406 -0.2011 -0.8922 -1.7397
  183DOPC  H14Y22541   6.700   4.789  14.530  0.0896 -0.2973  0.2007
  183DOPC  C31522542   6.809   4.951  14.453 -0.3885  0.9338 -0.2389
  183DOPC  H15X22543   6.801   5.026  14.372  0.7178 -1.2601 -2.5151
  183DOPC  H15Y22544   6.911   4.908  14.465 -0.4595 -0.1979 -2.9542
  183DOPC  C31622545   6.778   5.024  14.589 -0.4119 -0.3117  1.0401
  183DOPC  H16X22546   6.670   5.052  14.593 -0.4907 -0.3323 -0.3262
  183DOPC  H16Y22547   6.799   4.949  14.668  0.4949  1.2045  2.2972
  183DOPC  C31722548   6.861   5.147  14.608 -0.0458 -0.9465  0.4312
  183DOPC  H17X22549   6.968   5.122  14.592 -0.4967 -2.0635 -1.0105
  183DOPC  H17Y22550   6.844   5.206  14.516  0.3351 -1.0384  0.2983
  183DOPC  C31822551   6.819   5.225  14.738 -0.4790  0.5230  0.3581
  183DOPC  H18X22552   6.883   5.315  14.751  0.3911 -0.0654  0.2012
  183DOPC  H18Y22553   6.714   5.257  14.723 -0.3381  0.1249 -1.7576
  183DOPC  H18Z22554   6.846   5.162  14.825  1.4974  1.1248  0.2433
  184DOPC     N22555   3.168   0.776  12.785  0.0663  0.5014  0.2191
  184DOPC   C1222556   3.225   0.780  12.923  1.0372  0.0290  0.2456
  184DOPC  H12A22557   3.208   0.686  12.973  0.1742  0.2095  0.3072
  184DOPC  H12B22558   3.178   0.860  12.978  1.3031  1.9323 -2.1374
  184DOPC   C1322559   3.226   0.658  12.719  0.6086  0.1544  0.5745
  184DOPC  H13A22560   3.334   0.664  12.727  0.8338 -1.9166 -0.3066
  184DOPC  H13B22561   3.190   0.574  12.775  0.2588 -0.2797 -0.2735
  184DOPC  H13C22562   3.198   0.642  12.616 -1.4738  1.7390  0.8249
  184DOPC   C1422563   3.196   0.896  12.696 -0.1536 -0.1288  0.4049
  184DOPC  H14A22564   3.126   0.886  12.615 -1.2257 -1.3668  1.4270
  184DOPC  H14B22565   3.172   0.991  12.744  0.0723  0.3956 -0.5046
  184DOPC  H14C22566   3.300   0.911  12.674 -0.5553  0.4927 -1.2292
  184DOPC   C1522567   3.015   0.765  12.784 -0.8489  0.4890 -0.4826
  184DOPC  H15A22568   2.977   0.847  12.842  1.7213  0.1799  1.8451
  184DOPC  H15B22569   2.978   0.679  12.837 -1.0528  0.9760  0.1799
  184DOPC  H15C22570   2.976   0.760  12.683 -0.1304 -0.1063 -0.7400
  184DOPC   C1122571   3.376   0.816  12.934 -0.1797 -0.1986  0.1733
  184DOPC  H11A22572   3.403   0.909  12.879  2.2658  0.2796  1.9953
  184DOPC  H11B22573   3.405   0.841  13.039  0.3167 -1.5203  0.3620
  184DOPC     P22574   3.526   0.607  12.972 -0.2939  0.0804  0.2272
  184DOPC   O1322575   3.599   0.514  12.887 -0.0385 -0.1168  0.1154
  184DOPC   O1422576   3.423   0.560  13.068  0.4430 -0.3260 -0.4239
  184DOPC   O1222577   3.468   0.721  12.880 -0.2987 -0.0095 -0.2356
  184DOPC   O1122578   3.634   0.687  13.056  0.1410 -0.4306  0.4219
  184DOPC    C122579   3.744   0.754  12.989 -0.3780  0.4416 -0.6510
  184DOPC    HA22580   3.709   0.806  12.897  1.7422 -0.0284 -1.7897
  184DOPC    HB22581   3.819   0.677  12.960  0.3149  0.8898 -0.0791
  184DOPC    C222582   3.801   0.870  13.078  0.4365 -0.2670 -0.0260
  184DOPC    HS22583   3.892   0.913  13.032  0.4922  0.1169  0.4289
  184DOPC   O2122584   3.835   0.813  13.206 -0.2489 -0.2272  0.0640
  184DOPC   C2122585   3.899   0.903  13.285 -0.0970 -0.2379 -0.7046
  184DOPC   O2222586   3.978   0.989  13.247  0.1511 -0.0812 -0.0217
  184DOPC   C2222587   3.866   0.873  13.435 -0.5447 -0.0810 -0.2590
  184DOPC   H2R22588   3.889   0.764  13.443 -0.7778 -0.1816 -0.8999
  184DOPC   H2S22589   3.761   0.899  13.460 -0.3763  2.0947 -1.5510
  184DOPC    C322590   3.689   0.985  13.079 -0.6098  1.0412  0.2860
  184DOPC    HX22591   3.599   0.943  13.129  0.2633 -1.4799 -0.1203
  184DOPC    HY22592   3.654   1.015  12.977 -0.7894 -1.1148 -0.3374
  184DOPC   O3122593   3.732   1.100  13.160  0.3581 -0.3690 -0.6467
  184DOPC   C3122594   3.820   1.184  13.108  0.2185  0.0020 -0.0108
  184DOPC   O3222595   3.875   1.159  13.000 -0.1703  0.2360  0.8272
  184DOPC   C3222596   3.840   1.310  13.192 -0.9809  0.3350  0.7058
  184DOPC   H2X22597   3.943   1.345  13.171 -0.8967  0.2712  1.0122
  184DOPC   H2Y22598   3.762   1.387  13.173 -0.7517  0.5800  0.7552
  184DOPC   C2322599   3.952   0.955  13.539  0.0964 -0.3004 -0.2685
  184DOPC   H3R22600   3.910   1.055  13.561  0.4808 -0.2957  0.4814
  184DOPC   H3S22601   4.057   0.972  13.508  0.0595 -0.0887 -0.2771
  184DOPC   C2422602   3.950   0.870  13.671 -0.5502  0.1959 -0.1996
  184DOPC   H4R22603   4.018   0.784  13.654 -0.0328  0.1177  1.9089
  184DOPC   H4S22604   3.851   0.834  13.707 -0.3141  0.2163  0.4933
  184DOPC   C2522605   4.017   0.960  13.781  0.1456 -0.4830  0.1842
  184DOPC   H5R22606   4.116   1.002  13.751  0.2912 -0.8967  0.0730
  184DOPC   H5S22607   4.035   0.893  13.868  2.5899  1.4505  1.2837
  184DOPC   C2622608   3.935   1.084  13.824 -0.0365  0.0173 -0.4833
  184DOPC   H6R22609   3.827   1.066  13.839 -0.8347  1.3061 -3.8037
  184DOPC   H6S22610   3.942   1.160  13.743 -0.1610  1.1251  0.5083
  184DOPC   C2722611   3.995   1.150  13.951  0.0456  0.3173  0.8051
  184DOPC   H7R22612   3.926   1.237  13.949 -0.2639  0.1529  2.5411
  184DOPC   H7S22613   4.101   1.181  13.937 -0.5517  1.8717 -0.6737
  184DOPC   C2822614   3.974   1.064  14.071 -0.3172  0.1945  0.3666
  184DOPC   H8R22615   4.056   0.989  14.061  0.8864  1.4382  0.6107
  184DOPC   H8S22616   3.886   0.997  14.066  1.2460 -2.0031  0.9509
  184DOPC   C2922617   3.985   1.149  14.192 -0.1197  0.2624  0.8243
  184DOPC   H9R22618   3.913   1.230  14.209  1.3480  1.4760  1.4941
  184DOPC  C21022619   4.071   1.123  14.292 -0.1801  0.4896 -0.1409
  184DOPC  H10R22620   4.066   1.188  14.381  0.4105 -1.2437  1.2099
  184DOPC  C21122621   4.166   1.006  14.309  0.0811  0.5027  0.5405
  184DOPC  H11R22622   4.264   1.045  14.343  1.1016 -0.3551 -1.2817
  184DOPC  H11S22623   4.187   0.945  14.219  1.1422 -3.5193  3.2231
  184DOPC  C21222624   4.120   0.904  14.415  0.6248 -0.0493  0.7379
  184DOPC  H12R22625   4.072   0.950  14.505 -1.2213 -1.7050  0.6815
  184DOPC  H12S22626   4.219   0.865  14.447  0.6134 -1.0913 -0.4456
  184DOPC  C21322627   4.035   0.787  14.357 -0.0486 -0.3146  0.1328
  184DOPC  H13R22628   4.078   0.762  14.258  2.0531  0.5772  0.7765
  184DOPC  H13S22629   3.926   0.810  14.367 -0.5380 -2.7959  1.1335
  184DOPC  C21422630   4.061   0.662  14.441 -0.0614  0.1910  0.0178
  184DOPC  H14R22631   4.036   0.693  14.545  0.0467  0.3293  0.0025
  184DOPC  H14S22632   4.170   0.644  14.437 -0.0977 -0.9753  2.4754
  184DOPC  C21522633   4.006   0.530  14.391 -0.2125 -0.8371 -0.3344
  184DOPC  H15R22634   4.046   0.446  14.452 -1.6861 -0.6752  0.9058
  184DOPC  H15S22635   4.041   0.502  14.290 -0.2028  2.1485 -1.2594
  184DOPC  C21622636   3.848   0.526  14.376 -0.1062  0.0162 -0.1297
  184DOPC  H16R22637   3.817   0.603  14.302 -2.2701 -1.8553 -1.3221
  184DOPC  H16S22638   3.799   0.549  14.473  1.9873  4.1429  0.1634
  184DOPC  C21722639   3.800   0.393  14.322  0.9403  0.5850  0.4409
  184DOPC  H17R22640   3.803   0.310  14.396  2.7283 -1.3208 -1.6032
  184DOPC  H17S22641   3.865   0.355  14.240  0.5548  0.3005  0.2567
  184DOPC  C21822642   3.662   0.403  14.259  0.3017 -0.2797  0.5459
  184DOPC  H18R22643   3.627   0.304  14.223 -0.4178 -0.5543  1.9363
  184DOPC  H18S22644   3.668   0.470  14.170 -0.3355 -1.3861 -0.3532
  184DOPC  H18T22645   3.589   0.448  14.329  0.3079  1.2075 -0.3693
  184DOPC   C3322646   3.860   1.298  13.350 -0.9407 -0.1940  0.3149
  184DOPC   H3X22647   3.961   1.255  13.364  0.7994  3.0920 -0.9495
  184DOPC   H3Y22648   3.787   1.222  13.384  0.5080 -1.9812 -0.4293
  184DOPC   C3422649   3.842   1.426  13.431 -0.2542  0.0670  0.0953
  184DOPC   H4X22650   3.745   1.477  13.414 -0.0016  0.6001  0.2364
  184DOPC   H4Y22651   3.921   1.497  13.400  0.8839 -1.5791 -0.9846
  184DOPC   C3522652   3.848   1.396  13.582  1.0840  0.4517 -0.2291
  184DOPC   H5X22653   3.932   1.325  13.593 -0.5497 -1.7455 -1.0606
  184DOPC   H5Y22654   3.753   1.345  13.609  0.1107  3.0835  1.7350
  184DOPC   C3622655   3.859   1.524  13.659 -1.2246 -0.4765  0.1153
  184DOPC   H6X22656   3.963   1.558  13.636 -0.6101 -1.5834  1.1433
  184DOPC   H6Y22657   3.788   1.604  13.631 -1.0772 -0.8671 -1.5276
  184DOPC   C3722658   3.858   1.497  13.811 -0.3130  0.1486 -0.4903
  184DOPC   H7X22659   3.769   1.437  13.839  0.7652 -1.3747 -0.1689
  184DOPC   H7Y22660   3.948   1.432  13.822  0.4852  0.8855 -2.3425
  184DOPC   C3822661   3.881   1.615  13.910  0.5235  0.1431 -0.0603
  184DOPC   H8X22662   3.975   1.656  13.865  1.0256 -0.5585  0.3336
  184DOPC   H8Y22663   3.917   1.575  14.007  1.0774 -0.7058 -0.6017
  184DOPC   C3922664   3.768   1.709  13.919 -0.1099  0.1072 -0.0691
  184DOPC   H9X22665   3.739   1.763  13.828  2.4708 -0.2955 -1.1984
  184DOPC  C31022666   3.696   1.727  14.031 -0.1613 -0.2940 -0.9747
  184DOPC  H10X22667   3.603   1.784  14.015 -0.3018 -0.3044 -0.2297
  184DOPC  C31122668   3.713   1.659  14.163  0.4133  0.1488 -0.0220
  184DOPC  H11X22669   3.808   1.603  14.179 -0.6074 -1.9494 -0.9572
  184DOPC  H11Y22670   3.642   1.576  14.178 -0.4871  0.8124 -0.5345
  184DOPC  C31222671   3.705   1.753  14.281  0.2978  0.2470 -0.2699
  184DOPC  H12X22672   3.610   1.810  14.282 -0.0486 -0.3101 -0.6976
  184DOPC  H12Y22673   3.788   1.827  14.280 -0.5780  1.3095  1.0200
  184DOPC  C31322674   3.715   1.675  14.407  0.4783 -0.3104 -0.5045
  184DOPC  H13X22675   3.627   1.607  14.404 -1.3825  1.9819 -1.6617
  184DOPC  H13Y22676   3.812   1.621  14.413 -0.1390 -1.2858  1.6835
  184DOPC  C31422677   3.694   1.746  14.538 -0.1814 -0.3154 -0.6816
  184DOPC  H14X22678   3.771   1.826  14.532  0.1086 -0.6770 -4.9771
  184DOPC  H14Y22679   3.598   1.802  14.539  0.1126  0.1943  0.4926
  184DOPC  C31522680   3.713   1.659  14.662  0.8503 -0.0180 -0.4234
  184DOPC  H15X22681   3.818   1.623  14.672  1.1042  1.1135  1.5563
  184DOPC  H15Y22682   3.645   1.571  14.665 -1.6983  1.8522 -0.2053
  184DOPC  C31622683   3.688   1.738  14.795 -0.4395 -0.3166  0.0278
  184DOPC  H16X22684   3.768   1.815  14.798  1.2173 -1.9356 -0.9355
  184DOPC  H16Y22685   3.589   1.788  14.786 -0.5748 -0.8065 -1.2880
  184DOPC  C31722686   3.697   1.650  14.919 -0.2848 -0.2620  0.1534
  184DOPC  H17X22687   3.638   1.557  14.921  0.3183 -0.6415  1.3145
  184DOPC  H17Y22688   3.803   1.619  14.929  0.1952  1.0706 -0.4993
  184DOPC  C31822689   3.669   1.735  15.039 -0.3990 -0.0035 -0.4332
  184DOPC  H18X22690   3.667   1.677  15.133  2.8296 -1.0665 -0.9132
  184DOPC  H18Y22691   3.755   1.804  15.054 -0.4181 -0.2028  0.6147
  184DOPC  H18Z22692   3.584   1.805  15.020  0.9097  1.3737 -1.4290
  185DOPC     N22693   6.179   5.501  13.179  0.2732 -0.3185 -0.6406
  185DOPC   C1222694   6.132   5.616  13.091  0.4365 -0.2679 -0.0840
  185DOPC  H12A22695   6.140   5.706  13.150 -0.0462 -0.8344  0.8669
  185DOPC  H12B22696   6.028   5.592  13.074 -0.0195  1.3025  0.3501
  185DOPC   C1322697   6.296   5.553  13.259  0.6475  0.2905 -0.4739
  185DOPC  H13A22698   6.335   5.476  13.324  1.9924  0.2354 -1.3090
  185DOPC  H13B22699   6.380   5.575  13.195  1.9394  1.2501  1.4953
  185DOPC  H13C22700   6.270   5.634  13.325 -2.0088 -0.7852 -0.0851
  185DOPC   C1422701   6.233   5.388  13.094 -0.3691  0.1429  1.0342
  185DOPC  H14A22702   6.259   5.305  13.157 -0.7013  0.9382  2.2560
  185DOPC  H14B22703   6.174   5.346  13.014  0.5265  1.1451 -0.1937
  185DOPC  H14C22704   6.326   5.422  13.050  0.0721 -1.7418  0.4383
  185DOPC   C1522705   6.073   5.456  13.278  0.3385 -0.3800  0.1202
  185DOPC  H15A22706   5.992   5.407  13.226 -0.3305  0.1920  0.6025
  185DOPC  H15B22707   6.036   5.544  13.329  1.7821  1.2866 -1.5486
  185DOPC  H15C22708   6.122   5.386  13.345 -0.1996 -0.0861  0.8398
  185DOPC   C1122709   6.204   5.649  12.959  0.6940 -0.1886  0.2883
  185DOPC  H11A22710   6.183   5.563  12.891 -1.2588  1.3612 -1.2050
  185DOPC  H11B22711   6.141   5.734  12.924  1.1347 -0.0655 -0.2174
  185DOPC     P22712   6.387   5.834  13.004 -0.0613  0.0424 -0.1027
  185DOPC   O1322713   6.364   5.925  12.897 -0.2561 -0.5342  0.2925
  185DOPC   O1422714   6.529   5.828  13.049  0.2523 -0.4513 -0.1356
  185DOPC   O1222715   6.345   5.685  12.968 -0.3946  0.0521  0.0947
  185DOPC   O1122716   6.290   5.866  13.119 -0.1465  0.0543 -0.3276
  185DOPC    C122717   6.318   5.958  13.224  0.3201 -0.0171  0.1154
  185DOPC    HA22718   6.295   6.065  13.201 -0.6572 -0.0760  0.7448
  185DOPC    HB22719   6.421   5.936  13.257  1.4896  1.0167 -2.5267
  185DOPC    C222720   6.236   5.932  13.354  0.5917  0.2127  0.1753
  185DOPC    HS22721   6.258   5.829  13.392 -0.8086 -0.5503 -0.9785
  185DOPC   O2122722   6.096   5.951  13.335 -0.1470 -0.0938  0.2147
  185DOPC   C2122723   6.013   5.864  13.398 -0.1044  0.2181 -0.5110
  185DOPC   O2222724   6.055   5.763  13.461 -0.4658  0.2813 -0.5886
  185DOPC   C2222725   5.872   5.905  13.371 -0.1218  0.0641  1.0298
  185DOPC   H2R22726   5.835   5.830  13.297  0.6071 -0.2977  1.0216
  185DOPC   H2S22727   5.871   6.012  13.340  3.3513  0.2915  1.2963
  185DOPC    C322728   6.290   6.023  13.472  0.2818  0.2387 -0.0419
  185DOPC    HX22729   6.277   6.127  13.435  0.7035 -0.7486 -3.2049
  185DOPC    HY22730   6.401   6.016  13.475  0.3865  1.2083 -1.0209
  185DOPC   O3122731   6.229   6.004  13.596  0.8138 -0.1679  0.1046
  185DOPC   C3122732   6.266   5.895  13.663 -0.1802 -0.3020 -0.3306
  185DOPC   O3222733   6.360   5.827  13.626 -0.0564  0.6926 -0.5157
  185DOPC   C3222734   6.175   5.874  13.796  0.0326  0.4575  0.5757
  185DOPC   H2X22735   6.164   5.980  13.829  0.8533  1.3088 -1.6854
  185DOPC   H2Y22736   6.076   5.839  13.759  1.2799 -2.3821 -0.3516
  185DOPC   C2322737   5.782   5.887  13.492  0.2848  0.2806  0.1843
  185DOPC   H3R22738   5.792   5.784  13.533  0.5990 -0.5686 -1.8938
  185DOPC   H3S22739   5.673   5.885  13.473  0.8347 -1.7132 -3.7287
  185DOPC   C2422740   5.821   5.987  13.605 -0.0978  0.3761 -0.1167
  185DOPC   H4R22741   5.810   6.089  13.562  0.1967 -0.1060 -1.3756
  185DOPC   H4S22742   5.930   5.968  13.620 -0.2985 -0.3101  0.5231
  185DOPC   C2522743   5.755   5.978  13.750 -0.2058  0.4570  0.1676
  185DOPC   H5R22744   5.718   5.874  13.762  1.8535 -0.3729 -0.1442
  185DOPC   H5S22745   5.672   6.051  13.747  0.6391  1.4549  0.6738
  185DOPC   C2622746   5.852   6.014  13.858  0.1322 -0.6415  0.0991
  185DOPC   H6R22747   5.927   6.094  13.836 -0.6281  0.1771  0.4306
  185DOPC   H6S22748   5.917   5.925  13.872 -0.4805 -1.1665 -0.3269
  185DOPC   C2722749   5.786   6.038  13.996  0.4814 -0.6703  0.1773
  185DOPC   H7R22750   5.729   5.947  14.025  0.2743 -0.7939 -0.6074
  185DOPC   H7S22751   5.703   6.111  13.987 -1.0269 -2.4885 -1.7551
  185DOPC   C2822752   5.877   6.074  14.123  0.0482  0.5258  0.0109
  185DOPC   H8R22753   5.937   6.162  14.093 -0.4007  0.4009 -1.2960
  185DOPC   H8S22754   5.944   5.986  14.115 -0.1657  0.3023  0.6017
  185DOPC   C2922755   5.793   6.082  14.244 -0.0257 -0.3671  0.3587
  185DOPC   H9R22756   5.734   6.174  14.254 -0.5924 -0.6132 -0.5542
  185DOPC  C21022757   5.801   6.002  14.348 -0.4865  0.5241  0.2798
  185DOPC  H10R22758   5.725   6.008  14.426 -1.2306  0.4282 -0.4244
  185DOPC  C21122759   5.891   5.882  14.356 -0.0127 -0.6934 -0.6530
  185DOPC  H11R22760   5.973   5.904  14.428 -1.8241 -1.1378  1.6818
  185DOPC  H11S22761   5.923   5.839  14.258  1.1165 -1.9012  0.2071
  185DOPC  C21222762   5.813   5.769  14.433  0.1561 -0.1837  0.0609
  185DOPC  H12R22763   5.741   5.705  14.377 -1.6305 -0.0150  2.0304
  185DOPC  H12S22764   5.771   5.819  14.522 -2.1388 -0.0576 -1.0135
  185DOPC  C21322765   5.909   5.660  14.490 -0.0593  0.2490  0.5009
  185DOPC  H13R22766   6.005   5.706  14.520  1.4125 -0.4155 -2.7341
  185DOPC  H13S22767   5.926   5.595  14.401 -3.4455 -0.1303 -0.0291
  185DOPC  C21422768   5.856   5.580  14.605 -0.2455  0.3954 -0.3532
  185DOPC  H14R22769   5.750   5.557  14.584  0.1312 -1.6015 -0.2350
  185DOPC  H14S22770   5.866   5.639  14.699  1.0931 -2.5357  1.5006
  185DOPC  C21522771   5.944   5.457  14.625 -0.0362 -0.3444  0.0528
  185DOPC  H15R22772   6.050   5.488  14.639  0.2249 -0.9716 -0.4760
  185DOPC  H15S22773   5.944   5.402  14.528  0.8552 -0.1661 -0.0654
  185DOPC  C21622774   5.904   5.377  14.747 -0.5445  0.1095  0.6855
  185DOPC  H16R22775   5.793   5.374  14.751 -0.5002 -0.0861  3.0712
  185DOPC  H16S22776   5.942   5.441  14.829 -2.2231  0.7341  1.0097
  185DOPC  C21722777   5.977   5.239  14.768  0.5645  1.3403  0.2135
  185DOPC  H17R22778   6.088   5.248  14.765  0.5354  2.6241  1.6165
  185DOPC  H17S22779   5.945   5.178  14.680 -0.4929 -0.4801  1.7926
  185DOPC  C21822780   5.938   5.161  14.889  0.1167  0.8449 -0.1570
  185DOPC  H18R22781   5.828   5.149  14.898  0.1525  0.3286 -0.3694
  185DOPC  H18S22782   5.984   5.220  14.971 -2.6744  2.2753  0.4821
  185DOPC  H18T22783   5.995   5.065  14.890 -0.2848  0.6046 -0.1101
  185DOPC   C3322784   6.239   5.791  13.917  0.5495  0.0064  0.1914
  185DOPC   H3X22785   6.343   5.827  13.934  0.8729 -0.0624 -1.4422
  185DOPC   H3Y22786   6.244   5.683  13.889  0.5314  0.1758 -0.4814
  185DOPC   C3422787   6.149   5.803  14.051  0.0489 -0.1015  1.5417
  185DOPC   H4X22788   6.045   5.802  14.013  0.8738 -0.9612 -0.8223
  185DOPC   H4Y22789   6.184   5.901  14.090  2.5760 -0.5151  0.4868
  185DOPC   C3522790   6.185   5.702  14.157 -0.0783 -0.0371 -0.2479
  185DOPC   H5X22791   6.129   5.734  14.248  0.6078 -0.3370  0.2917
  185DOPC   H5Y22792   6.294   5.706  14.175  0.2325  0.5790 -2.1053
  185DOPC   C3622793   6.144   5.560  14.142 -0.5079  0.2627 -0.4449
  185DOPC   H6X22794   6.035   5.556  14.120 -0.8876  0.4786  1.2427
  185DOPC   H6Y22795   6.184   5.524  14.045 -1.2657  0.5287 -0.8674
  185DOPC   C3722796   6.196   5.465  14.254 -0.8034  0.4673  0.5034
  185DOPC   H7X22797   6.197   5.501  14.360 -0.1162  1.3827  0.1999
  185DOPC   H7Y22798   6.138   5.370  14.252  1.5936 -1.1029 -2.5407
  185DOPC   C3822799   6.338   5.408  14.226  0.0321 -0.4030  1.0603
  185DOPC   H8X22800   6.411   5.491  14.221  0.6152 -0.9623 -1.2771
  185DOPC   H8Y22801   6.349   5.365  14.124  0.4031 -0.3574  1.0825
  185DOPC   C3922802   6.386   5.320  14.341 -0.0029  0.0465 -0.0164
  185DOPC   H9X22803   6.329   5.309  14.435  0.6244  0.0381  0.3702
  185DOPC  C31022804   6.502   5.248  14.345  0.1456 -0.5040  0.9364
  185DOPC  H10X22805   6.522   5.193  14.438  1.6205 -0.1746  0.8402
  185DOPC  C31122806   6.613   5.233  14.248  0.2444  0.3265  0.4184
  185DOPC  H11X22807   6.707   5.248  14.306 -0.4515  0.9242  1.4331
  185DOPC  H11Y22808   6.603   5.315  14.173 -0.2790  0.5770  0.7618
  185DOPC  C31222809   6.601   5.103  14.167 -1.1065  0.9095 -0.1068
  185DOPC  H12X22810   6.501   5.097  14.118 -0.6275 -0.2220 -0.9995
  185DOPC  H12Y22811   6.616   5.019  14.238 -0.3180  0.1723 -1.1259
  185DOPC  C31322812   6.712   5.088  14.064  0.4201 -1.2236 -0.1780
  185DOPC  H13X22813   6.709   5.182  14.004  0.6810 -2.8916 -2.9999
  185DOPC  H13Y22814   6.809   5.070  14.115  0.3534 -0.4406  0.2417
  185DOPC  C31422815   6.690   4.982  13.953  0.4885  0.6969 -0.6245
  185DOPC  H14X22816   6.689   4.882  14.001  2.1431  1.7038  1.7238
  185DOPC  H14Y22817   6.592   5.007  13.908 -0.3236  0.9080  1.1647
  185DOPC  C31522818   6.809   4.986  13.859 -0.1319  0.1007 -0.3693
  185DOPC  H15X22819   6.900   5.007  13.919 -0.7209  0.5492  0.3821
  185DOPC  H15Y22820   6.805   5.072  13.789 -0.5919  0.7955  0.5029
  185DOPC  C31622821   6.833   4.854  13.780 -0.2001  0.0325  0.2623
  185DOPC  H16X22822   6.896   4.792  13.847  0.9903  0.6570 -0.2570
  185DOPC  H16Y22823   6.739   4.797  13.762 -0.1239  0.3203 -1.1368
  185DOPC  C31722824   6.915   4.863  13.648 -0.3666  0.4026 -0.0505
  185DOPC  H17X22825   6.998   4.935  13.668 -1.6570  1.7799  0.4757
  185DOPC  H17Y22826   6.949   4.759  13.629 -2.3530 -0.6162  1.6045
  185DOPC  C31822827   6.835   4.908  13.527  0.1296  0.0404  0.1135
  185DOPC  H18X22828   6.749   4.842  13.505 -0.8188  0.4434  2.2852
  185DOPC  H18Y22829   6.784   5.000  13.564  2.7330  1.4030  0.5369
  185DOPC  H18Z22830   6.891   4.946  13.439  0.0689  3.0607  1.2685
  186DOPC     N22831   7.061   1.839  12.904  0.1075 -0.2900 -0.1311
  186DOPC   C1222832   7.075   1.948  13.013  0.7079  0.1656  0.1117
  186DOPC  H12A22833   7.047   2.042  12.968  0.3880 -0.1930 -0.4564
  186DOPC  H12B22834   7.179   1.957  13.041  0.7482  1.7480 -0.4656
  186DOPC   C1322835   7.170   1.859  12.808  0.0366 -0.4438  0.3054
  186DOPC  H13A22836   7.267   1.856  12.855  0.3209 -0.4575 -0.2799
  186DOPC  H13B22837   7.162   1.789  12.726 -0.3686  3.1326 -2.9793
  186DOPC  H13C22838   7.163   1.955  12.760 -1.9626 -0.8048 -0.2268
  186DOPC   C1422839   6.932   1.848  12.815  0.4000  0.6495 -0.4062
  186DOPC  H14A22840   6.893   1.949  12.807  0.2157  0.4652 -2.2680
  186DOPC  H14B22841   6.947   1.797  12.721  1.0858 -1.5688  0.8287
  186DOPC  H14C22842   6.852   1.793  12.863 -0.0176  0.7011 -1.0160
  186DOPC   C1522843   7.077   1.707  12.959  0.2721 -0.2807 -0.2862
  186DOPC  H15A22844   6.993   1.690  13.024  1.8413  0.6376  2.1398
  186DOPC  H15B22845   7.169   1.703  13.016  0.7857 -1.7440 -1.1417
  186DOPC  H15C22846   7.076   1.628  12.885 -3.2839 -2.2443  1.6042
  186DOPC   C1122847   6.987   1.931  13.141  0.7284 -0.3596  0.3022
  186DOPC  H11A22848   6.996   1.828  13.182 -0.5025 -0.2647  0.8689
  186DOPC  H11B22849   7.035   2.003  13.212 -0.5491  1.5557 -0.6989
  186DOPC     P22850   6.734   1.866  13.156  0.0747  0.6961 -0.1463
  186DOPC   O1322851   6.744   1.737  13.077  0.0207 -0.0233 -0.2421
  186DOPC   O1422852   6.605   1.935  13.152 -0.1923 -0.3682 -0.2275
  186DOPC   O1222853   6.847   1.961  13.108  0.0755 -0.5339  0.2311
  186DOPC   O1122854   6.779   1.845  13.309  0.0281  0.0437  0.0397
  186DOPC    C122855   6.761   1.948  13.412  0.0670 -0.8059  0.0495
  186DOPC    HA22856   6.773   2.049  13.369 -2.5084 -1.3658 -2.3095
  186DOPC    HB22857   6.848   1.928  13.477 -0.7990 -2.0213  0.8798
  186DOPC    C222858   6.626   1.943  13.490 -0.0627  0.1466 -0.2886
  186DOPC    HS22859   6.544   1.956  13.415 -0.7244  0.6007  0.4962
  186DOPC   O2122860   6.622   2.061  13.577  0.0703 -0.1257 -0.0709
  186DOPC   C2122861   6.507   2.082  13.632  0.5490 -0.3030  0.1447
  186DOPC   O2222862   6.406   2.015  13.627  0.0267  0.1380  0.5135
  186DOPC   C2222863   6.522   2.209  13.718 -0.2140  0.3749  0.2618
  186DOPC   H2R22864   6.483   2.297  13.664  0.4509 -0.0290 -0.9229
  186DOPC   H2S22865   6.631   2.219  13.739 -0.1122 -1.8975  1.1166
  186DOPC    C322866   6.607   1.812  13.577  0.6459  0.6306  0.0091
  186DOPC    HX22867   6.638   1.740  13.499 -1.8708  0.5052 -0.9983
  186DOPC    HY22868   6.497   1.804  13.592  0.2311  0.0427 -2.6927
  186DOPC   O3122869   6.690   1.811  13.695 -0.3381 -0.2475  0.0172
  186DOPC   C3122870   6.715   1.692  13.739  0.4367  0.6239 -0.0285
  186DOPC   O3222871   6.660   1.591  13.700  0.6965 -0.1914 -0.5669
  186DOPC   C3222872   6.817   1.702  13.849 -0.3099 -0.0379 -0.1906
  186DOPC   H2X22873   6.916   1.690  13.800 -0.6252  0.8244 -1.0765
  186DOPC   H2Y22874   6.817   1.800  13.901  2.6940  0.4433 -0.8810
  186DOPC   C2322875   6.434   2.196  13.843 -0.6555 -0.3588  0.1958
  186DOPC   H3R22876   6.467   2.101  13.890  1.2672 -0.6763 -1.6731
  186DOPC   H3S22877   6.328   2.190  13.809 -0.7977 -0.8804  0.7025
  186DOPC   C2422878   6.438   2.320  13.929 -0.5621  0.3754 -0.9289
  186DOPC   H4R22879   6.361   2.393  13.897 -0.0838  1.2420 -0.1257
  186DOPC   H4S22880   6.531   2.379  13.916 -0.5970  1.6464  3.1707
  186DOPC   C2522881   6.444   2.288  14.078  0.4285  0.3613  0.5604
  186DOPC   H5R22882   6.521   2.208  14.086 -0.9659 -0.9005  2.0721
  186DOPC   H5S22883   6.352   2.232  14.104  1.7599 -2.5366 -0.4342
  186DOPC   C2622884   6.482   2.398  14.180  0.5719 -0.0034  0.2135
  186DOPC   H6R22885   6.577   2.447  14.152  0.6170 -0.0046  0.3617
  186DOPC   H6S22886   6.505   2.346  14.276 -1.7506  1.0640  1.4416
  186DOPC   C2722887   6.382   2.512  14.208 -0.3514  0.1892  0.2960
  186DOPC   H7R22888   6.336   2.542  14.112 -1.0261  0.5125  0.7164
  186DOPC   H7S22889   6.442   2.594  14.255 -0.2443 -0.3093  1.0504
  186DOPC   C2822890   6.275   2.481  14.323 -0.1698 -0.0256  0.6928
  186DOPC   H8R22891   6.198   2.413  14.282 -0.0310  0.1509  0.1178
  186DOPC   H8S22892   6.208   2.569  14.332 -0.7439 -0.1197 -1.8472
  186DOPC   C2922893   6.325   2.427  14.453 -0.6252 -0.2420 -0.5619
  186DOPC   H9R22894   6.330   2.317  14.453  1.9325 -0.1910 -0.3950
  186DOPC  C21022895   6.371   2.507  14.558 -0.2289  0.5178  0.7626
  186DOPC  H10R22896   6.392   2.450  14.650  0.2774  0.3834  0.5632
  186DOPC  C21122897   6.381   2.658  14.569  0.9579 -0.1232 -0.5511
  186DOPC  H11R22898   6.314   2.701  14.491  0.4253  0.9332  0.4652
  186DOPC  H11S22899   6.481   2.704  14.555  0.8389  0.4716  0.4744
  186DOPC  C21222900   6.328   2.690  14.711  0.1341  0.1934  0.4027
  186DOPC  H12R22901   6.391   2.638  14.787  1.2349 -1.4841 -1.5635
  186DOPC  H12S22902   6.224   2.667  14.743 -0.2211  2.4893  1.1029
  186DOPC  C21322903   6.353   2.842  14.739  0.2231  0.6122  0.3028
  186DOPC  H13R22904   6.294   2.901  14.666  0.7411 -0.3822 -0.9709
  186DOPC  H13S22905   6.456   2.881  14.729  0.0612  0.6464 -1.7933
  186DOPC  C21422906   6.309   2.866  14.879  0.1974 -0.1807 -0.0698
  186DOPC  H14R22907   6.369   2.796  14.940 -0.7152 -2.1888 -1.3911
  186DOPC  H14S22908   6.200   2.843  14.883  0.3378 -1.0811 -0.9810
  186DOPC  C21522909   6.337   3.010  14.920 -0.8385 -0.4445 -0.4159
  186DOPC  H15R22910   6.297   3.074  14.838 -0.6217  0.0751 -0.1203
  186DOPC  H15S22911   6.444   3.038  14.925 -0.1799 -2.2261 -2.8014
  186DOPC  C21622912   6.275   3.052  15.056 -0.1469  0.1164  0.0756
  186DOPC  H16R22913   6.337   3.133  15.098 -0.2974 -0.2749  1.0651
  186DOPC  H16S22914   6.283   2.969  15.129 -0.1891  0.0138 -0.0360
  186DOPC  C21722915   6.130   3.096  15.048 -0.3908 -0.0341  0.1750
  186DOPC  H17R22916   6.070   3.012  15.007  0.0929  0.5576 -1.8310
  186DOPC  H17S22917   6.124   3.183  14.980  2.2092 -0.9250 -1.3413
  186DOPC  C21822918   6.074   3.127  15.183 -0.1807  0.3309  0.3797
  186DOPC  H18R22919   6.068   3.033  15.241 -1.3310  0.4468  0.4687
  186DOPC  H18S22920   5.970   3.161  15.164 -0.0629  1.3403  1.3454
  186DOPC  H18T22921   6.133   3.202  15.241  1.6408 -0.1128 -0.8311
  186DOPC   C3322922   6.809   1.589  13.948  1.0556 -0.4447 -0.0381
  186DOPC   H3X22923   6.892   1.586  14.022  1.8432 -0.8161 -0.9245
  186DOPC   H3Y22924   6.831   1.493  13.896 -0.1409  0.1465 -1.7205
  186DOPC   C3422925   6.672   1.570  14.030 -0.1132 -0.5317  0.1002
  186DOPC   H4X22926   6.697   1.484  14.095 -0.3025  0.7776  2.0045
  186DOPC   H4Y22927   6.582   1.548  13.968 -0.2073  0.5456 -0.1708
  186DOPC   C3522928   6.618   1.685  14.125 -0.2607  0.3375  0.6896
  186DOPC   H5X22929   6.576   1.759  14.054 -1.4543 -0.0886  0.9321
  186DOPC   H5Y22930   6.714   1.707  14.177  1.0674 -2.7398 -0.2437
  186DOPC   C3622931   6.499   1.654  14.217  0.1792 -0.7914 -1.1554
  186DOPC   H6X22932   6.411   1.616  14.160  0.0554 -0.3544 -1.2589
  186DOPC   H6Y22933   6.513   1.582  14.301 -2.1458  1.3515  1.2514
  186DOPC   C3722934   6.448   1.795  14.278 -0.0831  0.2447 -0.2603
  186DOPC   H7X22935   6.525   1.831  14.349 -0.6493 -0.0749  0.5368
  186DOPC   H7Y22936   6.434   1.868  14.196  0.5128 -0.2106 -0.7706
  186DOPC   C3822937   6.312   1.784  14.353  0.2336  0.1771 -0.1185
  186DOPC   H8X22938   6.338   1.737  14.450  3.3813  0.1183 -0.8678
  186DOPC   H8Y22939   6.246   1.725  14.286  2.2535 -1.1707 -1.0314
  186DOPC   C3922940   6.253   1.922  14.376  0.5317 -0.3783 -0.2646
  186DOPC   H9X22941   6.250   1.986  14.287  0.2978 -4.5433 -3.5776
  186DOPC  C31022942   6.197   1.967  14.496  0.7441  0.0704  0.5615
  186DOPC  H10X22943   6.158   2.070  14.501  0.0004 -0.2356  1.4489
  186DOPC  C31122944   6.183   1.884  14.626  0.9691  0.2170  0.1412
  186DOPC  H11X22945   6.216   1.779  14.612 -1.4811 -0.4988 -0.8282
  186DOPC  H11Y22946   6.080   1.883  14.667  0.9207 -2.2658  0.0898
  186DOPC  C31222947   6.278   1.955  14.731 -0.2950 -0.5070  0.7747
  186DOPC  H12X22948   6.374   1.975  14.679 -0.1396 -2.7276  0.0795
  186DOPC  H12Y22949   6.298   1.880  14.811  0.7513 -0.2438  0.7667
  186DOPC  C31322950   6.214   2.088  14.780 -0.3266  0.2162 -0.7218
  186DOPC  H13X22951   6.220   2.165  14.700  0.6450  0.8714 -0.0349
  186DOPC  H13Y22952   6.107   2.068  14.800 -0.2686  0.8057  0.2404
  186DOPC  C31422953   6.294   2.124  14.900  0.2247 -0.1162 -0.0678
  186DOPC  H14X22954   6.289   2.054  14.986  0.9212 -1.1576 -0.8450
  186DOPC  H14Y22955   6.403   2.134  14.878 -0.2774 -1.8981 -4.2351
  186DOPC  C31522956   6.235   2.255  14.959 -0.4179 -0.2075  0.2237
  186DOPC  H15X22957   6.129   2.237  14.987 -0.4741  1.0797  0.9619
  186DOPC  H15Y22958   6.231   2.333  14.880 -0.3875 -1.5217 -1.1226
  186DOPC  C31622959   6.306   2.300  15.090 -0.5213  0.0997  0.0861
  186DOPC  H16X22960   6.267   2.401  15.114  1.9392  0.9097  1.0220
  186DOPC  H16Y22961   6.276   2.234  15.174  0.8502  1.0920  1.4232
  186DOPC  C31722962   6.460   2.312  15.091  0.1931  0.2022  0.1914
  186DOPC  H17X22963   6.492   2.345  15.192 -0.2491  0.4618  0.2514
  186DOPC  H17Y22964   6.511   2.217  15.066  0.8620  0.6556 -0.1768
  186DOPC  C31822965   6.528   2.411  14.993  0.0745  0.2932 -0.0320
  186DOPC  H18X22966   6.632   2.425  15.029 -0.6372  0.1459  2.1936
  186DOPC  H18Y22967   6.536   2.381  14.886  1.0689 -1.1688  0.4223
  186DOPC  H18Z22968   6.474   2.508  14.997 -0.3493  0.0844 -0.5987
  187DOPC     N22969   4.183   1.128  12.883 -0.0748  0.2857 -0.0765
  187DOPC   C1222970   4.171   1.098  13.027  0.2473  1.1698 -0.2111
  187DOPC  H12A22971   4.070   1.061  13.035  1.3049 -2.2757 -0.9240
  187DOPC  H12B22972   4.173   1.185  13.089 -1.0657 -0.1529  1.8082
  187DOPC   C1322973   4.098   1.245  12.846  0.3738  0.0687  0.0010
  187DOPC  H13A22974   4.118   1.285  12.748  1.6939 -2.2350 -0.7272
  187DOPC  H13B22975   3.997   1.216  12.870  0.9704 -3.0443 -0.8306
  187DOPC  H13C22976   4.118   1.338  12.898 -0.3322  0.8512 -1.0773
  187DOPC   C1422977   4.141   1.013  12.788 -0.8995  0.7446 -1.0033
  187DOPC  H14A22978   4.188   0.918  12.807  2.0619  2.4811  1.0378
  187DOPC  H14B22979   4.033   1.002  12.786 -0.7920 -0.5477 -0.9109
  187DOPC  H14C22980   4.169   1.037  12.686  1.4247 -0.5449 -0.7411
  187DOPC   C1522981   4.323   1.149  12.841 -0.4774  0.5854 -0.6014
  187DOPC  H15A22982   4.379   1.063  12.875  2.2906  2.5131 -0.0205
  187DOPC  H15B22983   4.375   1.229  12.890  0.3986 -1.1044  1.3497
  187DOPC  H15C22984   4.323   1.143  12.733  0.8523 -0.2457 -0.5766
  187DOPC   C1122985   4.280   1.003  13.087  0.0402  0.0893  0.3631
  187DOPC  H11A22986   4.247   0.986  13.192  1.2755  0.2750  0.7971
  187DOPC  H11B22987   4.277   0.910  13.027 -0.0423  0.5231 -0.3150
  187DOPC     P22988   4.534   0.969  13.111  0.5432 -0.1607 -0.3769
  187DOPC   O1322989   4.661   1.049  13.103  0.2630 -0.0413  0.0754
  187DOPC   O1422990   4.514   0.851  13.026 -0.1262  0.1283 -0.1891
  187DOPC   O1222991   4.409   1.065  13.084  0.0742 -0.5241  0.2143
  187DOPC   O1122992   4.507   0.920  13.257  0.0379 -0.0538  0.9839
  187DOPC    C122993   4.573   0.810  13.311 -0.3970  0.4275 -1.1202
  187DOPC    HA22994   4.661   0.771  13.255  0.4771 -1.7437  1.5671
  187DOPC    HB22995   4.497   0.729  13.321 -1.7450  1.8829  1.3339
  187DOPC    C222996   4.643   0.841  13.454 -0.7839 -0.2369  0.8127
  187DOPC    HS22997   4.703   0.751  13.481 -1.0890 -0.6655  0.0880
  187DOPC   O2122998   4.544   0.862  13.554 -0.0633 -0.3566  0.0808
  187DOPC   C2122999   4.488   0.761  13.605  0.6397  0.0803 -0.1939
  187DOPC   O2223000   4.512   0.645  13.576 -0.4143 -0.4621  0.6227
  187DOPC   C2223001   4.383   0.808  13.710 -0.0727 -0.4126  0.2842
  187DOPC   H2R23002   4.290   0.813  13.650 -0.0445 -4.1411 -0.3257
  187DOPC   H2S23003   4.422   0.905  13.748  2.0195 -1.1714  0.2320
  187DOPC    C323004   4.729   0.967  13.434 -0.0532 -0.1416  0.1741
  187DOPC    HX23005   4.670   1.043  13.378  0.5044 -0.7439 -1.2994
  187DOPC    HY23006   4.819   0.935  13.377  0.7304  0.2401  1.1537
  187DOPC   O3123007   4.761   1.018  13.563  0.5172  0.1929  0.3640
  187DOPC   C3123008   4.839   1.124  13.566 -0.2301  0.1942 -0.3970
  187DOPC   O3223009   4.899   1.177  13.470  0.9780  0.6945 -0.8673
  187DOPC   C3223010   4.873   1.162  13.710  0.4924 -0.2136  0.3414
  187DOPC   H2X23011   4.805   1.248  13.727  0.5204  0.2177 -1.5114
  187DOPC   H2Y23012   4.839   1.078  13.775  2.7283 -2.2122 -0.9012
  187DOPC   C2323013   4.382   0.717  13.825 -0.0705 -0.1156 -0.5826
  187DOPC   H3R23014   4.485   0.683  13.850 -0.4636 -0.8099  0.1562
  187DOPC   H3S23015   4.323   0.624  13.811 -0.8529  0.3917 -0.7201
  187DOPC   C2423016   4.318   0.781  13.955 -0.7704  0.0611  0.5468
  187DOPC   H4R23017   4.212   0.810  13.937 -0.7707 -0.6134 -0.6264
  187DOPC   H4S23018   4.379   0.868  13.987  0.6574 -0.0869 -1.5805
  187DOPC   C2523019   4.313   0.682  14.067  0.0062 -0.1328  1.4684
  187DOPC   H5R23020   4.258   0.588  14.044  4.0227 -2.5477  0.6634
  187DOPC   H5S23021   4.258   0.703  14.162 -0.1186  0.0551  1.3564
  187DOPC   C2623022   4.454   0.622  14.118  0.3729 -0.5761 -0.3229
  187DOPC   H6R23023   4.524   0.708  14.119  1.5386 -1.4588  2.1081
  187DOPC   H6S23024   4.497   0.544  14.052  2.2277 -0.4752  0.7183
  187DOPC   C2723025   4.435   0.563  14.256 -0.2019  0.1176 -0.4585
  187DOPC   H7R23026   4.338   0.509  14.250 -0.5878  0.6968  0.4764
  187DOPC   H7S23027   4.428   0.648  14.327 -0.2027  0.5269 -0.9381
  187DOPC   C2823028   4.543   0.455  14.296 -0.5043  0.4117  0.0470
  187DOPC   H8R23029   4.537   0.443  14.406  0.2320 -0.6250 -0.0023
  187DOPC   H8S23030   4.640   0.508  14.284 -0.0418 -0.8017 -2.2376
  187DOPC   C2923031   4.553   0.326  14.217 -0.1593  0.3779  0.2901
  187DOPC   H9R23032   4.516   0.333  14.114 -2.9609 -0.4321  1.1503
  187DOPC  C21023033   4.576   0.208  14.275 -0.1391 -0.3590  0.2024
  187DOPC  H10R23034   4.591   0.118  14.213 -0.5175  1.2224 -2.3050
  187DOPC  C21123035   4.596   0.173  14.421 -0.0969 -0.5262 -0.2253
  187DOPC  H11R23036   4.565   0.066  14.427 -0.7105 -0.3088  0.8594
  187DOPC  H11S23037   4.523   0.229  14.484 -0.3702 -0.3661 -0.6791
  187DOPC  C21223038   4.740   0.191  14.472  0.0360  0.2507  0.2678
  187DOPC  H12R23039   4.782   0.293  14.462 -0.1237  0.4261  1.2316
  187DOPC  H12S23040   4.798   0.129  14.400 -1.5397  0.0673 -0.9060
  187DOPC  C21323041   4.775   0.143  14.613 -0.3723  0.3184 -0.7498
  187DOPC  H13R23042   4.708   0.203  14.679 -1.5666 -0.8040 -0.9288
  187DOPC  H13S23043   4.876   0.184  14.638 -0.0154 -1.0015  0.0811
  187DOPC  C21423044   4.766   0.001  14.658  0.0390  0.0481  0.5225
  187DOPC  H14R23045   4.833  -0.057  14.592  0.8194 -0.1375  1.4540
  187DOPC  H14S23046   4.661  -0.034  14.652 -0.4290  1.6097 -1.2992
  187DOPC  C21523047   4.829  -0.038  14.795 -0.1044  0.1890 -0.1084
  187DOPC  H15R23048   4.789   0.011  14.886 -2.2477 -1.0209 -0.3157
  187DOPC  H15S23049   4.936  -0.010  14.787 -0.5782  2.0359 -0.4052
  187DOPC  C21623050   4.816  -0.190  14.820 -0.0401 -0.1168  0.1507
  187DOPC  H16R23051   4.836  -0.243  14.724  1.4800  2.4087 -1.0398
  187DOPC  H16S23052   4.717  -0.219  14.860  2.2794 -3.9695  3.9937
  187DOPC  C21723053   4.912  -0.241  14.927 -0.0882 -0.6775 -0.3563
  187DOPC  H17R23054   4.905  -0.204  15.032 -1.0544 -0.8105 -0.3615
  187DOPC  H17S23055   5.018  -0.227  14.896 -0.3981  1.5908 -0.6195
  187DOPC  C21823056   4.890  -0.392  14.936  0.1019  1.1003 -0.0767
  187DOPC  H18R23057   4.966  -0.436  15.003 -0.8264 -1.9174 -0.8526
  187DOPC  H18S23058   4.916  -0.435  14.837 -1.5689 -0.4105  0.0796
  187DOPC  H18T23059   4.787  -0.428  14.957  0.0340  2.0831  1.3650
  187DOPC   C3323060   5.014   1.215  13.737  0.1997 -0.4771  0.3222
  187DOPC   H3X23061   5.025   1.314  13.688  0.3518  0.3037  1.8473
  187DOPC   H3Y23062   5.093   1.147  13.700 -1.4696 -1.6541 -1.2924
  187DOPC   C3423063   5.039   1.243  13.890  0.4093 -0.1022  0.4421
  187DOPC   H4X23064   5.135   1.297  13.901  1.0002 -1.3829  1.8869
  187DOPC   H4Y23065   5.041   1.143  13.937  0.0779 -0.0405  0.5933
  187DOPC   C3523066   4.931   1.326  13.961 -0.2505 -0.9257 -0.8281
  187DOPC   H5X23067   4.845   1.257  13.972  0.1506 -1.2419  0.4708
  187DOPC   H5Y23068   4.901   1.420  13.911  2.7306  1.1023  0.9260
  187DOPC   C3623069   4.979   1.380  14.094  0.4270 -0.4291 -0.0074
  187DOPC   H6X23070   5.053   1.305  14.131 -0.1986 -0.8626  0.3905
  187DOPC   H6Y23071   5.028   1.479  14.082 -1.1054  0.2593 -0.7136
  187DOPC   C3723072   4.858   1.390  14.187 -0.2920 -0.5673 -0.1522
  187DOPC   H7X23073   4.794   1.464  14.134  0.2550 -0.1531 -0.2373
  187DOPC   H7Y23074   4.805   1.293  14.198 -1.6635  0.0992 -0.5970
  187DOPC   C3823075   4.885   1.457  14.324  0.3391 -0.2574  0.3574
  187DOPC   H8X23076   4.784   1.489  14.358  0.1818 -0.3725  0.0077
  187DOPC   H8Y23077   4.946   1.549  14.314  1.5441 -1.2074 -1.6331
  187DOPC   C3923078   4.951   1.356  14.417  0.1727 -0.0801 -0.5985
  187DOPC   H9X23079   4.905   1.256  14.414  0.3827 -0.3190  1.7165
  187DOPC  C31023080   5.045   1.380  14.498 -0.2979 -0.3917 -0.4069
  187DOPC  H10X23081   5.076   1.303  14.569 -1.1129  0.5916  1.0742
  187DOPC  C31123082   5.114   1.512  14.523 -0.6775  0.0369  0.8074
  187DOPC  H11X23083   5.134   1.560  14.425  0.1817 -1.8805 -0.0004
  187DOPC  H11Y23084   5.216   1.494  14.563  0.3950  2.8588 -0.3917
  187DOPC  C31223085   5.039   1.600  14.622 -0.1380  0.5436  0.2571
  187DOPC  H12X23086   5.036   1.548  14.720  1.9254  1.0181  0.6372
  187DOPC  H12Y23087   4.936   1.614  14.583 -0.1095 -0.8844 -0.3566
  187DOPC  C31323088   5.126   1.724  14.638  0.3582  0.0136  0.1107
  187DOPC  H13X23089   5.233   1.692  14.636 -0.4976 -3.2157  0.8086
  187DOPC  H13Y23090   5.108   1.780  14.544  2.9756 -0.4079 -0.7219
  187DOPC  C31423091   5.089   1.811  14.754  0.2642  0.3543  0.1522
  187DOPC  H14X23092   5.009   1.880  14.722 -0.4115 -0.4209  0.1527
  187DOPC  H14Y23093   5.069   1.747  14.842  2.7002 -1.0250 -0.1820
  187DOPC  C31523094   5.214   1.892  14.789  0.0433 -0.4530  0.2859
  187DOPC  H15X23095   5.255   1.942  14.698 -2.4764  0.7689 -0.2432
  187DOPC  H15Y23096   5.294   1.832  14.838  1.4352  0.6816 -0.4979
  187DOPC  C31623097   5.174   1.991  14.901  0.0961  0.7535  0.4162
  187DOPC  H16X23098   5.095   2.061  14.866  0.0408  2.1723  3.1202
  187DOPC  H16Y23099   5.142   1.927  14.987  4.3554 -1.3220  0.7387
  187DOPC  C31723100   5.297   2.068  14.952 -0.3492 -0.1653  0.0828
  187DOPC  H17X23101   5.374   1.993  14.980 -0.5979 -0.3169  0.3764
  187DOPC  H17Y23102   5.323   2.135  14.868  1.5222 -0.7500  0.1676
  187DOPC  C31823103   5.268   2.153  15.074 -0.3112 -0.6691  0.3517
  187DOPC  H18X23104   5.350   2.219  15.109 -1.3562  0.4647  0.6908
  187DOPC  H18Y23105   5.177   2.214  15.056  0.3521  0.0284 -0.7314
  187DOPC  H18Z23106   5.244   2.087  15.160 -3.1281 -1.0008 -0.5837
  188DOPC     N23107   0.395   0.792  12.857  0.4015 -0.4098 -0.5199
  188DOPC   C1223108   0.373   0.857  12.998  0.8087  0.3183 -0.4898
  188DOPC  H12A23109   0.291   0.804  13.045  0.8854 -0.1611 -0.8870
  188DOPC  H12B23110   0.340   0.960  12.991 -0.1950  0.2613  2.1952
  188DOPC   C1323111   0.418   0.650  12.870  0.1206 -0.1430 -0.5967
  188DOPC  H13A23112   0.469   0.611  12.784  1.5239  0.0400  0.1247
  188DOPC  H13B23113   0.467   0.634  12.965 -1.8128  2.3973  1.0116
  188DOPC  H13C23114   0.320   0.606  12.886  0.3682  0.1650  2.4656
  188DOPC   C1423115   0.523   0.848  12.803 -0.3529  0.1569 -0.0850
  188DOPC  H14A23116   0.601   0.819  12.872 -0.5030  0.8861  0.3969
  188DOPC  H14B23117   0.548   0.803  12.708 -1.9072  0.6081 -0.7428
  188DOPC  H14C23118   0.521   0.955  12.802  2.2546  0.2561 -0.5567
  188DOPC   C1523119   0.279   0.823  12.771  0.2340  0.3462 -0.2341
  188DOPC  H15A23120   0.273   0.931  12.770  0.7275  0.4192  1.5252
  188DOPC  H15B23121   0.185   0.785  12.808 -0.5002  1.7556 -0.5799
  188DOPC  H15C23122   0.289   0.792  12.668  0.0501 -2.3285  0.4798
  188DOPC   C1123123   0.490   0.835  13.106  0.0970 -0.1271  0.2522
  188DOPC  H11A23124   0.575   0.896  13.068 -0.0135  0.1013  0.3683
  188DOPC  H11B23125   0.452   0.888  13.196  4.3979  1.4470  1.4120
  188DOPC     P23126   0.665   0.666  13.183  0.0874  0.0653 -0.0437
  188DOPC   O1323127   0.757   0.725  13.080 -0.0722  0.6237 -0.8622
  188DOPC   O1423128   0.679   0.518  13.201  0.2525  0.4082 -0.2212
  188DOPC   O1223129   0.517   0.695  13.143  0.7149  0.1263  0.3930
  188DOPC   O1123130   0.691   0.742  13.324 -0.9121 -0.3504 -0.1526
  188DOPC    C123131   0.598   0.728  13.430 -0.2775  0.5777 -0.0611
  188DOPC    HA23132   0.497   0.744  13.387 -0.3843  1.5064  0.5007
  188DOPC    HB23133   0.609   0.799  13.515 -1.4253 -1.1693  1.6533
  188DOPC    C223134   0.606   0.584  13.495  0.2407  0.5007  0.2323
  188DOPC    HS23135   0.595   0.505  13.418  0.8879 -0.9241  1.5507
  188DOPC   O2123136   0.491   0.578  13.585  0.2894 -0.4798 -0.1240
  188DOPC   C2123137   0.465   0.458  13.631  0.0369  0.0294  0.1153
  188DOPC   O2223138   0.513   0.352  13.596  0.0296 -0.0565  0.5515
  188DOPC   C2223139   0.345   0.464  13.723  0.2510  0.0073  0.1315
  188DOPC   H2R23140   0.261   0.511  13.667  1.1100  0.3065 -0.9262
  188DOPC   H2S23141   0.371   0.523  13.814  1.8212 -2.8991  1.7079
  188DOPC    C323142   0.749   0.558  13.562  0.3029 -0.0613  0.5195
  188DOPC    HX23143   0.818   0.564  13.475 -2.0791  1.0160 -1.4153
  188DOPC    HY23144   0.758   0.454  13.600 -0.7612 -1.1207 -1.9394
  188DOPC   O3123145   0.769   0.663  13.662  0.2148  0.3497 -0.3923
  188DOPC   C3123146   0.732   0.641  13.790 -0.0416 -0.3776 -0.2172
  188DOPC   O3223147   0.698   0.533  13.831  0.3785  0.0000  0.0650
  188DOPC   C3223148   0.746   0.773  13.866  0.4831 -0.0339  0.2117
  188DOPC   H2X23149   0.852   0.800  13.847 -0.6325  3.1025 -2.5463
  188DOPC   H2Y23150   0.696   0.857  13.813  1.4537 -0.4239 -1.3699
  188DOPC   C2323151   0.321   0.318  13.785  0.7397  0.0776 -0.6125
  188DOPC   H3R23152   0.414   0.282  13.834  0.0353  1.9547  2.3425
  188DOPC   H3S23153   0.292   0.247  13.705 -2.3830  0.1767  0.2764
  188DOPC   C2423154   0.209   0.313  13.897  0.2407  0.5884  0.2957
  188DOPC   H4R23155   0.219   0.217  13.953  1.0739  0.5924  0.1735
  188DOPC   H4S23156   0.113   0.318  13.841  1.6924 -1.8927 -2.7636
  188DOPC   C2523157   0.230   0.424  14.004  0.3057 -0.0558  0.5746
  188DOPC   H5R23158   0.204   0.525  13.966  1.2446  0.0101  0.0723
  188DOPC   H5S23159   0.334   0.421  14.042 -0.2658  0.1558  2.2457
  188DOPC   C2623160   0.156   0.400  14.132 -0.0035 -0.5094 -0.5104
  188DOPC   H6R23161   0.178   0.307  14.188  1.9967  0.8136  1.1060
  188DOPC   H6S23162   0.049   0.391  14.106 -0.8986  4.2579  0.5386
  188DOPC   C2723163   0.166   0.517  14.239 -0.0133  0.5784 -0.0422
  188DOPC   H7R23164   0.186   0.605  14.174  2.4285 -1.4885 -2.3171
  188DOPC   H7S23165   0.263   0.498  14.288 -0.1793  0.8082  0.3757
  188DOPC   C2823166   0.061   0.520  14.351 -0.1508  0.3299  0.2222
  188DOPC   H8R23167   0.055   0.414  14.384  1.3654  0.1698  0.0337
  188DOPC   H8S23168  -0.040   0.545  14.312 -0.6203  1.4230  2.0140
  188DOPC   C2923169   0.100   0.608  14.467  0.4417 -0.7900  0.1518
  188DOPC   H9R23170   0.040   0.700  14.458 -1.1448 -1.8490 -0.4661
  188DOPC  C21023171   0.181   0.592  14.567 -0.6140 -0.2013  0.2436
  188DOPC  H10R23172   0.205   0.677  14.632  1.5177 -0.0006 -0.7305
  188DOPC  C21123173   0.266   0.476  14.600 -0.0969 -0.2910  0.1040
  188DOPC  H11R23174   0.372   0.507  14.609 -0.8021  3.3115 -1.9591
  188DOPC  H11S23175   0.276   0.389  14.532  2.4584 -2.6584  3.2119
  188DOPC  C21223176   0.222   0.417  14.742 -0.7536 -0.0566  0.4046
  188DOPC  H12R23177   0.258   0.315  14.769  2.1826  0.0504 -2.3963
  188DOPC  H12S23178   0.112   0.408  14.737 -0.7564 -0.2586  0.7843
  188DOPC  C21323179   0.251   0.510  14.856 -0.5451 -0.1939 -0.0793
  188DOPC  H13R23180   0.199   0.608  14.856  0.4735  0.3640 -0.7722
  188DOPC  H13S23181   0.361   0.526  14.855 -0.6891  1.2408  2.1785
  188DOPC  C21423182   0.229   0.449  14.997  1.0478  0.6172 -0.5821
  188DOPC  H14R23183   0.273   0.518  15.072  1.2816  2.1756 -2.1126
  188DOPC  H14S23184   0.283   0.352  15.001  0.8523  0.5253  0.0465
  188DOPC  C21523185   0.081   0.406  15.040 -0.1134 -1.1243 -0.1121
  188DOPC  H15R23186   0.027   0.367  14.951  0.1171  0.5544 -1.0242
  188DOPC  H15S23187   0.029   0.502  15.059 -1.4374 -2.0936  1.5169
  188DOPC  C21623188   0.070   0.320  15.167  0.0559  0.5798  0.5049
  188DOPC  H16R23189  -0.036   0.323  15.201  0.4661  0.9839  1.7963
  188DOPC  H16S23190   0.125   0.366  15.252 -0.2789  0.5590  0.7348
  188DOPC  C21723191   0.111   0.171  15.142 -0.0099  0.0247  0.9638
  188DOPC  H17R23192   0.085   0.113  15.233 -2.6100  0.6447  0.6982
  188DOPC  H17S23193   0.219   0.155  15.122 -0.1268 -1.1090  1.1353
  188DOPC  C21823194   0.050   0.092  15.028  0.0908 -0.0098  0.4364
  188DOPC  H18R23195  -0.061   0.092  15.036 -0.0516  0.2470 -1.2613
  188DOPC  H18S23196   0.088  -0.011  15.015  2.3757  0.8606 -0.1518
  188DOPC  H18T23197   0.062   0.141  14.929 -0.4655  0.0425  0.3926
  188DOPC   C3323198   0.722   0.758  14.016  0.1033 -0.2657 -0.1179
  188DOPC   H3X23199   0.769   0.843  14.069 -1.9385  2.2689 -2.1086
  188DOPC   H3Y23200   0.752   0.665  14.070  2.2781  1.8239  2.5718
  188DOPC   C3423201   0.574   0.771  14.050 -0.3609  0.4286  0.4338
  188DOPC   H4X23202   0.515   0.710  13.978  0.6665  0.8070 -0.7827
  188DOPC   H4Y23203   0.538   0.876  14.040 -0.2307  0.3209 -1.6075
  188DOPC   C3523204   0.539   0.715  14.190 -0.2605 -0.3782 -0.2110
  188DOPC   H5X23205   0.553   0.605  14.198 -2.8232 -0.7403  0.0683
  188DOPC   H5Y23206   0.430   0.730  14.203 -0.0755 -0.2624  1.4162
  188DOPC   C3623207   0.617   0.792  14.304  0.2913 -0.1006  0.7832
  188DOPC   H6X23208   0.728   0.786  14.299  0.4539  0.7697  2.5706
  188DOPC   H6Y23209   0.606   0.902  14.291 -0.6950 -0.2481  0.2710
  188DOPC   C3723210   0.572   0.748  14.433  0.2450 -0.1899 -0.2841
  188DOPC   H7X23211   0.466   0.772  14.456 -0.0996  0.0109 -1.9386
  188DOPC   H7Y23212   0.564   0.638  14.426 -1.6354 -0.0678 -0.4560
  188DOPC   C3823213   0.672   0.798  14.541 -0.4824 -0.0566 -0.0117
  188DOPC   H8X23214   0.681   0.905  14.515 -1.4602 -0.6403 -3.2708
  188DOPC   H8Y23215   0.769   0.746  14.527 -0.0327  0.4995  0.9914
  188DOPC   C3923216   0.634   0.774  14.682 -0.3312 -0.6206 -0.0652
  188DOPC   H9X23217   0.702   0.708  14.737 -0.0839  0.2583  0.7014
  188DOPC  C31023218   0.536   0.844  14.749  0.9964 -0.2398  0.0204
  188DOPC  H10X23219   0.520   0.813  14.853  2.9368 -0.0275  0.4266
  188DOPC  C31123220   0.449   0.954  14.686  0.1320 -0.1479  0.3270
  188DOPC  H11X23221   0.346   0.910  14.685  0.6806 -1.5664  1.4863
  188DOPC  H11Y23222   0.476   0.975  14.580  1.9362  2.1942  1.1877
  188DOPC  C31223223   0.460   1.080  14.776 -0.0397 -0.1779 -0.2755
  188DOPC  H12X23224   0.454   1.043  14.881  1.8509 -0.3902 -0.2198
  188DOPC  H12Y23225   0.379   1.154  14.759 -1.8345 -2.1614 -0.9138
  188DOPC  C31323226   0.602   1.155  14.763 -0.4766 -0.0754  0.0642
  188DOPC  H13X23227   0.670   1.073  14.795  0.6419  0.8060  0.0097
  188DOPC  H13Y23228   0.616   1.185  14.657  1.0681  0.8639  0.5006
  188DOPC  C31423229   0.618   1.270  14.852 -0.2907 -0.6089 -0.3877
  188DOPC  H14X23230   0.537   1.340  14.822  0.2844  0.2061 -0.0945
  188DOPC  H14Y23231   0.594   1.258  14.960  0.0911  0.7088 -0.1325
  188DOPC  C31523232   0.755   1.341  14.851  0.3866 -0.0317  0.8809
  188DOPC  H15X23233   0.778   1.347  14.742 -0.2318  1.2524  0.7939
  188DOPC  H15Y23234   0.833   1.276  14.895  1.6663  0.7947 -0.0737
  188DOPC  C31623235   0.753   1.487  14.912 -0.3678  0.4886  0.2951
  188DOPC  H16X23236   0.828   1.552  14.862 -0.7713 -0.6068 -1.8924
  188DOPC  H16Y23237   0.655   1.531  14.885 -0.3946 -0.0834 -0.5842
  188DOPC  C31723238   0.755   1.499  15.062 -0.5186 -0.1766 -0.0303
  188DOPC  H17X23239   0.673   1.435  15.102 -0.9413  1.1786  1.3377
  188DOPC  H17Y23240   0.858   1.471  15.093 -0.4196  1.4155  1.1922
  188DOPC  C31823241   0.729   1.642  15.123  0.4231 -0.0204 -0.3191
  188DOPC  H18X23242   0.804   1.716  15.088  1.0154 -0.8947 -0.9361
  188DOPC  H18Y23243   0.627   1.678  15.095 -0.3676 -1.4122  0.6371
  188DOPC  H18Z23244   0.735   1.619  15.231 -0.5847  1.0651 -0.0147
  189DOPC     N23245   2.595   1.312  12.823  0.6153  0.2702  0.7614
  189DOPC   C1223246   2.515   1.268  12.948  0.1420 -0.0303  0.3919
  189DOPC  H12A23247   2.419   1.318  12.949  1.6039  2.9743  1.8520
  189DOPC  H12B23248   2.562   1.308  13.037  1.2675 -4.1791  1.9440
  189DOPC   C1323249   2.552   1.241  12.696 -0.0823 -0.3306  0.0128
  189DOPC  H13A23250   2.454   1.273  12.662 -0.3619 -2.3154 -1.2494
  189DOPC  H13B23251   2.628   1.248  12.620  1.1033  0.3830  1.2226
  189DOPC  H13C23252   2.535   1.139  12.726 -0.0034  0.0544  1.4218
  189DOPC   C1423253   2.742   1.277  12.828  0.5474  0.8694  0.0064
  189DOPC  H14A23254   2.800   1.305  12.741  1.1782 -1.6484 -0.4645
  189DOPC  H14B23255   2.791   1.309  12.919 -1.7051  0.8731  1.2809
  189DOPC  H14C23256   2.749   1.171  12.845 -0.0432  0.8617  0.2023
  189DOPC   C1523257   2.572   1.458  12.804 -0.8480  0.2671 -0.4566
  189DOPC  H15A23258   2.632   1.500  12.725  1.3555 -1.0597  0.4261
  189DOPC  H15B23259   2.600   1.511  12.894 -1.2250  0.3392 -0.3789
  189DOPC  H15C23260   2.469   1.470  12.776 -0.4335  0.3465 -2.0688
  189DOPC   C1123261   2.515   1.115  12.984  0.5325 -0.3948 -0.0044
  189DOPC  H11A23262   2.457   1.120  13.079 -1.3500 -1.1820 -1.0530
  189DOPC  H11B23263   2.452   1.056  12.914 -1.3814 -0.6504  1.8272
  189DOPC     P23264   2.671   0.912  13.021  0.2821  0.3792 -0.5840
  189DOPC   O1323265   2.815   0.886  13.008 -0.5913 -0.0309 -0.4428
  189DOPC   O1423266   2.576   0.838  12.936 -0.0132 -0.4425  0.1967
  189DOPC   O1223267   2.650   1.068  13.008 -0.0120  0.3940  0.0091
  189DOPC   O1123268   2.641   0.884  13.173  0.2645  0.2848  0.0323
  189DOPC    C123269   2.673   0.981  13.279  0.8450  0.6729  0.2788
  189DOPC    HA23270   2.605   1.070  13.280  0.8955  0.7104  0.4028
  189DOPC    HB23271   2.775   1.021  13.264  0.1895  1.8253 -1.5515
  189DOPC    C223272   2.679   0.914  13.418 -0.5987 -0.6171  0.0521
  189DOPC    HS23273   2.671   0.988  13.501 -0.9230 -1.7577  1.0711
  189DOPC   O2123274   2.812   0.841  13.431  0.1420  0.2076  0.0751
  189DOPC   C2123275   2.874   0.861  13.544 -0.0694 -0.4849 -0.1018
  189DOPC   O2223276   2.831   0.930  13.640 -0.0596 -0.3178 -0.4296
  189DOPC   C2223277   3.013   0.787  13.536 -0.3609  0.3968  0.1804
  189DOPC   H2R23278   3.053   0.819  13.438  1.7290  0.4466  1.0064
  189DOPC   H2S23279   2.995   0.678  13.541  1.8295 -0.0144  0.0472
  189DOPC    C323280   2.559   0.816  13.436  0.2289  0.2334 -0.1232
  189DOPC    HX23281   2.575   0.748  13.350  0.1522  1.7766 -1.4102
  189DOPC    HY23282   2.470   0.881  13.416  0.0740  0.2726  0.6638
  189DOPC   O3123283   2.546   0.752  13.563  0.2201  0.0874 -0.0658
  189DOPC   C3123284   2.477   0.641  13.570 -0.3942 -1.0262 -1.3086
  189DOPC   O3223285   2.412   0.589  13.483  0.8088  0.1852 -0.0735
  189DOPC   C3223286   2.506   0.583  13.715 -0.0876 -0.3421  0.2046
  189DOPC   H2X23287   2.562   0.489  13.693  0.7598  0.2243 -0.0991
  189DOPC   H2Y23288   2.561   0.666  13.765 -0.7314  0.4658 -0.4077
  189DOPC   C2323289   3.116   0.818  13.651 -0.3344  0.2172  0.2986
  189DOPC   H3R23290   3.074   0.817  13.754  0.8335  1.2191  0.8097
  189DOPC   H3S23291   3.172   0.913  13.632 -1.6543  0.8493 -0.6241
  189DOPC   C2423292   3.225   0.709  13.660  0.0613 -0.3790 -0.2860
  189DOPC   H4R23293   3.295   0.716  13.574  1.0526 -1.8829  0.3593
  189DOPC   H4S23294   3.177   0.609  13.659  0.9627 -0.8098 -1.6483
  189DOPC   C2523295   3.319   0.729  13.774  0.1002  0.0016  0.0375
  189DOPC   H5R23296   3.270   0.762  13.868  0.4488 -0.5271  0.4174
  189DOPC   H5S23297   3.395   0.809  13.760  1.7966 -1.1834  1.8703
  189DOPC   C2623298   3.393   0.599  13.804 -0.2331  0.2097 -0.2412
  189DOPC   H6R23299   3.440   0.557  13.712  2.0538 -2.1161  1.8237
  189DOPC   H6S23300   3.315   0.529  13.842  0.2995  0.8555  2.1933
  189DOPC   C2723301   3.505   0.620  13.902 -0.5739  0.1529  0.3179
  189DOPC   H7R23302   3.528   0.522  13.949 -1.3837 -1.7649 -2.9204
  189DOPC   H7S23303   3.466   0.689  13.980 -2.9913  1.6305 -2.0012
  189DOPC   C2823304   3.636   0.664  13.839  0.0328  0.8157  0.5125
  189DOPC   H8R23305   3.626   0.762  13.787  3.5674  0.3534 -1.3596
  189DOPC   H8S23306   3.676   0.599  13.758 -0.8451  0.0669  0.6608
  189DOPC   C2923307   3.740   0.690  13.940 -0.7530  0.1110  0.1169
  189DOPC   H9R23308   3.702   0.761  14.015 -1.9135 -1.3467  0.9628
  189DOPC  C21023309   3.862   0.633  13.939  0.1448 -0.3244 -0.3865
  189DOPC  H10R23310   3.925   0.646  14.029 -0.1087 -3.7310  0.4364
  189DOPC  C21123311   3.917   0.532  13.845  0.0839  0.7019  0.4631
  189DOPC  H11R23312   4.013   0.570  13.804  0.3022  1.2580  1.4657
  189DOPC  H11S23313   3.856   0.520  13.753  0.7982  2.4705 -0.2838
  189DOPC  C21223314   3.933   0.395  13.901  0.4034  0.1688 -0.3112
  189DOPC  H12R23315   3.965   0.328  13.818  1.6295 -0.0366  0.3127
  189DOPC  H12S23316   3.830   0.366  13.931 -0.0646 -0.6302 -2.4889
  189DOPC  C21323317   4.040   0.378  14.006  0.3140 -0.3460 -0.7322
  189DOPC  H13R23318   4.009   0.443  14.091  2.1874  0.4701 -0.6017
  189DOPC  H13S23319   4.139   0.405  13.964  0.9445  1.1089  1.4627
  189DOPC  C21423320   4.052   0.237  14.065 -0.3218 -0.1355  0.0911
  189DOPC  H14R23321   4.089   0.182  13.976  2.5734  0.3547  0.8842
  189DOPC  H14S23322   3.959   0.191  14.103  1.4915 -1.7385  3.0406
  189DOPC  C21523323   4.157   0.227  14.179 -0.4270  0.3440  0.3574
  189DOPC  H15R23324   4.144   0.323  14.233 -0.3038  0.0293  0.9556
  189DOPC  H15S23325   4.257   0.214  14.135 -0.2154 -2.0230  1.3573
  189DOPC  C21623326   4.120   0.103  14.272  0.0603 -0.1816  0.4757
  189DOPC  H16R23327   4.121   0.015  14.204  0.4791  1.0962 -1.2574
  189DOPC  H16S23328   4.023   0.112  14.326  0.1387 -2.5056  1.0807
  189DOPC  C21723329   4.217   0.075  14.385 -0.2367 -0.2637  0.6971
  189DOPC  H17R23330   4.247   0.165  14.442  0.9678 -1.5264  2.1519
  189DOPC  H17S23331   4.320   0.056  14.350 -0.2837  0.1702  0.3176
  189DOPC  C21823332   4.181  -0.040  14.479 -0.1342 -0.1322 -0.7284
  189DOPC  H18R23333   4.154  -0.134  14.428  0.0576 -1.5976  1.6878
  189DOPC  H18S23334   4.094  -0.010  14.541  0.6552  0.5392  0.0870
  189DOPC  H18T23335   4.266  -0.070  14.545 -0.0280  0.6870 -0.4871
  189DOPC   C3323336   2.373   0.551  13.781 -0.3847 -0.6793 -0.1497
  189DOPC   H3X23337   2.301   0.495  13.716  0.1081  0.4608 -1.7273
  189DOPC   H3Y23338   2.319   0.645  13.806  1.1328  0.1034  0.2832
  189DOPC   C3423339   2.397   0.484  13.919  0.2400 -0.1095  0.0215
  189DOPC   H4X23340   2.473   0.404  13.913 -0.1635 -0.7711  2.6201
  189DOPC   H4Y23341   2.299   0.440  13.950 -0.4927  0.9214 -0.7386
  189DOPC   C3523342   2.426   0.592  14.029  0.4830  0.4816 -0.1543
  189DOPC   H5X23343   2.340   0.663  14.037 -0.1916 -0.3463  0.0507
  189DOPC   H5Y23344   2.504   0.664  13.998  0.6812  0.6294  0.6641
  189DOPC   C3623345   2.470   0.536  14.164 -0.0812 -0.1466 -0.0893
  189DOPC   H6X23346   2.385   0.488  14.217 -3.3963  1.5854 -3.3553
  189DOPC   H6Y23347   2.551   0.461  14.154  1.1748  1.1661  0.0174
  189DOPC   C3723348   2.523   0.644  14.254 -0.7387  0.1679  0.6234
  189DOPC   H7X23349   2.586   0.712  14.193  0.3966 -1.0361  0.4015
  189DOPC   H7Y23350   2.443   0.708  14.297 -2.0590 -0.4651 -0.8285
  189DOPC   C3823351   2.606   0.595  14.374 -0.1625 -0.1604 -0.0052
  189DOPC   H8X23352   2.625   0.689  14.431  0.9668 -0.4201  0.0746
  189DOPC   H8Y23353   2.698   0.550  14.330 -0.1768 -0.0774 -0.1209
  189DOPC   C3923354   2.528   0.501  14.459  0.6444  0.0944  0.1564
  189DOPC   H9X23355   2.470   0.427  14.401  1.3505 -0.4372  0.1151
  189DOPC  C31023356   2.523   0.501  14.595 -0.3518 -0.0426 -0.0650
  189DOPC  H10X23357   2.460   0.423  14.640 -1.6338  0.7251 -0.4768
  189DOPC  C31123358   2.586   0.593  14.696  0.1866 -0.0255 -0.3583
  189DOPC  H11X23359   2.675   0.646  14.657  0.0795 -0.1543 -0.7799
  189DOPC  H11Y23360   2.615   0.536  14.788 -0.7777  0.9832  0.5968
  189DOPC  C31223361   2.490   0.706  14.738 -0.4635  0.0169  0.6029
  189DOPC  H12X23362   2.397   0.659  14.775 -0.0343 -1.3828 -0.0374
  189DOPC  H12Y23363   2.454   0.772  14.656  1.3394  0.4017  0.0646
  189DOPC  C31323364   2.538   0.790  14.866  0.7102  0.3274 -0.5867
  189DOPC  H13X23365   2.578   0.728  14.949  0.9740  0.9692 -0.2325
  189DOPC  H13Y23366   2.624   0.857  14.843 -0.3819  1.7704 -0.5473
  189DOPC  C31423367   2.432   0.879  14.931 -0.7014 -0.4500  0.1093
  189DOPC  H14X23368   2.361   0.814  14.986  0.5570 -1.0173  1.1254
  189DOPC  H14Y23369   2.477   0.936  15.016  1.2752  1.0384 -1.8176
  189DOPC  C31523370   2.354   0.973  14.833 -0.0030  0.9833  0.0048
  189DOPC  H15X23371   2.273   1.013  14.898 -0.3835 -0.5261  0.5171
  189DOPC  H15Y23372   2.312   0.906  14.754  1.8885 -0.0425 -0.1861
  189DOPC  C31623373   2.436   1.084  14.776  0.0298 -0.2840  0.4520
  189DOPC  H16X23374   2.536   1.056  14.736  0.8248  0.0055  2.1418
  189DOPC  H16Y23375   2.374   1.124  14.693  0.1298 -1.5126 -0.2483
  189DOPC  C31723376   2.442   1.218  14.867  0.2947  0.3665  0.3042
  189DOPC  H17X23377   2.344   1.255  14.903 -0.6953  0.0956 -1.9557
  189DOPC  H17Y23378   2.504   1.203  14.957 -0.3287  1.0652  0.8604
  189DOPC  C31823379   2.491   1.342  14.785  0.4972  0.5459  0.3144
  189DOPC  H18X23380   2.428   1.362  14.696 -2.9609  3.2234  3.0249
  189DOPC  H18Y23381   2.498   1.431  14.851 -0.9171  0.8556  0.0838
  189DOPC  H18Z23382   2.594   1.334  14.747  0.3853 -0.6066  0.2174
  190DOPC     N23383   1.318   0.101  12.868 -0.1277  0.3003  0.0501
  190DOPC   C1223384   1.360  -0.050  12.865  0.4308  0.4143 -0.2086
  190DOPC  H12A23385   1.385  -0.085  12.964  1.5959  0.4595 -0.4651
  190DOPC  H12B23386   1.454  -0.060  12.812  0.8085 -0.6856  0.6521
  190DOPC   C1323387   1.314   0.151  12.727 -0.0475 -0.2978 -1.0615
  190DOPC  H13A23388   1.410   0.141  12.681 -1.0048 -2.5172 -2.7365
  190DOPC  H13B23389   1.242   0.095  12.669 -0.5403  0.8370 -1.5685
  190DOPC  H13C23390   1.302   0.258  12.739  2.4483 -0.1910  2.0499
  190DOPC   C1423391   1.417   0.183  12.944 -1.4493 -0.3797  0.3945
  190DOPC  H14A23392   1.519   0.152  12.925 -1.3930 -0.8532  1.3908
  190DOPC  H14B23393   1.408   0.287  12.917  1.5878 -0.0009  0.4621
  190DOPC  H14C23394   1.413   0.177  13.052  0.0754 -1.1078  0.4396
  190DOPC   C1523395   1.184   0.124  12.929  0.0589  0.1120 -0.3261
  190DOPC  H15A23396   1.110   0.065  12.876 -0.0132 -1.2369  1.1860
  190DOPC  H15B23397   1.154   0.227  12.918  2.1961  0.6809 -1.4646
  190DOPC  H15C23398   1.172   0.081  13.027  0.8561 -2.3381 -1.2064
  190DOPC   C1123399   1.252  -0.147  12.798  0.0435 -0.1187  0.2327
  190DOPC  H11A23400   1.152  -0.140  12.844 -0.4470  0.2000 -0.8568
  190DOPC  H11B23401   1.253  -0.127  12.689 -0.7393 -1.3261 -0.0107
  190DOPC     P23402   1.334  -0.343  12.949  0.1952 -0.0802  0.1703
  190DOPC   O1323403   1.478  -0.380  12.948  0.4314 -0.2863  0.1289
  190DOPC   O1423404   1.236  -0.453  12.983 -0.7429  0.3489  0.0219
  190DOPC   O1223405   1.290  -0.280  12.812  0.0270 -0.0144 -0.2466
  190DOPC   O1123406   1.323  -0.233  13.060  0.6326 -0.1490 -0.0497
  190DOPC    C123407   1.201  -0.202  13.129  0.7958 -0.5517  0.3152
  190DOPC    HA23408   1.111  -0.254  13.090 -0.7505  2.4271 -0.3135
  190DOPC    HB23409   1.174  -0.096  13.113 -1.4219 -0.8508  1.7628
  190DOPC    C223410   1.204  -0.226  13.278  0.2678  0.2479  0.5834
  190DOPC    HS23411   1.103  -0.215  13.322 -0.5374  3.7546 -1.8049
  190DOPC   O2123412   1.305  -0.139  13.335  0.3041 -0.1898 -0.1795
  190DOPC   C2123413   1.285  -0.117  13.467  0.1826 -0.2430 -0.5061
  190DOPC   O2223414   1.180  -0.140  13.523  0.1666  0.5472 -0.1618
  190DOPC   C2223415   1.415  -0.069  13.527 -0.8760  0.7202 -0.5864
  190DOPC   H2R23416   1.450   0.025  13.480 -0.5231  1.3717  0.9087
  190DOPC   H2S23417   1.487  -0.153  13.524  0.1478  1.5939 -1.0136
  190DOPC    C323418   1.239  -0.376  13.309  0.3086 -0.4061  0.2258
  190DOPC    HX23419   1.348  -0.398  13.303 -0.0014 -1.7809 -1.3652
  190DOPC    HY23420   1.190  -0.440  13.232  0.7782 -0.4207 -0.0658
  190DOPC   O3123421   1.174  -0.431  13.426  0.0371 -0.2751  0.5206
  190DOPC   C3123422   1.252  -0.458  13.531  0.1333 -0.1254  0.4679
  190DOPC   O3223423   1.369  -0.427  13.530  0.4275 -0.1950  0.3931
  190DOPC   C3223424   1.180  -0.530  13.638 -0.3294  1.0076 -0.1217
  190DOPC   H2X23425   1.107  -0.598  13.590  0.0604  1.1399 -0.9037
  190DOPC   H2Y23426   1.258  -0.581  13.699 -0.8838  0.2365 -0.0366
  190DOPC   C2323427   1.407  -0.047  13.680  0.2448 -0.5462 -0.1331
  190DOPC   H3R23428   1.308  -0.081  13.716 -0.4813  0.7473 -0.8581
  190DOPC   H3S23429   1.423   0.059  13.709  0.6577 -0.5001 -0.5104
  190DOPC   C2423430   1.513  -0.137  13.756  0.1353 -0.5893 -0.2576
  190DOPC   H4R23431   1.614  -0.112  13.717  0.6748 -3.4977 -1.0078
  190DOPC   H4S23432   1.496  -0.240  13.716  0.0484 -0.9905  0.7938
  190DOPC   C2523433   1.505  -0.131  13.913 -0.0260  0.3170  0.1387
  190DOPC   H5R23434   1.591  -0.184  13.959 -0.1348  1.0385  1.1988
  190DOPC   H5S23435   1.412  -0.184  13.945  1.6116 -2.5914  0.3913
  190DOPC   C2623436   1.511   0.011  13.977  0.3270  0.0048 -0.2097
  190DOPC   H6R23437   1.420   0.073  13.966  0.9907  1.8817  3.3353
  190DOPC   H6S23438   1.602   0.061  13.938  0.1924  1.5383  1.3252
  190DOPC   C2723439   1.513   0.005  14.137  0.4299  0.7977 -0.1558
  190DOPC   H7R23440   1.603  -0.050  14.170  0.0431  0.7553  0.8905
  190DOPC   H7S23441   1.423  -0.055  14.163 -0.6925  1.1147 -2.9738
  190DOPC   C2823442   1.496   0.144  14.202 -0.2674 -0.1561  0.2006
  190DOPC   H8R23443   1.585   0.200  14.166 -1.6770  1.5736 -0.7730
  190DOPC   H8S23444   1.506   0.139  14.312  2.1835 -2.2500 -0.0337
  190DOPC   C2923445   1.370   0.223  14.164 -0.3585 -0.3583 -0.3532
  190DOPC   H9R23446   1.281   0.169  14.201 -1.2714  0.3439 -1.4613
  190DOPC  C21023447   1.372   0.339  14.088  0.0418 -0.4106 -0.7041
  190DOPC  H10R23448   1.269   0.369  14.062 -0.9010 -1.4675  1.5331
  190DOPC  C21123449   1.484   0.417  14.025  0.7648  0.5774  0.1133
  190DOPC  H11R23450   1.474   0.406  13.915  1.4660  0.9903  0.0037
  190DOPC  H11S23451   1.576   0.365  14.059  1.5929  1.5750 -0.5404
  190DOPC  C21223452   1.476   0.563  14.065 -0.7172 -0.3452 -0.0543
  190DOPC  H12R23453   1.375   0.602  14.041 -0.7805  0.5356  1.5036
  190DOPC  H12S23454   1.560   0.616  14.017  0.2494  1.1315  3.0107
  190DOPC  C21323455   1.498   0.583  14.218 -0.2121  0.0051  0.0333
  190DOPC  H13R23456   1.605   0.555  14.227 -0.2249 -0.6349 -1.5194
  190DOPC  H13S23457   1.437   0.509  14.273  0.0984 -0.7973 -0.6673
  190DOPC  C21423458   1.479   0.733  14.259 -0.2326  0.0282  0.4827
  190DOPC  H14R23459   1.375   0.764  14.236 -0.1489  0.3483  0.5227
  190DOPC  H14S23460   1.540   0.792  14.187 -2.6536 -0.1308 -1.8457
  190DOPC  C21523461   1.508   0.763  14.405  0.1292  1.3306 -0.7285
  190DOPC  H15R23462   1.604   0.709  14.422  0.0082  1.3383  0.0283
  190DOPC  H15S23463   1.429   0.712  14.464  0.7447  2.1621  0.8709
  190DOPC  C21623464   1.542   0.907  14.431  0.2182 -0.8610 -0.8164
  190DOPC  H16R23465   1.473   0.977  14.380 -0.6016 -0.3604  0.9069
  190DOPC  H16S23466   1.638   0.920  14.375  0.7881 -0.1487  0.2720
  190DOPC  C21723467   1.561   0.956  14.578 -0.7114  0.1596 -0.2083
  190DOPC  H17R23468   1.635   0.891  14.629  0.3714  0.6312 -1.1359
  190DOPC  H17S23469   1.462   0.952  14.629 -1.6391  0.4862 -1.9049
  190DOPC  C21823470   1.614   1.100  14.585  0.4649  0.1036 -0.0637
  190DOPC  H18R23471   1.633   1.117  14.693 -3.4133  1.1757  0.6134
  190DOPC  H18S23472   1.544   1.178  14.546  1.3631 -0.5549 -3.3391
  190DOPC  H18T23473   1.707   1.102  14.524  0.8675 -2.8766  0.2890
  190DOPC   C3323474   1.098  -0.443  13.740 -0.9022  0.0977  0.3497
  190DOPC   H3X23475   1.028  -0.500  13.803 -1.2496 -0.9369 -0.9215
  190DOPC   H3Y23476   1.041  -0.368  13.681 -0.0541 -0.1642 -0.8543
  190DOPC   C3423477   1.190  -0.374  13.836 -0.0410  0.1039  0.2986
  190DOPC   H4X23478   1.258  -0.301  13.787 -0.8012  0.3859 -0.3600
  190DOPC   H4Y23479   1.244  -0.456  13.887  1.7837  0.6711 -0.6347
  190DOPC   C3523480   1.119  -0.288  13.941 -0.5828  0.8212 -0.2564
  190DOPC   H5X23481   1.179  -0.275  14.034 -1.2641  0.9629  0.1721
  190DOPC   H5Y23482   1.021  -0.330  13.971 -1.2658  0.5903 -2.5847
  190DOPC   C3623483   1.103  -0.138  13.887 -0.5194 -0.3043  0.6103
  190DOPC   H6X23484   1.202  -0.087  13.894 -0.8869  0.5784 -0.3608
  190DOPC   H6Y23485   1.080  -0.142  13.779 -1.3598 -0.5849  0.7922
  190DOPC   C3723486   1.000  -0.041  13.950 -0.3545 -0.1154  0.4392
  190DOPC   H7X23487   0.993   0.052  13.889 -1.8124 -0.4056  0.1105
  190DOPC   H7Y23488   0.897  -0.082  13.944  0.2273 -1.7041  0.8517
  190DOPC   C3823489   1.033  -0.010  14.092 -0.4579 -0.2125 -0.0541
  190DOPC   H8X23490   1.134   0.035  14.099 -0.4048 -0.2382 -0.5853
  190DOPC   H8Y23491   1.038  -0.113  14.134 -0.8037  0.1322  0.8550
  190DOPC   C3923492   0.932   0.062  14.181 -0.0706 -0.3219 -0.0984
  190DOPC   H9X23493   0.874   0.138  14.127 -1.4836 -0.7000  0.8281
  190DOPC  C31023494   0.919   0.048  14.315  0.0312  0.2161  0.4830
  190DOPC  H10X23495   0.841   0.094  14.378  0.4464 -2.6115  3.3219
  190DOPC  C31123496   0.995  -0.040  14.405  0.1876  0.7608  0.2841
  190DOPC  H11X23497   1.030  -0.130  14.352  1.1874  0.6520  1.0996
  190DOPC  H11Y23498   0.925  -0.090  14.475 -1.5927 -1.0504 -2.5832
  190DOPC  C31223499   1.118   0.014  14.489 -0.3793  0.1568  0.2112
  190DOPC  H12X23500   1.202   0.068  14.439 -0.4041 -2.0146 -2.4181
  190DOPC  H12Y23501   1.175  -0.070  14.533  0.2478  1.0772  1.2260
  190DOPC  C31323502   1.069   0.110  14.603 -0.0535 -0.2741  0.1422
  190DOPC  H13X23503   1.140   0.196  14.608 -0.1936 -0.1704  0.3495
  190DOPC  H13Y23504   0.965   0.149  14.597  0.4526  0.9681 -1.1448
  190DOPC  C31423505   1.082   0.040  14.732  0.3163  0.1354 -0.7651
  190DOPC  H14X23506   0.992  -0.025  14.740 -0.7159  1.5751 -0.1654
  190DOPC  H14Y23507   1.169  -0.025  14.756  0.6974  1.5435  2.0513
  190DOPC  C31523508   1.075   0.155  14.834 -0.4405 -0.1720 -0.0377
  190DOPC  H15X23509   0.999   0.234  14.812  2.4061  2.8825  0.3069
  190DOPC  H15Y23510   1.174   0.204  14.838 -0.5827  0.0312  1.6538
  190DOPC  C31623511   1.046   0.087  14.971 -0.1970 -0.8630  0.3483
  190DOPC  H16X23512   0.945   0.042  14.968 -0.4764 -0.1819 -0.9045
  190DOPC  H16Y23513   1.113   0.002  14.997  1.3039  0.3092  0.4703
  190DOPC  C31723514   1.048   0.180  15.086  0.2840  0.3157 -0.8005
  190DOPC  H17X23515   1.144   0.236  15.077  0.4061  0.1202 -0.7241
  190DOPC  H17Y23516   0.959   0.244  15.069 -0.9466 -1.5185 -1.5408
  190DOPC  C31823517   1.027   0.111  15.222 -0.1524  0.0415 -0.6799
  190DOPC  H18X23518   1.120   0.068  15.264 -0.2138 -0.8804 -1.4574
  190DOPC  H18Y23519   0.981   0.187  15.288  3.7350  1.6005  0.5324
  190DOPC  H18Z23520   0.946   0.036  15.207 -2.1916  1.9350  0.4026
  191DOPC     N23521   4.568   0.079  12.986  0.1286 -0.2145 -0.4805
  191DOPC   C1223522   4.478  -0.021  12.910  0.0348 -0.0934  0.2286
  191DOPC  H12A23523   4.540  -0.099  12.867 -0.3130 -0.0596 -0.3415
  191DOPC  H12B23524   4.433   0.030  12.827  1.6083  0.3642 -0.3853
  191DOPC   C1323525   4.702   0.103  12.917 -0.1042  0.0005 -0.4898
  191DOPC  H13A23526   4.687   0.122  12.812 -1.6558 -0.6861 -0.4287
  191DOPC  H13B23527   4.753   0.189  12.956 -0.6040 -1.0735  2.8425
  191DOPC  H13C23528   4.777   0.028  12.937  0.4984  0.8585  0.5378
  191DOPC   C1423529   4.588   0.033  13.126 -0.0392 -0.2988  0.1032
  191DOPC  H14A23530   4.493   0.019  13.176  0.8958 -2.9124  1.3475
  191DOPC  H14B23531   4.636  -0.064  13.132  1.3614  0.3671  0.0563
  191DOPC  H14C23532   4.657   0.099  13.175 -0.2251 -1.1390  1.5634
  191DOPC   C1523533   4.492   0.207  12.986  0.0016  0.5632  0.6690
  191DOPC  H15A23534   4.497   0.265  12.896 -0.8559  1.6660  1.3135
  191DOPC  H15B23535   4.528   0.276  13.062 -0.5658  1.6156 -0.0064
  191DOPC  H15C23536   4.389   0.180  13.005  0.0018  0.0191 -0.0476
  191DOPC   C1123537   4.370  -0.099  12.988  0.1586  0.6252  0.1586
  191DOPC  H11A23538   4.298  -0.152  12.922 -0.9884  0.6317  1.3664
  191DOPC  H11B23539   4.424  -0.185  13.033  0.9911  0.0814 -1.7467
  191DOPC     P23540   4.166   0.042  13.059 -0.0601  0.0486  0.0061
  191DOPC   O1323541   4.072  -0.071  13.073 -0.4515 -0.4271 -0.5895
  191DOPC   O1423542   4.174   0.115  12.929 -0.2717 -0.0167  0.5476
  191DOPC   O1223543   4.304  -0.021  13.092  0.6948  0.0973  0.3990
  191DOPC   O1123544   4.142   0.150  13.169 -0.4004  0.2494  0.0052
  191DOPC    C123545   4.192   0.149  13.304  0.2076  0.4373 -0.3531
  191DOPC    HA23546   4.203   0.255  13.337  0.8777 -0.2945  1.9339
  191DOPC    HB23547   4.291   0.099  13.303  1.2940  2.4597  0.2450
  191DOPC    C223548   4.093   0.085  13.412  0.3419  0.6369  0.0929
  191DOPC    HS23549   4.061  -0.011  13.365 -0.4847  0.0549  1.7733
  191DOPC   O2123550   3.980   0.165  13.413  0.7350 -0.1237  0.6571
  191DOPC   C2123551   3.870   0.109  13.458  0.0674 -0.0176 -0.3008
  191DOPC   O2223552   3.846  -0.008  13.470  0.2265  0.7283  0.1367
  191DOPC   C2223553   3.770   0.218  13.499 -0.5268  0.1487 -0.2695
  191DOPC   H2R23554   3.781   0.316  13.448 -1.7751  0.4494  0.0091
  191DOPC   H2S23555   3.789   0.236  13.607  1.2726  2.0515 -0.8279
  191DOPC    C323556   4.165   0.066  13.552 -0.0829  0.8946  0.3539
  191DOPC    HX23557   4.199   0.171  13.564 -0.4122  1.1502 -0.8032
  191DOPC    HY23558   4.251  -0.004  13.539  1.1197  2.2114  0.9628
  191DOPC   O3123559   4.079   0.027  13.659 -0.1120  0.5485 -0.1421
  191DOPC   C3123560   4.068  -0.102  13.685 -0.0516 -0.2410  0.9659
  191DOPC   O3223561   4.119  -0.194  13.618  0.9186  0.4005 -0.6750
  191DOPC   C3223562   3.986  -0.129  13.808 -0.0522  0.1135  0.9716
  191DOPC   H2X23563   4.010  -0.058  13.890  1.0195  2.1059 -0.9474
  191DOPC   H2Y23564   3.881  -0.102  13.782 -1.0075 -1.2042  3.1789
  191DOPC   C2323565   3.626   0.181  13.482 -0.7142 -1.2124 -0.2383
  191DOPC   H3R23566   3.603   0.076  13.508 -1.0651 -1.0713  0.0442
  191DOPC   H3S23567   3.608   0.208  13.376  1.0939 -0.3035 -0.3547
  191DOPC   C2423568   3.525   0.267  13.565  0.0406 -0.1482 -0.2917
  191DOPC   H4R23569   3.421   0.235  13.541 -1.4159  2.6982  1.6517
  191DOPC   H4S23570   3.532   0.375  13.543 -1.5007  0.1172  0.3601
  191DOPC   C2523571   3.536   0.267  13.720  0.2094 -0.0482  0.1937
  191DOPC   H5R23572   3.457   0.332  13.764 -0.8257 -0.0542 -1.5582
  191DOPC   H5S23573   3.624   0.329  13.745 -1.6607  2.4209  1.1047
  191DOPC   C2623574   3.530   0.135  13.792 -0.0479 -0.2530  0.2340
  191DOPC   H6R23575   3.605   0.068  13.745  0.3888  0.0979  0.4215
  191DOPC   H6S23576   3.429   0.093  13.775 -0.1606  0.6610 -1.6109
  191DOPC   C2723577   3.547   0.149  13.941  0.3225  0.0620 -0.3809
  191DOPC   H7R23578   3.464   0.210  13.983 -0.7154 -0.5403 -1.4750
  191DOPC   H7S23579   3.640   0.200  13.973 -1.4892  2.7006  1.1297
  191DOPC   C2823580   3.531   0.010  14.014  0.2638  0.1166  0.5568
  191DOPC   H8R23581   3.441  -0.033  13.966 -0.2463  1.6095  0.1268
  191DOPC   H8S23582   3.497   0.029  14.118  0.4715  0.1802  0.6139
  191DOPC   C2923583   3.660  -0.071  14.013 -0.4504 -0.4466  0.1293
  191DOPC   H9R23584   3.725  -0.026  13.936 -1.9506  2.1033  0.2630
  191DOPC  C21023585   3.701  -0.174  14.091 -0.0698 -0.4231 -0.0209
  191DOPC  H10R23586   3.801  -0.215  14.077  1.1199  1.6765  1.6003
  191DOPC  C21123587   3.626  -0.227  14.206  0.4421  0.2238 -0.0217
  191DOPC  H11R23588   3.622  -0.336  14.189  1.4137  0.4211 -1.7464
  191DOPC  H11S23589   3.523  -0.185  14.206  0.0624 -0.6929  0.4447
  191DOPC  C21223590   3.685  -0.207  14.350  0.3032  0.0554  0.5463
  191DOPC  H12R23591   3.788  -0.248  14.357  0.7573  1.0202 -0.0868
  191DOPC  H12S23592   3.611  -0.250  14.421  0.5008  0.7477  1.1836
  191DOPC  C21323593   3.679  -0.058  14.395  0.2363  0.1195  0.5556
  191DOPC  H13R23594   3.574  -0.024  14.406  0.5363  1.4464 -0.4414
  191DOPC  H13S23595   3.708   0.008  14.310  1.1760 -1.8852 -0.7601
  191DOPC  C21423596   3.767  -0.012  14.504  0.5224 -0.2942 -0.1801
  191DOPC  H14R23597   3.751   0.096  14.524  1.2568 -0.2613  0.2674
  191DOPC  H14S23598   3.872  -0.046  14.487  1.7938  1.5434  3.1213
  191DOPC  C21523599   3.735  -0.091  14.634  0.1088  0.1744  0.8129
  191DOPC  H15R23600   3.768  -0.194  14.607 -0.0491  0.6675 -1.4783
  191DOPC  H15S23601   3.626  -0.109  14.648 -0.0803 -0.0868 -0.8358
  191DOPC  C21623602   3.794  -0.038  14.769  0.3232  0.2682  0.4463
  191DOPC  H16R23603   3.762   0.066  14.787  0.7637  0.3728  0.6356
  191DOPC  H16S23604   3.902  -0.041  14.745  0.2512 -0.0881  0.1386
  191DOPC  C21723605   3.763  -0.144  14.881  0.2134  0.2769 -0.4099
  191DOPC  H17R23606   3.830  -0.233  14.882  0.1271  0.1721  2.0246
  191DOPC  H17S23607   3.659  -0.183  14.873 -0.8489  2.7245  0.5083
  191DOPC  C21823608   3.774  -0.083  15.024  0.2972 -0.5155 -0.0266
  191DOPC  H18R23609   3.882  -0.061  15.042  0.6442 -0.4739 -1.9298
  191DOPC  H18S23610   3.751  -0.156  15.105  0.0876  0.3396  0.6913
  191DOPC  H18T23611   3.718   0.012  15.031 -0.8716 -1.2623  1.1733
  191DOPC   C3323612   3.999  -0.268  13.873 -0.4591 -0.0941 -0.4651
  191DOPC   H3X23613   3.980  -0.344  13.795  1.2025 -0.2592 -0.7504
  191DOPC   H3Y23614   3.924  -0.280  13.953  1.0912  0.8649  1.2150
  191DOPC   C3423615   4.142  -0.308  13.911 -0.2695  0.0307  0.2046
  191DOPC   H4X23616   4.219  -0.304  13.830  1.2393 -3.3174  1.2562
  191DOPC   H4Y23617   4.148  -0.417  13.934  1.7710 -0.4301 -2.0305
  191DOPC   C3523618   4.205  -0.234  14.035 -0.8114  0.0507  0.0808
  191DOPC   H5X23619   4.139  -0.244  14.124  1.0806  0.6563  1.6210
  191DOPC   H5Y23620   4.216  -0.129  14.002  0.8743 -0.3168 -0.6346
  191DOPC   C3623621   4.348  -0.288  14.071  0.5170  0.0050  0.1921
  191DOPC   H6X23622   4.328  -0.397  14.068 -1.1525  0.2709  0.3810
  191DOPC   H6Y23623   4.415  -0.259  13.987  1.6374 -1.7192  0.4382
  191DOPC   C3723624   4.397  -0.243  14.207 -0.0198  0.1674 -0.0581
  191DOPC   H7X23625   4.366  -0.138  14.224 -1.5074  0.2689 -2.8593
  191DOPC   H7Y23626   4.338  -0.313  14.271 -0.3728 -0.5937 -1.1838
  191DOPC   C3823627   4.550  -0.266  14.238 -0.3889 -0.0715  0.0015
  191DOPC   H8X23628   4.601  -0.200  14.164 -1.6865 -1.0954 -1.8654
  191DOPC   H8Y23629   4.565  -0.374  14.216 -0.3673 -0.0407 -0.1326
  191DOPC   C3923630   4.589  -0.227  14.373 -1.0218 -0.2047 -0.5473
  191DOPC   H9X23631   4.594  -0.117  14.380 -2.1311 -0.1630 -0.2147
  191DOPC  C31023632   4.620  -0.305  14.478 -0.4920 -0.9547 -0.3540
  191DOPC  H10X23633   4.650  -0.257  14.572  1.9838 -3.0847  0.0634
  191DOPC  C31123634   4.618  -0.446  14.473  0.0962 -0.2200  0.0746
  191DOPC  H11X23635   4.564  -0.493  14.388  0.1219  1.8594 -1.1344
  191DOPC  H11Y23636   4.565  -0.482  14.564 -0.4701  0.2638 -0.0596
  191DOPC  C31223637   4.759  -0.515  14.483  0.2915 -0.1261 -0.4059
  191DOPC  H12X23638   4.812  -0.487  14.577 -1.4750  1.8215  0.0687
  191DOPC  H12Y23639   4.825  -0.475  14.402  0.8201  0.0242  0.0939
  191DOPC  C31323640   4.753  -0.665  14.465 -0.5344 -0.4070 -0.2697
  191DOPC  H13X23641   4.698  -0.701  14.555  1.1623 -0.7785  0.6633
  191DOPC  H13Y23642   4.704  -0.691  14.368  0.6050 -0.0671 -0.9528
  191DOPC  C31423643   4.895  -0.743  14.460  0.5411  0.1276 -1.4070
  191DOPC  H14X23644   4.887  -0.853  14.446 -1.5015  0.1383 -0.5479
  191DOPC  H14Y23645   4.971  -0.703  14.389  2.2557 -1.2966 -0.4674
  191DOPC  C31523646   4.967  -0.736  14.599 -1.0209 -0.0088 -0.1126
  191DOPC  H15X23647   4.912  -0.789  14.680 -2.5565  2.7037  0.7498
  191DOPC  H15Y23648   4.984  -0.629  14.623  2.5811 -0.4249 -0.1481
  191DOPC  C31623649   5.110  -0.783  14.593 -0.1863  0.1809 -0.1581
  191DOPC  H16X23650   5.102  -0.893  14.585 -0.0867  0.2713 -1.8460
  191DOPC  H16Y23651   5.160  -0.753  14.499  2.0023  0.9551  1.1710
  191DOPC  C31723652   5.206  -0.733  14.702  0.5594 -0.1806 -0.5039
  191DOPC  H17X23653   5.304  -0.782  14.683  1.5249  0.1559  2.8119
  191DOPC  H17Y23654   5.213  -0.623  14.689  0.6773 -0.4588 -3.4265
  191DOPC  C31823655   5.154  -0.775  14.839  0.6896  0.0220  0.2130
  191DOPC  H18X23656   5.075  -0.853  14.828 -0.4298  1.1596 -0.1227
  191DOPC  H18Y23657   5.233  -0.823  14.900 -0.5845  1.5110  3.2407
  191DOPC  H18Z23658   5.106  -0.688  14.889 -0.4540 -1.4446  1.8193
  192DOPC     N23659   7.142   4.719  13.139 -0.0855 -0.2605 -0.3107
  192DOPC   C1223660   7.228   4.595  13.118 -0.1761  0.2664  0.1585
  192DOPC  H12A23661   7.263   4.557  13.212 -0.0020 -0.9947 -0.3916
  192DOPC  H12B23662   7.317   4.614  13.059 -0.5620 -0.9774 -0.8665
  192DOPC   C1323663   7.052   4.686  13.255 -0.2909  0.1966  0.3184
  192DOPC  H13A23664   7.007   4.589  13.236 -3.3079  1.5676 -0.1452
  192DOPC  H13B23665   7.121   4.671  13.336  2.2235 -0.4723 -1.7895
  192DOPC  H13C23666   6.976   4.762  13.262  1.3089  1.8610  0.1720
  192DOPC   C1423667   7.059   4.746  13.017 -0.4588  0.3728  0.1546
  192DOPC  H14A23668   7.107   4.729  12.921 -0.2448  3.3010 -0.3241
  192DOPC  H14B23669   6.978   4.674  13.017  1.5760 -2.1047  1.6748
  192DOPC  H14C23670   7.031   4.848  12.998 -0.8506 -0.1427 -2.3807
  192DOPC   C1523671   7.238   4.828  13.181 -0.8109 -0.8025 -0.1111
  192DOPC  H15A23672   7.282   4.797  13.275  1.7228  2.2088 -0.1212
  192DOPC  H15B23673   7.189   4.921  13.206  2.8180  1.3194 -0.1159
  192DOPC  H15C23674   7.321   4.854  13.117 -0.4574 -0.4299  0.4840
  192DOPC   C1123675   7.159   4.478  13.048 -0.2154 -0.1091  0.0355
  192DOPC  H11A23676   7.092   4.503  12.963 -1.3669 -0.7190  0.7537
  192DOPC  H11B23677   7.236   4.406  13.012 -1.9918 -0.5719 -3.2179
  192DOPC     P23678   7.129   4.327  13.253  0.4756 -0.1889 -0.2625
  192DOPC   O1323679   7.196   4.423  13.344 -0.8145  0.5613  0.1277
  192DOPC   O1423680   7.208   4.214  13.201  0.5492 -0.1123  0.0387
  192DOPC   O1223681   7.069   4.414  13.135 -0.5382 -0.1741  0.4538
  192DOPC   O1123682   6.997   4.260  13.313 -0.4535 -0.0099 -0.1990
  192DOPC    C123683   6.932   4.327  13.420  0.1035 -0.1087 -0.0192
  192DOPC    HA23684   6.829   4.287  13.434 -0.2332  0.5013 -0.6938
  192DOPC    HB23685   6.917   4.436  13.402  1.8189 -0.1748 -2.2441
  192DOPC    C223686   6.995   4.306  13.565 -0.1851 -0.2049 -0.0959
  192DOPC    HS23687   7.098   4.347  13.553 -0.5186  0.2556 -1.7568
  192DOPC   O2123688   6.989   4.169  13.587  0.2286  0.7099 -0.9178
  192DOPC   C2123689   7.058   4.124  13.694  0.4823 -0.7157  0.5475
  192DOPC   O2223690   7.156   4.181  13.745  0.4592 -0.3525  0.0756
  192DOPC   C2223691   7.006   3.985  13.725 -0.5801 -0.1796 -0.0120
  192DOPC   H2R23692   7.099   3.923  13.733 -0.1231  0.1776 -1.9501
  192DOPC   H2S23693   6.946   3.942  13.642 -0.8970  0.5656 -0.1679
  192DOPC    C323694   6.915   4.390  13.674 -0.3448 -0.1123  0.7804
  192DOPC    HX23695   6.811   4.354  13.687  0.3698 -1.9211  1.9343
  192DOPC    HY23696   6.912   4.494  13.633  0.3032 -0.0684  0.8300
  192DOPC   O3123697   6.980   4.385  13.797 -0.2877  0.5784 -0.6353
  192DOPC   C3123698   7.081   4.462  13.829  0.4111  0.6268  0.4173
  192DOPC   O3223699   7.126   4.550  13.758 -0.0247  0.4128 -0.2684
  192DOPC   C3223700   7.123   4.433  13.977  0.5009 -0.1710 -0.5950
  192DOPC   H2X23701   7.071   4.512  14.034 -1.0294 -1.2935 -0.3735
  192DOPC   H2Y23702   7.090   4.331  14.008 -0.5114  0.4070  0.2955
  192DOPC   C2323703   6.918   3.992  13.854 -0.6518  0.8199 -0.2970
  192DOPC   H3R23704   6.860   3.898  13.856 -1.0764  1.0716 -0.4585
  192DOPC   H3S23705   6.846   4.076  13.846  0.0654  1.7752  2.2638
  192DOPC   C2423706   6.990   4.033  13.982  0.0712 -0.2582 -0.2621
  192DOPC   H4R23707   7.057   4.117  13.953  0.5996 -0.2967  0.7999
  192DOPC   H4S23708   7.052   3.944  14.004 -0.8551 -0.7521  0.4521
  192DOPC   C2523709   6.894   4.069  14.097 -0.1304  0.4385 -0.0176
  192DOPC   H5R23710   6.797   4.016  14.089 -0.4137  0.8852  0.3667
  192DOPC   H5S23711   6.860   4.175  14.095 -2.4595 -0.2036  1.5388
  192DOPC   C2623712   6.947   4.035  14.238 -0.0691 -0.5857  0.4464
  192DOPC   H6R23713   7.048   4.075  14.261 -0.0173  0.2819 -1.1489
  192DOPC   H6S23714   6.947   3.925  14.252 -0.2647 -0.2479  3.9909
  192DOPC   C2723715   6.856   4.085  14.350 -0.4498 -0.6316 -0.3917
  192DOPC   H7R23716   6.754   4.045  14.331 -0.3152 -0.4466 -1.5721
  192DOPC   H7S23717   6.846   4.195  14.342 -1.3490 -0.8125 -2.1953
  192DOPC   C2823718   6.902   4.046  14.494 -0.1924  0.2334 -0.2690
  192DOPC   H8R23719   6.987   4.111  14.522 -1.0185  1.1207  0.2204
  192DOPC   H8S23720   6.955   3.948  14.494  1.5506  1.0548  2.6478
  192DOPC   C2923721   6.796   4.058  14.599 -0.1740 -0.0414 -0.2121
  192DOPC   H9R23722   6.759   3.959  14.628 -1.2825  0.0780 -1.1508
  192DOPC  C21023723   6.754   4.172  14.653 -0.5928  0.5548  0.5701
  192DOPC  H10R23724   6.676   4.174  14.730 -1.1370 -0.6491  0.0763
  192DOPC  C21123725   6.795   4.316  14.618 -0.1047  0.1817 -0.4462
  192DOPC  H11R23726   6.726   4.355  14.540 -0.9990 -2.0934 -0.8908
  192DOPC  H11S23727   6.898   4.328  14.580  0.7783  0.1509  1.8207
  192DOPC  C21223728   6.775   4.403  14.744 -0.1837  0.2598 -0.1420
  192DOPC  H12R23729   6.849   4.354  14.810  0.6832 -2.7635 -3.1032
  192DOPC  H12S23730   6.674   4.405  14.790 -0.0119 -0.4567  0.2795
  192DOPC  C21323731   6.828   4.550  14.718  0.4251 -0.1081 -0.0012
  192DOPC  H13R23732   6.747   4.606  14.667  0.5804  1.8455  1.7698
  192DOPC  H13S23733   6.913   4.551  14.647 -0.4537  0.4939 -1.0702
  192DOPC  C21423734   6.872   4.627  14.850 -0.3947 -0.7106  0.0022
  192DOPC  H14R23735   6.960   4.680  14.810  1.0560 -2.9647  0.0395
  192DOPC  H14S23736   6.923   4.558  14.921  0.2201  0.3621  0.6336
  192DOPC  C21523737   6.755   4.708  14.902  0.0784 -0.1076 -0.9691
  192DOPC  H15R23738   6.666   4.646  14.925 -0.0336 -0.4129 -2.2112
  192DOPC  H15S23739   6.725   4.775  14.819 -2.6528  0.6720  0.5343
  192DOPC  C21623740   6.792   4.803  15.015 -0.2144  0.2408  0.0510
  192DOPC  H16R23741   6.884   4.859  14.990 -0.6422  0.6968 -0.5501
  192DOPC  H16S23742   6.816   4.753  15.111 -1.4282  2.5453  1.6603
  192DOPC  C21723743   6.688   4.913  15.045  0.7914  0.1610 -0.7139
  192DOPC  H17R23744   6.657   4.962  14.950  0.2464  0.2027 -0.5207
  192DOPC  H17S23745   6.728   4.996  15.106 -2.3244  0.5806  0.9298
  192DOPC  C21823746   6.573   4.863  15.123  0.3579 -0.5408  0.2919
  192DOPC  H18R23747   6.626   4.824  15.213  0.6433  1.2259  0.9350
  192DOPC  H18S23748   6.516   4.781  15.076 -1.4686  0.8871 -0.1058
  192DOPC  H18T23749   6.507   4.946  15.155  0.1058 -0.9778  0.9254
  192DOPC   C3323750   7.279   4.447  14.006  0.5092  0.9665  0.3247
  192DOPC   H3X23751   7.312   4.551  13.988 -0.0086  1.1907  0.6552
  192DOPC   H3Y23752   7.334   4.378  13.939 -1.6109  1.0156 -1.6086
  192DOPC   C3423753   7.310   4.420  14.160 -0.3939  0.0269  1.0041
  192DOPC   H4X23754   7.245   4.479  14.228 -1.8072 -1.5646  1.1067
  192DOPC   H4Y23755   7.419   4.430  14.179  0.0103  0.6435 -1.2770
  192DOPC   C3523756   7.281   4.271  14.186 -0.2485 -0.2644 -0.1862
  192DOPC   H5X23757   7.330   4.211  14.106  0.9312  1.7789 -1.0505
  192DOPC   H5Y23758   7.171   4.263  14.174 -0.2955  0.3346 -0.1548
  192DOPC   C3623759   7.321   4.234  14.327  0.4343  0.1193  0.4732
  192DOPC   H6X23760   7.299   4.128  14.352 -1.9705  0.4859  0.2039
  192DOPC   H6Y23761   7.427   4.261  14.345  0.2330  0.5941  1.0173
  192DOPC   C3723762   7.228   4.306  14.431  0.3174 -0.2825  0.0740
  192DOPC   H7X23763   7.223   4.416  14.418  1.0164 -0.2931 -0.3581
  192DOPC   H7Y23764   7.122   4.274  14.418 -0.1566  0.6906  1.4173
  192DOPC   C3823765   7.288   4.275  14.568  0.2476 -0.0054  0.1602
  192DOPC   H8X23766   7.388   4.324  14.566  1.6110 -2.6178 -0.3896
  192DOPC   H8Y23767   7.310   4.167  14.578  0.2459 -0.0713 -0.4736
  192DOPC   C3923768   7.207   4.327  14.685 -0.8069  0.0410  0.3070
  192DOPC   H9X23769   7.106   4.283  14.692  0.1257 -2.5968 -1.4535
  192DOPC  C31023770   7.247   4.411  14.782  0.1132 -0.4147 -0.3906
  192DOPC  H10X23771   7.179   4.429  14.866  0.5511  1.9872 -0.4672
  192DOPC  C31123772   7.383   4.478  14.797  0.0851  0.6289 -0.2497
  192DOPC  H11X23773   7.462   4.422  14.742 -1.4642  0.1675 -2.1513
  192DOPC  H11Y23774   7.402   4.466  14.905 -2.1338 -1.0029  0.0371
  192DOPC  C31223775   7.387   4.623  14.757 -0.1888 -0.9468  0.4167
  192DOPC  H12X23776   7.484   4.657  14.800 -1.2213  0.0797  2.0392
  192DOPC  H12Y23777   7.311   4.688  14.805  0.4283 -1.5025  2.2668
  192DOPC  C31323778   7.392   4.648  14.602 -0.8150  0.0198  0.2716
  192DOPC  H13X23779   7.473   4.588  14.557 -0.8168 -0.9645  1.5079
  192DOPC  H13Y23780   7.302   4.594  14.566 -0.7062 -2.1528  2.9097
  192DOPC  C31423781   7.408   4.798  14.553 -0.2184  0.3396 -0.0028
  192DOPC  H14X23782   7.337   4.859  14.614  0.4315  0.2285  0.8778
  192DOPC  H14Y23783   7.512   4.828  14.575 -0.5331  0.8452  0.8284
  192DOPC  C31523784   7.376   4.825  14.408 -0.0412  0.0389 -0.6489
  192DOPC  H15X23785   7.449   4.771  14.343 -0.0448  0.4710 -1.0141
  192DOPC  H15Y23786   7.394   4.933  14.389 -0.7723  0.6126  1.5777
  192DOPC  C31623787   7.239   4.794  14.368  0.6157 -0.5660  0.1011
  192DOPC  H16X23788   7.214   4.687  14.359  0.2755 -0.5467  0.7706
  192DOPC  H16Y23789   7.167   4.833  14.443  0.1330 -0.7839 -0.2501
  192DOPC  C31723790   7.212   4.849  14.226  0.0374 -0.0950 -0.4834
  192DOPC  H17X23791   7.220   4.958  14.245 -2.2894 -0.4045  3.2925
  192DOPC  H17Y23792   7.286   4.823  14.148  0.7705 -0.5423  0.3415
  192DOPC  C31823793   7.065   4.830  14.175  0.6250 -0.5142 -0.3005
  192DOPC  H18X23794   6.992   4.878  14.244  0.3623 -1.7730  0.3269
  192DOPC  H18Y23795   7.056   4.877  14.075 -0.2526 -0.2049 -0.0813
  192DOPC  H18Z23796   7.041   4.722  14.171  0.3286 -0.6283  2.4322
  193DOPC     N23797   6.509   1.445  12.890  0.1400 -0.0065 -0.8604
  193DOPC   C1223798   6.477   1.391  13.033 -0.0201  0.0037 -0.6211
  193DOPC  H12A23799   6.554   1.417  13.105 -1.7699 -0.2538  1.4418
  193DOPC  H12B23800   6.486   1.284  13.026  1.3789  0.0563 -0.1287
  193DOPC   C1323801   6.645   1.398  12.846  0.1508 -0.4836  0.5356
  193DOPC  H13A23802   6.650   1.295  12.876  0.8486 -0.3359  0.9625
  193DOPC  H13B23803   6.662   1.419  12.741  1.4977  1.7797  1.1241
  193DOPC  H13C23804   6.731   1.447  12.891 -0.1049  0.9122 -0.4099
  193DOPC   C1423805   6.515   1.592  12.895 -0.7916 -0.1926  0.3900
  193DOPC  H14A23806   6.599   1.623  12.955 -0.2430 -0.4152 -0.2440
  193DOPC  H14B23807   6.542   1.619  12.794 -3.4652 -1.1087 -0.6578
  193DOPC  H14C23808   6.423   1.644  12.916 -0.1437  1.0639  0.2189
  193DOPC   C1523809   6.410   1.399  12.789  0.8754  0.0110 -0.2307
  193DOPC  H15A23810   6.318   1.449  12.815  0.8196 -0.5462  0.7189
  193DOPC  H15B23811   6.402   1.291  12.797  1.2268 -0.0931 -1.2272
  193DOPC  H15C23812   6.447   1.426  12.691  1.8425  0.3588  0.2145
  193DOPC   C1123813   6.346   1.427  13.101 -0.2221 -0.2029  0.2681
  193DOPC  H11A23814   6.353   1.396  13.207 -0.0284 -1.5990 -0.1367
  193DOPC  H11B23815   6.345   1.538  13.107  1.9110 -0.0831 -0.5909
  193DOPC     P23816   6.156   1.257  13.053 -0.0018  0.2362  0.1478
  193DOPC   O1323817   6.246   1.141  13.052 -0.8901  0.3290 -0.3957
  193DOPC   O1423818   6.033   1.243  12.975  0.2338 -0.3855  0.4010
  193DOPC   O1223819   6.237   1.382  13.020 -0.0761  0.0343  0.2248
  193DOPC   O1123820   6.111   1.277  13.198 -0.2994  0.1446  0.4499
  193DOPC    C123821   6.061   1.397  13.256  0.2139 -0.2634  0.4264
  193DOPC    HA23822   5.951   1.385  13.247  0.0077  1.8168 -0.3480
  193DOPC    HB23823   6.085   1.489  13.198  1.8442 -0.6683  0.4149
  193DOPC    C223824   6.097   1.428  13.405 -1.0290 -0.1795  0.1129
  193DOPC    HS23825   6.208   1.434  13.410 -0.6809 -3.3086 -1.2556
  193DOPC   O2123826   6.052   1.317  13.487  0.2146 -0.4009  0.0648
  193DOPC   C2123827   6.126   1.280  13.592 -0.4866 -0.7281 -0.2910
  193DOPC   O2223828   6.234   1.331  13.617  0.5432 -0.2570 -0.2108
  193DOPC   C2223829   6.045   1.176  13.678 -0.0506 -0.1358  0.3317
  193DOPC   H2R23830   6.055   1.081  13.620 -1.8783 -0.6007  0.7282
  193DOPC   H2S23831   5.940   1.211  13.687  0.0568  0.0609  0.9048
  193DOPC    C323832   6.039   1.562  13.452  0.7628 -0.3786 -0.3180
  193DOPC    HX23833   5.929   1.556  13.438  0.7011  1.9929 -1.1996
  193DOPC    HY23834   6.076   1.645  13.388 -0.8530  0.3215 -0.3952
  193DOPC   O3123835   6.068   1.585  13.589  0.4604 -0.4794 -0.5505
  193DOPC   C3123836   6.187   1.647  13.615 -0.3774 -0.0829 -0.4333
  193DOPC   O3223837   6.265   1.680  13.530 -0.3021 -0.2441  0.3257
  193DOPC   C3223838   6.207   1.661  13.767 -0.6171 -0.2587 -0.8433
  193DOPC   H2X23839   6.105   1.669  13.810 -0.0061  0.6451  0.4813
  193DOPC   H2Y23840   6.253   1.572  13.814 -0.6363 -0.0916 -0.5023
  193DOPC   C2323841   6.101   1.158  13.823 -0.4604 -0.0354  0.0241
  193DOPC   H3R23842   6.209   1.135  13.813 -0.3433  1.1529 -1.9585
  193DOPC   H3S23843   6.050   1.070  13.867  0.1341  0.0872  0.9809
  193DOPC   C2423844   6.081   1.278  13.909 -0.0925 -0.1296 -0.8597
  193DOPC   H4R23845   5.973   1.283  13.935  0.6261  1.5984  2.3972
  193DOPC   H4S23846   6.109   1.374  13.862  0.1586 -0.0643 -0.5836
  193DOPC   C2523847   6.155   1.273  14.047  0.7926  0.4923  0.5620
  193DOPC   H5R23848   6.256   1.320  14.042  0.8459  0.4078  0.7957
  193DOPC   H5S23849   6.173   1.167  14.075 -0.7944  0.2752  0.8397
  193DOPC   C2623850   6.073   1.338  14.160 -0.3681  0.4711 -0.6950
  193DOPC   H6R23851   5.970   1.297  14.164 -0.7304  1.3851 -0.0999
  193DOPC   H6S23852   6.051   1.445  14.141 -1.8287  0.1040 -1.1999
  193DOPC   C2723853   6.149   1.316  14.293 -0.1576 -0.0619  0.6877
  193DOPC   H7R23854   6.244   1.375  14.290 -0.6672  0.8118  1.2093
  193DOPC   H7S23855   6.175   1.209  14.305 -0.9833 -0.6902 -2.2525
  193DOPC   C2823856   6.072   1.364  14.408  0.2011  0.1385 -0.0052
  193DOPC   H8R23857   5.975   1.309  14.405  0.1416  0.2733 -1.9742
  193DOPC   H8S23858   6.055   1.472  14.387 -0.3013  0.3460  1.3497
  193DOPC   C2923859   6.147   1.346  14.535 -0.7340 -0.4489  0.4146
  193DOPC   H9R23860   6.232   1.276  14.532 -1.3628 -1.2893  1.4117
  193DOPC  C21023861   6.130   1.421  14.645 -0.0713  0.6302  0.5167
  193DOPC  H10R23862   6.201   1.393  14.724  0.9992 -3.2127 -1.5408
  193DOPC  C21123863   6.034   1.531  14.674  0.8427 -0.3006 -0.1038
  193DOPC  H11R23864   5.990   1.584  14.587  0.2300  0.9166  0.9189
  193DOPC  H11S23865   6.094   1.613  14.720 -1.3007  0.8840  0.7004
  193DOPC  C21223866   5.922   1.503  14.775  0.1694 -0.9863  0.1627
  193DOPC  H12R23867   5.958   1.453  14.867  1.1541  0.3784  0.5551
  193DOPC  H12S23868   5.858   1.430  14.721  0.6591  0.0409 -1.9347
  193DOPC  C21323869   5.848   1.634  14.818 -0.2459  0.1214  0.5089
  193DOPC  H13R23870   5.820   1.683  14.722  2.5840  1.4250  0.2506
  193DOPC  H13S23871   5.915   1.693  14.884  0.0410 -0.6272  0.8933
  193DOPC  C21423872   5.726   1.605  14.913  0.1273 -0.0662 -0.1620
  193DOPC  H14R23873   5.699   1.703  14.959 -0.8956 -0.9196  1.1307
  193DOPC  H14S23874   5.752   1.551  15.006 -1.1134 -1.3865 -0.5475
  193DOPC  C21523875   5.600   1.541  14.851 -0.0495 -0.4886 -0.0364
  193DOPC  H15R23876   5.636   1.453  14.795  1.4102 -0.3724  0.6634
  193DOPC  H15S23877   5.546   1.600  14.774 -2.2810 -1.2432  0.8838
  193DOPC  C21623878   5.499   1.480  14.953  0.4349 -0.0366  0.8397
  193DOPC  H16R23879   5.475   1.544  15.040 -0.6227  1.1581 -0.2955
  193DOPC  H16S23880   5.549   1.394  15.004  0.4531 -0.3452  0.3146
  193DOPC  C21723881   5.372   1.415  14.888  0.6479  0.2209  0.1707
  193DOPC  H17R23882   5.413   1.355  14.803 -0.3389 -0.7352  0.3517
  193DOPC  H17S23883   5.307   1.492  14.841 -0.9057 -0.8571  0.4777
  193DOPC  C21823884   5.300   1.337  14.990 -0.8764  0.5379 -0.3994
  193DOPC  H18R23885   5.288   1.402  15.079 -2.5795  0.1311 -0.2997
  193DOPC  H18S23886   5.354   1.247  15.027 -0.2759  1.4200  0.9262
  193DOPC  H18T23887   5.204   1.293  14.957 -0.2596 -1.0982 -0.1218
  193DOPC   C3323888   6.282   1.787  13.819 -0.5583 -0.5223 -0.1296
  193DOPC   H3X23889   6.250   1.872  13.755  1.7985  0.2526 -0.3500
  193DOPC   H3Y23890   6.388   1.759  13.802 -0.8831 -1.4725 -0.6739
  193DOPC   C3423891   6.250   1.838  13.966  0.0491  0.3815 -0.0364
  193DOPC   H4X23892   6.306   1.931  13.991  0.3324 -0.2000  1.6072
  193DOPC   H4Y23893   6.291   1.766  14.040  0.4985 -1.7200 -2.2156
  193DOPC   C3523894   6.103   1.863  13.996  0.4814 -0.5619 -0.0390
  193DOPC   H5X23895   6.083   1.853  14.105  0.9053  0.6384  0.1642
  193DOPC   H5Y23896   6.045   1.781  13.948  0.8728 -1.5139  1.0728
  193DOPC   C3623897   6.053   2.004  13.956  0.4056 -0.3042  0.2184
  193DOPC   H6X23898   6.074   2.019  13.848 -1.8888 -0.8264 -0.3416
  193DOPC   H6Y23899   5.942   2.000  13.962  0.3098  0.8115 -0.5836
  193DOPC   C3723900   6.094   2.121  14.042  0.4709 -0.2312  0.7871
  193DOPC   H7X23901   6.082   2.097  14.150  0.0688 -0.7476  0.6309
  193DOPC   H7Y23902   6.203   2.132  14.023  0.4780 -2.1941 -0.6180
  193DOPC   C3823903   6.038   2.258  13.992 -0.2659  0.0902 -0.1693
  193DOPC   H8X23904   6.072   2.277  13.888  0.4524  2.0855  0.3801
  193DOPC   H8Y23905   6.093   2.339  14.045 -1.2593  1.0904 -0.6139
  193DOPC   C3923906   5.889   2.274  13.996 -0.0209  0.6356  0.3234
  193DOPC   H9X23907   5.836   2.270  13.900  4.6627 -0.3699 -2.5326
  193DOPC  C31023908   5.823   2.296  14.108  0.3354  0.1066 -0.5929
  193DOPC  H10X23909   5.714   2.300  14.099  0.4665  0.1335 -2.6298
  193DOPC  C31123910   5.882   2.305  14.254 -0.0664 -0.3394 -0.3994
  193DOPC  H11X23911   5.989   2.334  14.255 -0.8058  2.7282 -0.8600
  193DOPC  H11Y23912   5.882   2.202  14.295 -1.1520  0.2266  1.1402
  193DOPC  C31223913   5.824   2.406  14.356  0.2266  0.0215 -0.1262
  193DOPC  H12X23914   5.715   2.387  14.369  0.0313  0.4287 -1.0943
  193DOPC  H12Y23915   5.845   2.509  14.322 -0.7314  0.5410  0.7668
  193DOPC  C31323916   5.896   2.390  14.492  0.8765 -0.3305  0.5736
  193DOPC  H13X23917   5.894   2.288  14.536  0.8714 -1.2222 -1.3955
  193DOPC  H13Y23918   6.003   2.416  14.474  1.0239 -2.0005 -1.3305
  193DOPC  C31423919   5.840   2.471  14.604 -0.5347 -0.6241  0.0902
  193DOPC  H14X23920   5.800   2.569  14.571 -1.9362  0.0090  3.2950
  193DOPC  H14Y23921   5.756   2.412  14.644 -0.8607 -1.6716 -2.0340
  193DOPC  C31523922   5.945   2.504  14.708 -0.3217 -0.1752  0.0002
  193DOPC  H15X23923   6.013   2.583  14.670  1.5107 -1.2494  0.9330
  193DOPC  H15Y23924   6.017   2.421  14.723 -0.8744 -0.7458 -0.4388
  193DOPC  C31623925   5.888   2.559  14.839  0.0861  0.2015  0.2987
  193DOPC  H16X23926   5.849   2.658  14.810  2.1650  0.5628 -1.4973
  193DOPC  H16Y23927   5.810   2.483  14.864  0.6657 -0.6429 -0.3850
  193DOPC  C31723928   5.997   2.573  14.952 -0.7019 -0.4942 -0.2078
  193DOPC  H17X23929   6.020   2.469  14.984 -0.7573 -0.4248  0.0580
  193DOPC  H17Y23930   6.083   2.619  14.899 -0.8284 -2.4529 -2.2639
  193DOPC  C31823931   5.940   2.649  15.066  0.1654 -0.0321  0.6152
  193DOPC  H18X23932   6.005   2.674  15.153 -1.5069 -0.4309  2.0412
  193DOPC  H18Y23933   5.896   2.747  15.040  0.3599 -0.4708 -1.5096
  193DOPC  H18Z23934   5.858   2.584  15.104 -1.7613  1.9644  0.0904
  194DOPC     N23935   0.508   0.116  13.312  0.5126  0.0765  0.5022
  194DOPC   C1223936   0.473   0.004  13.414 -0.3240  0.0911 -0.0211
  194DOPC  H12A23937   0.377  -0.039  13.390  0.4137  0.1615 -3.5023
  194DOPC  H12B23938   0.462   0.041  13.515 -2.2183 -1.5610  0.4497
  194DOPC   C1323939   0.507   0.053  13.177 -0.0080  0.4687  0.6989
  194DOPC  H13A23940   0.512   0.128  13.099  3.3973  0.2048  0.5162
  194DOPC  H13B23941   0.582  -0.025  13.176  0.8257  1.1236 -3.1350
  194DOPC  H13C23942   0.412   0.007  13.157  1.1828 -1.2778 -1.3763
  194DOPC   C1423943   0.640   0.175  13.351 -0.5511  0.0067 -0.8088
  194DOPC  H14A23944   0.722   0.106  13.338  0.3098  0.6635  0.8762
  194DOPC  H14B23945   0.664   0.264  13.294  0.4163  0.5931  0.4565
  194DOPC  H14C23946   0.644   0.213  13.451  1.6172 -1.3587 -0.2987
  194DOPC   C1523947   0.397   0.216  13.314  0.0302 -0.7797  0.4272
  194DOPC  H15A23948   0.312   0.175  13.263  0.1667 -0.4714 -0.0589
  194DOPC  H15B23949   0.419   0.308  13.261  1.2700 -2.1083 -1.4562
  194DOPC  H15C23950   0.377   0.250  13.415 -0.9273 -2.7212  0.9310
  194DOPC   C1123951   0.576  -0.121  13.417  0.3197  0.0639 -0.3576
  194DOPC  H11A23952   0.668  -0.060  13.427  0.8201 -0.2057 -2.6345
  194DOPC  H11B23953   0.551  -0.166  13.515  1.7249  1.1952  0.5502
  194DOPC     P23954   0.701  -0.263  13.254 -0.0259 -0.4456 -0.0800
  194DOPC   O1323955   0.772  -0.168  13.171  0.2649  0.4988 -0.0790
  194DOPC   O1423956   0.667  -0.391  13.192 -0.2072 -0.2845  0.0337
  194DOPC   O1223957   0.560  -0.201  13.309 -0.1910  0.1569  0.5449
  194DOPC   O1123958   0.794  -0.286  13.380 -0.3783  0.1175 -0.0510
  194DOPC    C123959   0.823  -0.417  13.430 -0.1019  0.0731  0.5823
  194DOPC    HA23960   0.926  -0.416  13.473  0.1352 -1.7014  0.1407
  194DOPC    HB23961   0.808  -0.501  13.359  0.2679 -1.1443  1.8779
  194DOPC    C223962   0.725  -0.457  13.548  0.4159 -0.3370  0.6043
  194DOPC    HS23963   0.624  -0.464  13.503  0.5350 -2.1997  0.5515
  194DOPC   O2123964   0.746  -0.356  13.644 -0.4982 -0.0925  0.0544
  194DOPC   C2123965   0.641  -0.330  13.716 -0.1582 -0.0776 -0.4870
  194DOPC   O2223966   0.525  -0.364  13.704 -0.2216  0.1670 -0.1761
  194DOPC   C2223967   0.688  -0.244  13.836 -0.0397 -0.0624  0.1432
  194DOPC   H2R23968   0.756  -0.162  13.804  1.9792 -1.2358  1.2737
  194DOPC   H2S23969   0.756  -0.308  13.896  0.5981  0.7957  0.3589
  194DOPC    C323970   0.763  -0.588  13.612 -0.0732  0.1363 -0.2800
  194DOPC    HX23971   0.862  -0.575  13.661  0.1005 -0.2595 -0.5174
  194DOPC    HY23972   0.772  -0.672  13.539  1.9248  1.6166 -1.8256
  194DOPC   O3123973   0.664  -0.623  13.717 -0.1984 -0.0254 -0.5110
  194DOPC   C3123974   0.549  -0.664  13.683 -0.6204 -0.5065 -0.7842
  194DOPC   O3223975   0.505  -0.683  13.572  0.3227 -0.0241 -0.0544
  194DOPC   C3223976   0.475  -0.700  13.816  0.7467  0.6853 -0.5393
  194DOPC   H2X23977   0.373  -0.663  13.790  1.7812  1.8492 -3.4302
  194DOPC   H2Y23978   0.482  -0.811  13.818  1.5160  0.6071 -3.1721
  194DOPC   C2323979   0.576  -0.193  13.928  0.7440  0.7424 -0.2371
  194DOPC   H3R23980   0.533  -0.279  13.984 -1.8189  1.6860 -0.6141
  194DOPC   H3S23981   0.496  -0.143  13.869  1.1851  2.7901  0.7833
  194DOPC   C2423982   0.614  -0.099  14.039 -0.0621 -0.4341 -0.1214
  194DOPC   H4R23983   0.637   0.001  13.996 -1.1130  1.0325  2.5080
  194DOPC   H4S23984   0.707  -0.120  14.096 -1.0474  0.7803  2.0527
  194DOPC   C2523985   0.499  -0.097  14.141 -0.0050 -0.3846 -0.7774
  194DOPC   H5R23986   0.502  -0.202  14.178  2.4036 -0.5220 -1.1578
  194DOPC   H5S23987   0.406  -0.069  14.088 -0.8449 -0.7255  0.4777
  194DOPC   C2623988   0.519   0.005  14.250  0.2133  0.5297 -0.0055
  194DOPC   H6R23989   0.622   0.021  14.289 -0.3038  2.6578  0.6103
  194DOPC   H6S23990   0.447  -0.018  14.331  0.9463  0.0183  0.5200
  194DOPC   C2723991   0.483   0.161  14.224 -0.1551  0.0561 -0.6456
  194DOPC   H7R23992   0.375   0.157  14.200 -0.6090 -1.3158  1.3703
  194DOPC   H7S23993   0.537   0.197  14.134  0.9061 -0.0383 -0.0608
  194DOPC   C2823994   0.498   0.257  14.348  0.3713  0.3331  0.2915
  194DOPC   H8R23995   0.456   0.195  14.430  0.4492 -1.5474 -1.0457
  194DOPC   H8S23996   0.432   0.345  14.330 -0.1146 -0.3283 -1.2420
  194DOPC   C2923997   0.635   0.306  14.372 -0.5725  0.0822  0.2595
  194DOPC   H9R23998   0.709   0.297  14.291  1.2482 -2.1130  2.0017
  194DOPC  C21023999   0.683   0.358  14.485  0.0803  0.0990 -0.3139
  194DOPC  H10R24000   0.789   0.382  14.503  0.0103 -0.1629  0.4838
  194DOPC  C21124001   0.605   0.378  14.616 -0.0807 -0.0419  0.5641
  194DOPC  H11R24002   0.498   0.352  14.603 -0.8122  2.0227  1.9329
  194DOPC  H11S24003   0.605   0.486  14.645 -2.8502  0.1465  0.1679
  194DOPC  C21224004   0.661   0.304  14.743  0.0867  0.9189  0.3048
  194DOPC  H12R24005   0.772   0.310  14.748  0.1885  1.4064 -1.6471
  194DOPC  H12S24006   0.639   0.200  14.710  0.9819  0.9573 -0.4701
  194DOPC  C21324007   0.593   0.329  14.876 -0.2164 -0.1959 -0.9342
  194DOPC  H13R24008   0.482   0.324  14.865 -0.2762 -1.2169 -0.0148
  194DOPC  H13S24009   0.621   0.433  14.906  0.4262 -0.3830 -0.8897
  194DOPC  C21424010   0.634   0.234  14.992 -0.1006 -0.0335 -0.1803
  194DOPC  H14R24011   0.743   0.250  15.006 -0.2076  0.8796 -0.3625
  194DOPC  H14S24012   0.624   0.129  14.958 -1.6731  0.4043 -1.1947
  194DOPC  C21524013   0.563   0.253  15.125 -0.4200  0.5445  0.2366
  194DOPC  H15R24014   0.463   0.208  15.105 -0.1351  0.1621 -0.3172
  194DOPC  H15S24015   0.545   0.361  15.148 -2.6079  0.0430  1.1742
  194DOPC  C21624016   0.631   0.195  15.253  0.5965  0.0928 -0.2805
  194DOPC  H16R24017   0.569   0.201  15.345 -0.1216 -2.1713 -0.5535
  194DOPC  H16S24018   0.732   0.240  15.265  0.0418  1.1881  0.3940
  194DOPC  C21724019   0.644   0.042  15.225  0.1520  0.3085  0.4436
  194DOPC  H17R24020   0.712  -0.003  15.301  0.2475  0.2174  0.3047
  194DOPC  H17S24021   0.679   0.023  15.121  1.7673  3.6072  0.2698
  194DOPC  C21824022   0.511  -0.035  15.237  0.0310  0.1190 -0.1962
  194DOPC  H18R24023   0.541  -0.142  15.239 -2.5590 -0.6925 -0.7895
  194DOPC  H18S24024   0.442  -0.013  15.153 -0.2395 -1.2115 -0.3423
  194DOPC  H18T24025   0.462  -0.019  15.335  0.2149 -0.1002 -0.0682
  194DOPC   C3324026   0.532  -0.633  13.935 -0.4008 -0.2727 -0.5103
  194DOPC   H3X24027   0.548  -0.524  13.921 -0.3187 -0.2322 -0.0956
  194DOPC   H3Y24028   0.632  -0.677  13.955  0.9449  1.9701 -1.7952
  194DOPC   C3424029   0.437  -0.652  14.058 -0.1019  0.1014  0.5252
  194DOPC   H4X24030   0.501  -0.622  14.144 -0.5692 -1.8429  1.6207
  194DOPC   H4Y24031   0.412  -0.760  14.067 -0.9574  0.0853 -1.5987
  194DOPC   C3524032   0.314  -0.565  14.058  0.0592 -0.2240 -0.3850
  194DOPC   H5X24033   0.249  -0.579  13.968 -1.6192 -1.2925  0.9270
  194DOPC   H5Y24034   0.359  -0.463  14.059  1.5361 -0.8568 -0.1813
  194DOPC   C3624035   0.228  -0.582  14.189 -0.7358  0.2697 -0.0843
  194DOPC   H6X24036   0.188  -0.685  14.187 -2.7747  0.9702  1.0249
  194DOPC   H6Y24037   0.308  -0.566  14.264  1.4616 -0.7985 -2.0905
  194DOPC   C3724038   0.124  -0.471  14.190 -0.3935  0.8340  0.5950
  194DOPC   H7X24039   0.178  -0.374  14.178 -0.2609  0.5111 -2.0601
  194DOPC   H7Y24040   0.073  -0.475  14.092  1.6633  1.8991 -0.6044
  194DOPC   C3824041   0.025  -0.474  14.311 -0.0681 -0.3139 -0.2121
  194DOPC   H8X24042  -0.035  -0.567  14.307  0.4557 -0.6659  0.0168
  194DOPC   H8Y24043  -0.049  -0.395  14.287  1.7715  1.2485 -1.0369
  194DOPC   C3924044   0.081  -0.447  14.451 -0.0973  0.0608 -0.5629
  194DOPC   H9X24045   0.154  -0.364  14.449  0.3548 -0.2655  0.9423
  194DOPC  C31024046   0.061  -0.522  14.563  0.3625  0.5353  0.0553
  194DOPC  H10X24047   0.117  -0.506  14.656  1.2809 -0.4589 -0.3002
  194DOPC  C31124048  -0.030  -0.644  14.565  0.0367 -0.5853 -0.0280
  194DOPC  H11X24049   0.029  -0.731  14.531  0.4240 -0.7195  0.9684
  194DOPC  H11Y24050  -0.119  -0.639  14.498  0.3597 -1.2192 -0.5072
  194DOPC  C31224051  -0.088  -0.654  14.704  0.2720 -0.4268 -0.0763
  194DOPC  H12X24052  -0.177  -0.718  14.691 -1.5372  2.4149 -3.2528
  194DOPC  H12Y24053  -0.117  -0.555  14.746 -1.3386 -0.8742 -0.0798
  194DOPC  C31324054   0.019  -0.710  14.801 -0.1698 -0.3375 -0.0176
  194DOPC  H13X24055   0.108  -0.647  14.821 -1.2424  0.2890  3.5990
  194DOPC  H13Y24056  -0.027  -0.710  14.903  2.0164  0.9481  1.0392
  194DOPC  C31424057   0.051  -0.858  14.759  0.4674 -0.4830 -0.4240
  194DOPC  H14X24058  -0.037  -0.913  14.719 -0.2774  0.1333  0.3154
  194DOPC  H14Y24059   0.121  -0.844  14.674 -0.1211  2.2453 -0.5572
  194DOPC  C31524060   0.106  -0.954  14.870 -0.3668  0.8596  0.9018
  194DOPC  H15X24061   0.038  -0.966  14.958  0.3477  0.1303  1.3652
  194DOPC  H15Y24062   0.199  -0.901  14.902 -0.4817  1.3848  0.3817
  194DOPC  C31624063   0.145  -1.095  14.825  0.4955  0.4045 -0.1525
  194DOPC  H16X24064   0.047  -1.124  14.780  0.9282  2.3573 -2.6482
  194DOPC  H16Y24065   0.221  -1.089  14.744 -0.4984 -3.7041 -1.6313
  194DOPC  C31724066   0.175  -1.204  14.927 -0.5125  0.1440  0.1879
  194DOPC  H17X24067   0.094  -1.213  15.003 -0.5374  0.8793  0.2561
  194DOPC  H17Y24068   0.174  -1.307  14.885  3.2048 -0.1063  0.3861
  194DOPC  C31824069   0.312  -1.183  14.997  0.4545  0.1942 -0.6301
  194DOPC  H18X24070   0.349  -1.265  15.063  0.1997  1.0979  0.6958
  194DOPC  H18Y24071   0.388  -1.161  14.919 -0.3765 -0.6817 -1.7102
  194DOPC  H18Z24072   0.296  -1.096  15.065 -2.9106 -1.1295  0.4732
  195DOPC     N24073   5.124   7.392  12.671  0.2162  0.0792  0.2133
  195DOPC   C1224074   5.177   7.491  12.772  0.4855 -0.2435 -0.0713
  195DOPC  H12A24075   5.115   7.579  12.775 -1.3089 -1.4853  0.3359
  195DOPC  H12B24076   5.280   7.505  12.742 -0.2263  2.0927 -1.6620
  195DOPC   C1324077   5.146   7.448  12.532  0.5732 -0.9171  0.2007
  195DOPC  H13A24078   5.112   7.551  12.523  1.9522 -0.3934  0.7122
  195DOPC  H13B24079   5.252   7.467  12.533  0.2632  1.3917 -1.3288
  195DOPC  H13C24080   5.119   7.381  12.451  0.3191  0.1081 -0.5877
  195DOPC   C1424081   4.972   7.365  12.673 -0.4045  0.2732 -0.8244
  195DOPC  H14A24082   4.922   7.455  12.641  1.1836  1.8591  0.9129
  195DOPC  H14B24083   4.939   7.276  12.621 -1.6320  0.1276  0.1602
  195DOPC  H14C24084   4.946   7.348  12.777 -2.2578 -1.2583 -1.4638
  195DOPC   C1524085   5.211   7.270  12.674  0.3243  0.4987  0.1548
  195DOPC  H15A24086   5.252   7.247  12.772 -0.5337 -0.7268  0.2562
  195DOPC  H15B24087   5.300   7.284  12.615 -0.0342  1.7139 -0.1088
  195DOPC  H15C24088   5.151   7.192  12.630 -1.7956  2.6978 -1.0468
  195DOPC   C1124089   5.190   7.446  12.919 -0.1447  0.3523  0.4097
  195DOPC  H11A24090   5.265   7.365  12.930  2.0340  2.3708  1.5732
  195DOPC  H11B24091   5.246   7.532  12.962  2.4042 -0.9485 -0.1493
  195DOPC     P24092   4.986   7.524  13.058  0.3583 -0.0257  0.0507
  195DOPC   O1324093   4.845   7.477  13.080 -0.3168 -0.5200 -0.2311
  195DOPC   O1424094   5.009   7.658  12.994 -0.3038  0.1409  0.2190
  195DOPC   O1224095   5.071   7.415  12.978  0.1108 -0.1256 -0.0891
  195DOPC   O1124096   5.056   7.522  13.197 -0.5369  0.2619 -0.1996
  195DOPC    C124097   5.049   7.406  13.278  0.2879 -0.4020 -0.4151
  195DOPC    HA24098   5.034   7.314  13.217 -3.4081  0.3384 -0.8469
  195DOPC    HB24099   4.959   7.408  13.343  1.1584  1.7781  0.8465
  195DOPC    C224100   5.174   7.408  13.372 -0.0211 -0.2143 -0.1895
  195DOPC    HS24101   5.171   7.319  13.439  1.4686 -0.2283 -0.1107
  195DOPC   O2124102   5.176   7.527  13.456 -0.6120 -0.4728 -0.2178
  195DOPC   C2124103   5.088   7.524  13.554 -0.4173  0.8053  0.6270
  195DOPC   O2224104   5.016   7.429  13.586 -0.1748 -0.1434 -0.3172
  195DOPC   C2224105   5.106   7.642  13.649 -0.1017 -0.5382  0.2000
  195DOPC   H2R24106   5.017   7.649  13.715  0.2477 -0.3713  0.6702
  195DOPC   H2S24107   5.099   7.732  13.585  0.0249  0.2180  1.2154
  195DOPC    C324108   5.300   7.399  13.289  0.1042  0.1497  0.7907
  195DOPC    HX24109   5.304   7.487  13.221 -1.8548 -0.1830  0.1746
  195DOPC    HY24110   5.289   7.302  13.235  0.4362 -0.7228  2.2267
  195DOPC   O3124111   5.415   7.408  13.373  0.2148  0.1459  0.4828
  195DOPC   C3124112   5.446   7.297  13.430 -0.3440 -0.2180 -1.1047
  195DOPC   O3224113   5.386   7.191  13.415 -0.5270 -0.2905 -0.0101
  195DOPC   C3224114   5.578   7.314  13.504  0.1751 -0.4091 -0.2109
  195DOPC   H2X24115   5.667   7.299  13.438 -1.5019  0.7393 -2.8852
  195DOPC   H2Y24116   5.595   7.413  13.552  1.0942 -1.0925  0.9165
  195DOPC   C2324117   5.248   7.642  13.722 -0.1829  0.6555 -0.0026
  195DOPC   H3R24118   5.279   7.742  13.758 -0.0330  0.0651  1.6125
  195DOPC   H3S24119   5.322   7.614  13.644 -1.4588 -2.0210 -0.3690
  195DOPC   C2424120   5.250   7.544  13.842  0.0693 -0.2831  0.3410
  195DOPC   H4R24121   5.353   7.523  13.878  0.6973 -1.7066 -2.0985
  195DOPC   H4S24122   5.205   7.448  13.810 -0.0879  0.3628 -1.4956
  195DOPC   C2524123   5.161   7.606  13.950 -0.6664 -0.4823  0.1592
  195DOPC   H5R24124   5.057   7.593  13.913 -0.1441 -2.3834 -0.7905
  195DOPC   H5S24125   5.179   7.715  13.956 -0.4171 -0.4795 -0.5927
  195DOPC   C2624126   5.162   7.552  14.097  0.3614 -0.1614 -0.0788
  195DOPC   H6R24127   5.258   7.577  14.147  1.2322 -1.5156 -1.0138
  195DOPC   H6S24128   5.167   7.442  14.088  3.4352 -0.1785  0.5913
  195DOPC   C2724129   5.039   7.598  14.185 -0.2656  0.0362  0.0944
  195DOPC   H7R24130   4.945   7.558  14.139 -0.6253  1.3328 -0.3246
  195DOPC   H7S24131   5.043   7.709  14.186 -1.0377  0.0868 -0.8463
  195DOPC   C2824132   5.059   7.557  14.330 -0.2090 -0.1401  0.1341
  195DOPC   H8R24133   4.985   7.615  14.388  0.0528  2.2288 -1.7451
  195DOPC   H8S24134   5.158   7.589  14.367  0.4679 -0.8730 -0.9796
  195DOPC   C2924135   5.033   7.411  14.345 -0.3658 -0.3912  0.1227
  195DOPC   H9R24136   4.948   7.379  14.283  0.0809  1.1195 -1.3483
  195DOPC  C21024137   5.106   7.331  14.423 -0.0173 -0.3835 -0.0877
  195DOPC  H10R24138   5.083   7.224  14.436  1.2001 -0.5546  0.9451
  195DOPC  C21124139   5.226   7.363  14.513  0.1039 -0.3853 -0.0817
  195DOPC  H11R24140   5.289   7.443  14.469 -1.9908  0.8075 -1.0729
  195DOPC  H11S24141   5.286   7.271  14.529 -0.4505 -0.4497  1.9831
  195DOPC  C21224142   5.187   7.412  14.652 -0.6147  0.2610 -0.1341
  195DOPC  H12R24143   5.128   7.333  14.702  1.0156  0.4484  2.2393
  195DOPC  H12S24144   5.127   7.506  14.661  1.6521  1.7449  0.3775
  195DOPC  C21324145   5.307   7.435  14.747 -0.1641  0.0664 -0.3652
  195DOPC  H13R24146   5.381   7.357  14.718  1.8196  0.1168  3.9735
  195DOPC  H13S24147   5.272   7.411  14.849 -2.1400 -1.6854 -1.3556
  195DOPC  C21424148   5.370   7.580  14.728  0.0311  0.3029  0.2756
  195DOPC  H14R24149   5.304   7.658  14.772 -0.1744  0.8826 -1.0357
  195DOPC  H14S24150   5.379   7.596  14.619 -2.4741 -1.3340 -0.2717
  195DOPC  C21524151   5.500   7.587  14.802 -0.1809  0.1769  0.6428
  195DOPC  H15R24152   5.576   7.542  14.735 -0.6905  0.7960 -0.3692
  195DOPC  H15S24153   5.497   7.525  14.894  4.7935 -1.2873  0.0995
  195DOPC  C21624154   5.533   7.730  14.840  0.4222  0.6152 -0.5092
  195DOPC  H16R24155   5.623   7.738  14.904 -0.5885 -1.1263  1.2345
  195DOPC  H16S24156   5.447   7.781  14.888 -0.3878 -1.5150  0.4498
  195DOPC  C21724157   5.558   7.808  14.714 -0.1828 -0.3087  0.0376
  195DOPC  H17R24158   5.466   7.841  14.660 -0.4744 -2.9031 -1.2064
  195DOPC  H17S24159   5.623   7.751  14.644  0.4251 -1.0673  1.1866
  195DOPC  C21824160   5.643   7.933  14.739  0.2748 -0.8868 -0.0439
  195DOPC  H18R24161   5.639   7.997  14.648  1.1489  0.3088  0.7259
  195DOPC  H18S24162   5.747   7.902  14.763  1.6066  1.2645 -2.3987
  195DOPC  H18T24163   5.604   8.000  14.819  1.7597 -0.0527  0.0292
  195DOPC   C3324164   5.582   7.207  13.618 -0.4769  0.2279 -0.5261
  195DOPC   H3X24165   5.685   7.167  13.628 -0.9744 -0.5618  2.0170
  195DOPC   H3Y24166   5.524   7.118  13.587 -1.2087  0.5598 -0.1390
  195DOPC   C3424167   5.536   7.262  13.754 -0.1937 -0.1322 -0.0305
  195DOPC   H4X24168   5.426   7.281  13.747 -0.3979 -1.2077  0.1583
  195DOPC   H4Y24169   5.596   7.355  13.769  0.1523 -0.3751  0.1026
  195DOPC   C3524170   5.550   7.174  13.879  0.4369  0.0532  0.6173
  195DOPC   H5X24171   5.659   7.174  13.902  0.2902 -0.0392  1.3477
  195DOPC   H5Y24172   5.512   7.073  13.854  0.0496  0.1533  0.8032
  195DOPC   C3624173   5.471   7.223  14.002 -0.1520  0.5627  0.3675
  195DOPC   H6X24174   5.534   7.307  14.038  1.1387  0.1861 -0.9065
  195DOPC   H6Y24175   5.375   7.257  13.958 -1.8528 -5.0088 -1.0231
  195DOPC   C3724176   5.460   7.116  14.111 -0.5829  0.4480  0.2058
  195DOPC   H7X24177   5.402   7.034  14.063  2.1716  0.3334 -3.3340
  195DOPC   H7Y24178   5.561   7.076  14.131 -0.4490  0.7995  0.2481
  195DOPC   C3824179   5.401   7.163  14.241  0.1066 -0.2983 -0.1580
  195DOPC   H8X24180   5.297   7.200  14.232  1.0137  2.5026 -0.0686
  195DOPC   H8Y24181   5.459   7.250  14.279 -2.2739  0.9830  0.7983
  195DOPC   C3924182   5.390   7.052  14.343  0.8529 -0.3977  1.4610
  195DOPC   H9X24183   5.308   6.979  14.345 -0.7111  1.2210 -0.0969
  195DOPC  C31024184   5.460   7.055  14.456  0.4924  0.7375 -0.8533
  195DOPC  H10X24185   5.435   6.988  14.539 -0.1532  1.1896 -0.6731
  195DOPC  C31124186   5.563   7.160  14.495 -0.2683 -0.5858 -0.3306
  195DOPC  H11X24187   5.517   7.256  14.524 -0.4044 -0.0833 -2.1180
  195DOPC  H11Y24188   5.627   7.177  14.406 -1.5835  1.2141 -0.9845
  195DOPC  C31224189   5.647   7.116  14.620 -0.3164  0.6293  0.1058
  195DOPC  H12X24190   5.745   7.167  14.629 -0.5001  0.6886  2.1457
  195DOPC  H12Y24191   5.676   7.009  14.611  1.1332  0.7585  2.4615
  195DOPC  C31324192   5.578   7.117  14.755 -0.0805 -0.4672  0.1522
  195DOPC  H13X24193   5.506   7.201  14.766 -0.6308 -0.6004 -1.9779
  195DOPC  H13Y24194   5.508   7.031  14.748 -2.1489  1.1607 -0.4388
  195DOPC  C31424195   5.669   7.104  14.879  1.0077  0.2342  0.0277
  195DOPC  H14X24196   5.756   7.039  14.856 -0.4206 -1.6877 -0.1177
  195DOPC  H14Y24197   5.710   7.203  14.910 -1.3983  1.2690  0.1136
  195DOPC  C31524198   5.599   7.061  15.003 -0.6109  0.5770  0.6299
  195DOPC  H15X24199   5.681   7.042  15.076  1.1172 -1.7186 -1.7263
  195DOPC  H15Y24200   5.567   6.955  15.003  1.5833 -0.1498  1.3089
  195DOPC  C31624201   5.474   7.134  15.042 -0.2953  0.7306  0.4484
  195DOPC  H16X24202   5.395   7.120  14.966  0.2536 -0.2220  0.0280
  195DOPC  H16Y24203   5.436   7.078  15.130 -1.7110 -1.1236 -1.2524
  195DOPC  C31724204   5.506   7.283  15.076  0.4980  0.0657 -0.8243
  195DOPC  H17X24205   5.589   7.290  15.150 -1.4972  0.7912  1.4943
  195DOPC  H17Y24206   5.541   7.343  14.989  0.2056  0.0675 -0.9420
  195DOPC  C31824207   5.383   7.342  15.149 -0.0652 -0.3113  0.4781
  195DOPC  H18X24208   5.371   7.308  15.254  0.7091 -0.4825  0.5179
  195DOPC  H18Y24209   5.398   7.452  15.154 -2.0848 -0.0676  2.9934
  195DOPC  H18Z24210   5.284   7.321  15.103 -1.1915  1.0435  2.1494
  196DOPC     N24211   7.527   7.616  12.862  0.2142  0.4987  0.7352
  196DOPC   C1224212   7.553   7.580  13.007  0.2388 -0.4365 -0.0409
  196DOPC  H12A24213   7.658   7.586  13.030  0.7711 -0.9504 -2.1086
  196DOPC  H12B24214   7.532   7.475  13.014 -2.7843  0.0752 -0.0225
  196DOPC   C1324215   7.573   7.757  12.837 -0.3760 -0.0745  0.1935
  196DOPC  H13A24216   7.517   7.833  12.890  0.6241 -0.1729  1.4493
  196DOPC  H13B24217   7.676   7.763  12.870 -0.2986  0.5111 -0.1464
  196DOPC  H13C24218   7.563   7.778  12.732 -1.7276  0.4645  0.4123
  196DOPC   C1424219   7.384   7.602  12.834 -0.0411 -0.0515 -0.5344
  196DOPC  H14A24220   7.325   7.674  12.888  1.8321 -0.2638  1.9855
  196DOPC  H14B24221   7.367   7.618  12.728 -2.2259  0.6247 -0.1357
  196DOPC  H14C24222   7.347   7.503  12.857  1.0504  0.1313  2.4662
  196DOPC   C1524223   7.607   7.528  12.772  0.2390  0.2199  0.3411
  196DOPC  H15A24224   7.621   7.431  12.815 -0.0612 -1.4376 -2.9966
  196DOPC  H15B24225   7.707   7.565  12.754  0.6467 -0.9493  0.1178
  196DOPC  H15C24226   7.554   7.503  12.681  1.2538 -0.4543 -0.0882
  196DOPC   C1124227   7.469   7.654  13.114  0.2983 -0.5740 -0.0863
  196DOPC  H11A24228   7.359   7.655  13.101  0.2769  3.2515 -0.6634
  196DOPC  H11B24229   7.489   7.605  13.212  0.4020  0.0449  0.2063
  196DOPC     P24230   7.628   7.830  13.212 -0.0492  0.2185  0.0112
  196DOPC   O1324231   7.659   7.975  13.210 -0.0945  0.0035 -0.4615
  196DOPC   O1424232   7.745   7.749  13.168  0.3219  0.5252  0.0055
  196DOPC   O1224233   7.508   7.792  13.123  0.2561  0.4381 -0.3017
  196DOPC   O1124234   7.585   7.785  13.359 -0.0717  0.9294 -0.3338
  196DOPC    C124235   7.445   7.795  13.410 -0.2665  0.1436 -0.6910
  196DOPC    HA24236   7.424   7.728  13.496 -3.7088  0.9351 -0.7767
  196DOPC    HB24237   7.363   7.780  13.336 -1.8598 -1.3683  1.2568
  196DOPC    C224238   7.423   7.936  13.471  0.4558 -0.3804  0.9193
  196DOPC    HS24239   7.422   7.999  13.380  0.6926 -0.7145  0.6823
  196DOPC   O2124240   7.543   7.973  13.543  0.4757  0.1608 -0.6856
  196DOPC   C2124241   7.549   8.107  13.541 -0.2809 -0.5778  0.2581
  196DOPC   O2224242   7.474   8.183  13.478  0.1025  0.4250 -0.3343
  196DOPC   C2224243   7.649   8.153  13.644  0.2031 -0.1393 -0.2666
  196DOPC   H2R24244   7.704   8.238  13.597  3.8029 -0.7684  2.3471
  196DOPC   H2S24245   7.722   8.072  13.665  1.4253  1.2482  1.1115
  196DOPC    C324246   7.297   7.944  13.559 -0.1089 -0.2947 -0.1112
  196DOPC    HX24247   7.224   7.913  13.481 -1.2642  1.1390  0.3324
  196DOPC    HY24248   7.282   8.053  13.573  2.1641  0.3115 -1.7928
  196DOPC   O3124249   7.307   7.867  13.681 -0.1217  0.1922  0.3244
  196DOPC   C3124250   7.227   7.763  13.698 -0.0100 -0.1125  0.0748
  196DOPC   O3224251   7.162   7.710  13.615  0.3124 -0.3427  0.5818
  196DOPC   C3224252   7.251   7.726  13.845 -0.0341  0.0451  1.1320
  196DOPC   H2X24253   7.360   7.726  13.868  0.1947  1.8859  0.1969
  196DOPC   H2Y24254   7.196   7.787  13.919 -1.5228  0.5055 -0.2791
  196DOPC   C2324255   7.591   8.216  13.778 -0.4914 -0.1150 -0.4588
  196DOPC   H3R24256   7.528   8.299  13.739 -0.9220  0.0665  0.6043
  196DOPC   H3S24257   7.679   8.250  13.836  0.0227 -1.6252 -0.2962
  196DOPC   C2424258   7.507   8.116  13.865 -0.3174 -0.5948  0.6345
  196DOPC   H4R24259   7.583   8.045  13.904 -0.2508 -0.1529  1.3311
  196DOPC   H4S24260   7.429   8.063  13.807  0.5109  0.5313 -1.6506
  196DOPC   C2524261   7.429   8.176  13.978 -0.5822  0.3220  0.4592
  196DOPC   H5R24262   7.326   8.201  13.947 -0.4988  1.4701  1.0638
  196DOPC   H5S24263   7.481   8.267  14.015  0.4383  0.2921 -0.8145
  196DOPC   C2624264   7.415   8.071  14.091 -0.2343 -0.3787 -0.2621
  196DOPC   H6R24265   7.516   8.038  14.122 -0.3264 -0.2412  0.1830
  196DOPC   H6S24266   7.364   7.981  14.052  0.3299 -0.7268 -0.2021
  196DOPC   C2724267   7.344   8.137  14.208  0.3271  0.0142 -0.7571
  196DOPC   H7R24268   7.242   8.162  14.172 -0.1233 -2.1261 -1.1196
  196DOPC   H7S24269   7.391   8.235  14.232  0.5567  0.1418 -1.6851
  196DOPC   C2824270   7.348   8.046  14.333 -0.1161  0.4282 -0.0514
  196DOPC   H8R24271   7.452   8.027  14.367 -0.3273  0.5916  0.6948
  196DOPC   H8S24272   7.300   7.948  14.310  0.6319  0.2177 -0.7475
  196DOPC   C2924273   7.274   8.113  14.454 -0.3249 -0.2953  0.0536
  196DOPC   H9R24274   7.174   8.130  14.413  0.1002  0.1970 -0.8160
  196DOPC  C21024275   7.317   8.132  14.576 -0.9369 -0.0050 -0.3120
  196DOPC  H10R24276   7.252   8.188  14.644  0.7813  2.0779 -0.2874
  196DOPC  C21124277   7.450   8.096  14.627 -0.6989 -0.4236  0.1494
  196DOPC  H11R24278   7.504   8.172  14.687 -0.3096  1.6976 -2.6581
  196DOPC  H11S24279   7.512   8.075  14.537 -1.3600 -1.3254 -0.1119
  196DOPC  C21224280   7.457   7.968  14.707  1.0617 -0.0937  0.1670
  196DOPC  H12R24281   7.562   7.952  14.742  1.2296 -0.2089 -0.3885
  196DOPC  H12S24282   7.418   7.886  14.643 -3.7584  0.9561  1.3488
  196DOPC  C21324283   7.365   7.973  14.837 -0.7339  0.3237 -0.2721
  196DOPC  H13R24284   7.262   7.999  14.805 -0.5977  0.7537 -0.3641
  196DOPC  H13S24285   7.395   8.053  14.908  0.0653 -1.2473  1.2258
  196DOPC  C21424286   7.358   7.838  14.909 -0.0713 -0.1154 -0.0592
  196DOPC  H14R24287   7.465   7.808  14.921  0.6365  2.6897  1.5769
  196DOPC  H14S24288   7.306   7.769  14.839 -0.7573  1.6481 -1.3654
  196DOPC  C21524289   7.292   7.850  15.051  0.0656 -0.1630 -0.4595
  196DOPC  H15R24290   7.201   7.913  15.044 -0.0271 -0.4496 -2.1225
  196DOPC  H15S24291   7.371   7.910  15.102  0.1402 -0.6883  0.0564
  196DOPC  C21624292   7.268   7.713  15.112  0.2437 -0.2748 -0.4669
  196DOPC  H16R24293   7.372   7.674  15.107  0.7278  1.0997 -1.6453
  196DOPC  H16S24294   7.207   7.646  15.049 -0.0143  0.8240 -1.4028
  196DOPC  C21724295   7.207   7.717  15.260 -0.5138 -0.0841 -0.1251
  196DOPC  H17R24296   7.109   7.770  15.269 -0.4189 -0.0320  0.6676
  196DOPC  H17S24297   7.280   7.767  15.327 -2.3804  0.7323  1.3856
  196DOPC  C21824298   7.194   7.571  15.303 -0.7428 -0.1777  0.5467
  196DOPC  H18R24299   7.297   7.530  15.299  0.0842  1.9243 -1.2998
  196DOPC  H18S24300   7.131   7.516  15.230 -1.1787  0.5765  0.3367
  196DOPC  H18T24301   7.149   7.559  15.404 -0.1615 -0.4110  0.7822
  196DOPC   C3324302   7.185   7.588  13.858 -0.5093  0.3896 -0.9877
  196DOPC   H3X24303   7.219   7.521  13.776  1.0564  0.9530 -0.8445
  196DOPC   H3Y24304   7.075   7.581  13.859 -0.5373  0.7581 -1.2939
  196DOPC   C3424305   7.228   7.530  13.996  0.6246 -0.0451  0.0204
  196DOPC   H4X24306   7.339   7.531  14.004  0.4905  0.8637  2.3436
  196DOPC   H4Y24307   7.198   7.423  14.004 -0.9294  0.4020  0.4155
  196DOPC   C3524308   7.174   7.609  14.121 -0.4088 -0.1089 -0.2172
  196DOPC   H5X24309   7.064   7.590  14.128 -0.5171  0.3671  6.5167
  196DOPC   H5Y24310   7.185   7.719  14.114 -0.4215 -0.2406 -3.9932
  196DOPC   C3624311   7.238   7.542  14.250  0.2674 -0.4415  0.0384
  196DOPC   H6X24312   7.204   7.436  14.246 -1.1431 -0.0503  0.9972
  196DOPC   H6Y24313   7.349   7.549  14.248  0.2353  0.1955  0.2984
  196DOPC   C3724314   7.194   7.622  14.376  0.1046 -0.6580  0.3172
  196DOPC   H7X24315   7.204   7.733  14.366  1.4989 -0.6135  1.9058
  196DOPC   H7Y24316   7.086   7.597  14.386 -0.5163  1.6713  0.1100
  196DOPC   C3824317   7.259   7.583  14.513 -0.1730  0.4537  0.0855
  196DOPC   H8X24318   7.233   7.658  14.590 -1.6265 -0.2693  0.3216
  196DOPC   H8Y24319   7.370   7.591  14.504 -0.2244  0.3391 -0.8362
  196DOPC   C3924320   7.224   7.442  14.553 -0.1365 -0.1609 -0.7882
  196DOPC   H9X24321   7.133   7.401  14.507 -0.3048 -0.0009 -0.6014
  196DOPC  C31024322   7.294   7.368  14.653  0.0108 -0.4267  0.4616
  196DOPC  H10X24323   7.273   7.262  14.669  1.4570 -1.2430 -2.2923
  196DOPC  C31124324   7.406   7.424  14.730 -0.0743 -0.2056  0.1673
  196DOPC  H11X24325   7.403   7.535  14.727  1.5568 -0.1490 -1.3513
  196DOPC  H11Y24326   7.492   7.390  14.667 -1.0416  1.0667 -1.9586
  196DOPC  C31224327   7.429   7.364  14.869 -0.6180 -0.2167 -0.0800
  196DOPC  H12X24328   7.415   7.255  14.856  0.7473 -0.4171 -0.0758
  196DOPC  H12Y24329   7.358   7.416  14.937  0.2405 -0.2928  0.9023
  196DOPC  C31324330   7.568   7.386  14.926 -0.9248  0.7142  0.2863
  196DOPC  H13X24331   7.639   7.329  14.862  0.0637  1.5588  0.6124
  196DOPC  H13Y24332   7.593   7.494  14.922  2.1506  0.1305  0.9665
  196DOPC  C31424333   7.576   7.326  15.067 -0.3528  0.5519  0.2811
  196DOPC  H14X24334   7.472   7.325  15.105 -1.3924 -0.8201 -2.3481
  196DOPC  H14Y24335   7.603   7.219  15.055 -0.8013  0.3557  0.9597
  196DOPC  C31524336   7.666   7.396  15.169  0.4168  0.8762 -0.1687
  196DOPC  H15X24337   7.642   7.504  15.174  1.8811  1.1691  1.3915
  196DOPC  H15Y24338   7.770   7.384  15.132  1.1283 -0.1002  1.9897
  196DOPC  C31624339   7.655   7.336  15.314  0.2962  0.7269  0.1332
  196DOPC  H16X24340   7.545   7.324  15.327 -0.0092 -0.3277 -2.6964
  196DOPC  H16Y24341   7.707   7.239  15.321 -1.5379 -0.1486  3.4541
  196DOPC  C31724342   7.696   7.426  15.436  0.3435 -0.4581 -0.2531
  196DOPC  H17X24343   7.677   7.533  15.409  2.0534 -0.0797 -0.0597
  196DOPC  H17Y24344   7.622   7.401  15.515  0.0322  0.1560 -0.3416
  196DOPC  C31824345   7.840   7.405  15.490 -0.0682  0.2704 -0.1357
  196DOPC  H18X24346   7.922   7.413  15.415  0.2374 -1.4275 -0.0275
  196DOPC  H18Y24347   7.862   7.468  15.579 -0.0442 -1.8224  1.4012
  196DOPC  H18Z24348   7.857   7.309  15.544  0.1130  1.0598  1.2744
  197DOPC     N24349   0.984   6.728  13.030 -0.1799 -0.3811  0.0912
  197DOPC   C1224350   1.066   6.854  12.995  0.0473 -0.4635 -0.9654
  197DOPC  H12A24351   1.009   6.941  13.026  0.8923 -0.4228  0.5528
  197DOPC  H12B24352   1.080   6.854  12.887 -1.3986  0.4782 -1.1838
  197DOPC   C1324353   0.846   6.731  12.955  0.3696  0.6476  0.4602
  197DOPC  H13A24354   0.845   6.720  12.847 -6.2850 -1.3716  0.2570
  197DOPC  H13B24355   0.784   6.652  12.995  1.4154 -0.5015 -0.1188
  197DOPC  H13C24356   0.800   6.826  12.974  0.0728  0.8910 -1.2685
  197DOPC   C1424357   0.953   6.726  13.179 -0.0491  0.4424  0.0864
  197DOPC  H14A24358   0.901   6.635  13.205 -0.3072  0.5411 -0.0811
  197DOPC  H14B24359   1.050   6.742  13.225 -0.1172 -0.6711  0.6797
  197DOPC  H14C24360   0.890   6.811  13.201 -0.8028  0.0837 -0.6654
  197DOPC   C1524361   1.055   6.604  12.986 -0.6477  0.5815  0.0751
  197DOPC  H15A24362   1.069   6.608  12.879 -1.0471  0.6098  0.0221
  197DOPC  H15B24363   1.002   6.512  13.008  0.8054 -0.4493 -0.5504
  197DOPC  H15C24364   1.150   6.601  13.036 -1.0480 -0.7876  0.8083
  197DOPC   C1124365   1.211   6.863  13.063  0.3551 -0.4713  0.0443
  197DOPC  H11A24366   1.257   6.767  13.035  0.2694  0.3544 -3.3926
  197DOPC  H11B24367   1.261   6.951  13.016 -0.8229  0.0784 -0.2416
  197DOPC     P24368   1.318   6.886  13.290 -0.2948  0.1188  0.0209
  197DOPC   O1324369   1.392   7.013  13.259 -0.1277  0.2408 -0.1135
  197DOPC   O1424370   1.390   6.754  13.283  0.3393  0.1480  0.0691
  197DOPC   O1224371   1.184   6.882  13.200  0.1521  0.2462 -0.3561
  197DOPC   O1124372   1.273   6.901  13.440  0.6280 -0.1529  0.4305
  197DOPC    C124373   1.371   6.879  13.543  0.2918 -0.3250 -0.4633
  197DOPC    HA24374   1.378   6.967  13.611 -2.1434 -0.2377 -0.2464
  197DOPC    HB24375   1.472   6.876  13.497 -0.1462  0.3723 -1.5120
  197DOPC    C224376   1.337   6.754  13.625  0.3105  0.2403 -0.1908
  197DOPC    HS24377   1.314   6.660  13.571 -0.1435 -0.7831  1.6954
  197DOPC   O2124378   1.223   6.786  13.715  0.2845 -0.6935  0.1326
  197DOPC   C2124379   1.162   6.680  13.765 -0.8810 -0.1546 -1.1366
  197DOPC   O2224380   1.181   6.566  13.725  0.5028 -0.5586 -0.8277
  197DOPC   C2224381   1.047   6.727  13.856 -0.4927  0.5509  0.3246
  197DOPC   H2R24382   1.061   6.661  13.944 -1.8731  0.3743  0.4288
  197DOPC   H2S24383   0.954   6.707  13.798 -0.2571  0.8815 -0.1740
  197DOPC    C324384   1.467   6.709  13.710  0.7302 -0.6154 -0.0206
  197DOPC    HX24385   1.547   6.691  13.635 -0.3594 -2.1114 -0.8710
  197DOPC    HY24386   1.457   6.610  13.759  1.1861 -2.0726 -2.7194
  197DOPC   O3124387   1.522   6.814  13.796  0.3067  0.6149  0.1464
  197DOPC   C3124388   1.462   6.832  13.912  0.6733 -0.4944  0.0073
  197DOPC   O3224389   1.375   6.762  13.959  0.5054  0.4283  0.2803
  197DOPC   C3224390   1.527   6.948  13.985  0.5363 -0.6536  0.6738
  197DOPC   H2X24391   1.617   6.906  14.034  0.0440 -1.4960  0.8675
  197DOPC   H2Y24392   1.568   7.014  13.905 -1.3330 -0.6333 -0.3218
  197DOPC   C2324393   1.044   6.870  13.908  0.3590 -0.4366 -0.7924
  197DOPC   H3R24394   1.066   6.937  13.822 -1.9695 -0.3541 -1.3812
  197DOPC   H3S24395   1.130   6.883  13.977 -0.3355 -0.2192  0.0612
  197DOPC   C2424396   0.928   6.921  13.995  0.0139 -0.4884 -0.1169
  197DOPC   H4R24397   0.899   6.833  14.056  0.8365 -0.5481  0.2120
  197DOPC   H4S24398   0.847   6.947  13.924  0.2409  1.7162  0.3437
  197DOPC   C2524399   0.948   7.042  14.091 -0.1350 -0.6819  0.4363
  197DOPC   H5R24400   0.976   7.136  14.039  1.4805 -2.0821 -1.3646
  197DOPC   H5S24401   1.034   7.024  14.159  1.2632  2.6207 -0.2669
  197DOPC   C2624402   0.836   7.066  14.192 -0.2247 -0.1259 -0.4939
  197DOPC   H6R24403   0.857   7.001  14.281 -0.2105 -0.4142 -0.7056
  197DOPC   H6S24404   0.739   7.031  14.149 -1.4259  3.7700 -1.3058
  197DOPC   C2724405   0.820   7.211  14.235 -0.9518 -0.1565  0.2072
  197DOPC   H7R24406   0.757   7.262  14.159 -0.5954  0.0716  0.0615
  197DOPC   H7S24407   0.927   7.242  14.230 -1.1243  0.6086  1.1351
  197DOPC   C2824408   0.753   7.238  14.370  0.2120 -0.1886 -0.1126
  197DOPC   H8R24409   0.762   7.343  14.404  3.0625 -0.3327 -0.1597
  197DOPC   H8S24410   0.803   7.176  14.448 -2.3260 -0.4441  1.4191
  197DOPC   C2924411   0.608   7.201  14.369  0.1289  0.1472 -0.4756
  197DOPC   H9R24412   0.563   7.234  14.274 -1.6553  0.7870  0.5421
  197DOPC  C21024413   0.523   7.139  14.453  0.1563 -0.6621 -0.1966
  197DOPC  H10R24414   0.417   7.124  14.430 -0.7754  1.9698  1.8441
  197DOPC  C21124415   0.564   7.094  14.588 -0.4964  0.1235 -0.0258
  197DOPC  H11R24416   0.663   7.129  14.624 -0.6088 -0.2484  0.6573
  197DOPC  H11S24417   0.558   6.983  14.590 -0.1233  0.0803 -0.8803
  197DOPC  C21224418   0.461   7.132  14.702 -0.3306 -0.1501  0.3563
  197DOPC  H12R24419   0.362   7.095  14.670 -0.5029 -0.4847  1.2368
  197DOPC  H12S24420   0.458   7.242  14.717 -0.9656 -0.2564  1.0413
  197DOPC  C21324421   0.487   7.067  14.841 -0.1195  0.6011  0.5872
  197DOPC  H13R24422   0.424   7.110  14.922 -1.0331  0.0096  0.2004
  197DOPC  H13S24423   0.596   7.083  14.858 -0.2664  1.8035  0.4795
  197DOPC  C21424424   0.477   6.908  14.841  0.4670 -0.6822  0.0776
  197DOPC  H14R24425   0.536   6.847  14.769  0.0232 -1.5665  0.4485
  197DOPC  H14S24426   0.371   6.883  14.821  0.9410 -0.9338 -2.4696
  197DOPC  C21524427   0.531   6.850  14.969  0.1907  1.0213  0.5836
  197DOPC  H15R24428   0.633   6.879  15.002  0.2709 -1.1094  2.4361
  197DOPC  H15S24429   0.525   6.739  14.967 -2.0301  1.0880  0.3081
  197DOPC  C21624430   0.447   6.895  15.087  0.2040  0.2937 -0.2214
  197DOPC  H16R24431   0.337   6.885  15.072  0.4242 -0.4774 -1.4912
  197DOPC  H16S24432   0.471   7.000  15.114 -1.9152  1.2347 -1.6728
  197DOPC  C21724433   0.475   6.813  15.213 -0.0704  0.3730 -0.0541
  197DOPC  H17R24434   0.491   6.704  15.196  2.7629  1.1551 -3.7905
  197DOPC  H17S24435   0.388   6.830  15.280 -0.5695 -0.6036 -0.4345
  197DOPC  C21824436   0.591   6.871  15.302  0.0125  0.0761 -0.7447
  197DOPC  H18R24437   0.674   6.874  15.228 -0.5535 -0.8837 -1.4378
  197DOPC  H18S24438   0.616   6.820  15.397 -0.1309  1.8716  0.2951
  197DOPC  H18T24439   0.566   6.977  15.325 -0.5801 -0.7247  2.6921
  197DOPC   C3324440   1.434   7.030  14.078 -0.4828  0.2479  0.7197
  197DOPC   H3X24441   1.394   6.957  14.152 -1.4861  0.4499  0.3913
  197DOPC   H3Y24442   1.353   7.075  14.018  0.9383  0.7711 -0.8914
  197DOPC   C3424443   1.517   7.141  14.145  0.0329 -0.2762  0.4835
  197DOPC   H4X24444   1.605   7.176  14.086 -0.4613  0.7738  0.3596
  197DOPC   H4Y24445   1.566   7.089  14.230  0.7785  0.1950  0.3508
  197DOPC   C3524446   1.431   7.258  14.204 -0.3385  1.2707  0.2919
  197DOPC   H5X24447   1.382   7.316  14.123 -1.4268  0.7159  0.5263
  197DOPC   H5Y24448   1.503   7.326  14.253  2.2344 -0.6650 -0.5720
  197DOPC   C3624449   1.321   7.210  14.300 -0.4913  0.4072 -0.2053
  197DOPC   H6X24450   1.257   7.298  14.320  1.1868  2.2232 -2.1988
  197DOPC   H6Y24451   1.263   7.124  14.260  0.8062  0.1814 -1.7490
  197DOPC   C3724452   1.377   7.160  14.435  0.3783  0.2162  0.4814
  197DOPC   H7X24453   1.439   7.069  14.420 -0.6576 -0.4756  0.2691
  197DOPC   H7Y24454   1.428   7.249  14.478 -0.1204  0.4675  0.5659
  197DOPC   C3824455   1.264   7.115  14.526 -0.2973 -0.2283 -0.1103
  197DOPC   H8X24456   1.311   7.093  14.624 -2.1009  1.3920  1.2110
  197DOPC   H8Y24457   1.233   7.019  14.480 -0.7110 -0.6237  0.9620
  197DOPC   C3924458   1.148   7.209  14.544 -0.3174 -1.1249  0.2252
  197DOPC   H9X24459   1.057   7.169  14.496 -0.5468 -0.3787  0.0276
  197DOPC  C31024460   1.137   7.308  14.629 -0.3585 -0.2262 -0.0640
  197DOPC  H10X24461   1.046   7.370  14.635 -0.4027  0.1237 -2.9967
  197DOPC  C31124462   1.245   7.351  14.722 -0.4011 -1.2660  0.1831
  197DOPC  H11X24463   1.274   7.456  14.699 -0.9382 -1.4693 -1.6178
  197DOPC  H11Y24464   1.344   7.305  14.706  0.9448  0.6860  2.2030
  197DOPC  C31224465   1.224   7.337  14.877 -0.9895  0.0719 -0.0128
  197DOPC  H12X24466   1.231   7.236  14.923 -4.7133 -0.1004  0.5089
  197DOPC  H12Y24467   1.117   7.355  14.903 -0.0968  4.5565  1.4502
  197DOPC  C31324468   1.294   7.449  14.964  0.1618  0.1580  0.1513
  197DOPC  H13X24469   1.397   7.444  14.923  0.5549 -2.0176  1.2922
  197DOPC  H13Y24470   1.251   7.549  14.940  0.3806  0.0182 -0.8392
  197DOPC  C31424471   1.299   7.415  15.114 -0.0466  0.1632  0.5952
  197DOPC  H14X24472   1.347   7.317  15.133 -1.1346 -0.4997  0.0224
  197DOPC  H14Y24473   1.354   7.500  15.159 -1.2302 -0.0393  2.5231
  197DOPC  C31524474   1.167   7.426  15.195  0.0313 -0.7464 -0.0853
  197DOPC  H15X24475   1.088   7.350  15.174 -1.1096 -1.1140  4.4841
  197DOPC  H15Y24476   1.124   7.528  15.185  0.4794 -0.5187  0.2830
  197DOPC  C31624477   1.192   7.423  15.341 -0.3872 -0.3837 -0.0098
  197DOPC  H16X24478   1.268   7.499  15.368 -0.1935 -0.5103 -0.1967
  197DOPC  H16Y24479   1.107   7.470  15.396 -2.1114 -0.5895 -2.3209
  197DOPC  C31724480   1.220   7.285  15.397  0.6622  0.3300  0.2751
  197DOPC  H17X24481   1.167   7.207  15.339  0.4325 -0.4077  1.4495
  197DOPC  H17Y24482   1.329   7.268  15.384  0.2587 -3.0426  0.5556
  197DOPC  C31824483   1.205   7.257  15.545  0.3567  0.4750 -0.7702
  197DOPC  H18X24484   1.102   7.277  15.580  0.8758  1.3349  0.3280
  197DOPC  H18Y24485   1.240   7.152  15.555  2.2015  1.0223 -1.0105
  197DOPC  H18Z24486   1.271   7.310  15.618 -0.8677 -0.4824  1.0907
  198DOPC     N24487   5.642   6.182  12.626  0.2204 -0.5674  0.4476
  198DOPC   C1224488   5.533   6.134  12.729  0.0343  0.5045  0.0908
  198DOPC  H12A24489   5.467   6.069  12.673  2.0667 -1.7469  0.1290
  198DOPC  H12B24490   5.473   6.220  12.757  0.4832  0.7373  0.3469
  198DOPC   C1324491   5.732   6.282  12.694  0.3041  0.0186 -0.0415
  198DOPC  H13A24492   5.817   6.299  12.630 -0.1336 -1.9376 -1.2140
  198DOPC  H13B24493   5.687   6.374  12.728  1.0667  0.6738 -0.7704
  198DOPC  H13C24494   5.770   6.246  12.789  2.2996 -0.3894 -0.9526
  198DOPC   C1424495   5.572   6.259  12.512  0.3244  0.3211 -0.6748
  198DOPC  H14A24496   5.500   6.193  12.466 -3.3561  1.8129  2.4194
  198DOPC  H14B24497   5.518   6.340  12.559  1.5469  0.9648 -0.3558
  198DOPC  H14C24498   5.642   6.292  12.437  1.7920 -1.4691 -0.1555
  198DOPC   C1524499   5.731   6.069  12.575 -0.0484 -1.0299 -0.1325
  198DOPC  H15A24500   5.691   6.008  12.496  1.2421  0.1350 -1.7531
  198DOPC  H15B24501   5.751   6.002  12.657 -2.9400  0.9550  2.4193
  198DOPC  H15C24502   5.815   6.124  12.536 -1.8384  0.9848 -1.3507
  198DOPC   C1124503   5.570   6.056  12.858  0.5005 -0.3527 -0.0025
  198DOPC  H11A24504   5.478   6.009  12.899  1.3122  0.3579  2.8432
  198DOPC  H11B24505   5.644   5.974  12.849 -1.2698 -2.2143  1.5014
  198DOPC     P24506   5.647   6.115  13.105 -0.1002  0.2668  0.0090
  198DOPC   O1324507   5.598   6.226  13.187 -0.1244 -0.3154  0.3981
  198DOPC   O1424508   5.793   6.085  13.113  0.1571 -0.4221  0.1881
  198DOPC   O1224509   5.617   6.151  12.953  0.4441  0.9512 -0.2861
  198DOPC   O1124510   5.568   5.976  13.125 -0.0007 -0.0845 -0.3494
  198DOPC    C124511   5.424   5.977  13.133 -0.1512 -0.0410 -0.4444
  198DOPC    HA24512   5.380   5.920  13.048 -1.6977 -0.5253  0.6442
  198DOPC    HB24513   5.388   6.081  13.119 -1.9779 -0.3723  1.4536
  198DOPC    C224514   5.376   5.939  13.275 -0.0449  0.3519 -0.8145
  198DOPC    HS24515   5.265   5.943  13.282 -0.0524  0.5111 -0.9843
  198DOPC   O2124516   5.437   6.034  13.367  0.2341 -0.5449  0.3859
  198DOPC   C2124517   5.367   6.152  13.379  0.0808 -0.1702 -0.0717
  198DOPC   O2224518   5.262   6.173  13.329  0.2356 -0.5278  0.1002
  198DOPC   C2224519   5.437   6.246  13.475 -1.1489 -0.0846 -0.5927
  198DOPC   H2R24520   5.527   6.285  13.422  0.3116 -1.0885  1.0396
  198DOPC   H2S24521   5.464   6.186  13.565 -1.6372  1.8349  0.9175
  198DOPC    C324522   5.426   5.793  13.307  0.1495 -0.1164 -0.1222
  198DOPC    HX24523   5.537   5.796  13.314  0.1885  0.4422 -0.8643
  198DOPC    HY24524   5.392   5.736  13.218 -2.9991  1.4746 -0.0608
  198DOPC   O3124525   5.369   5.738  13.429 -0.5122  0.4510  0.0433
  198DOPC   C3124526   5.387   5.610  13.434  0.3802  0.4661  0.5564
  198DOPC   O3224527   5.457   5.546  13.351  0.0697 -0.1886 -0.7514
  198DOPC   C3224528   5.296   5.542  13.527  0.0022 -0.0540  0.1498
  198DOPC   H2X24529   5.199   5.545  13.472 -0.5505  0.6687  1.1152
  198DOPC   H2Y24530   5.333   5.438  13.531 -1.0753 -0.5823 -2.2222
  198DOPC   C2324531   5.342   6.360  13.519 -0.0557  0.1355  0.1041
  198DOPC   H3R24532   5.240   6.324  13.545  0.5684 -0.5463  1.7479
  198DOPC   H3S24533   5.337   6.428  13.432  1.3383 -2.7025 -2.3852
  198DOPC   C2424534   5.410   6.449  13.631  0.8578  0.8354  0.5108
  198DOPC   H4R24535   5.345   6.538  13.619 -0.7051 -0.5687 -2.6746
  198DOPC   H4S24536   5.513   6.481  13.604  0.9554 -0.0891 -0.3078
  198DOPC   C2524537   5.393   6.384  13.766  0.2369  0.1153 -0.0775
  198DOPC   H5R24538   5.439   6.284  13.777 -0.8104 -0.1763  2.1408
  198DOPC   H5S24539   5.283   6.390  13.775  0.3181  2.9812 -0.0362
  198DOPC   C2624540   5.454   6.479  13.874  0.4095  0.2509  0.3685
  198DOPC   H6R24541   5.373   6.507  13.944 -1.3078 -0.4162 -1.2697
  198DOPC   H6S24542   5.473   6.576  13.823  0.1915  0.9542  1.5893
  198DOPC   C2724543   5.581   6.422  13.944 -0.7365 -0.4041  0.0890
  198DOPC   H7R24544   5.651   6.383  13.867  1.8511  0.2379  1.9823
  198DOPC   H7S24545   5.543   6.342  14.012  1.0974 -0.1878  1.4191
  198DOPC   C2824546   5.656   6.532  14.024  0.3866  0.6969  0.1663
  198DOPC   H8R24547   5.718   6.592  13.953 -0.7810  1.0401 -0.5949
  198DOPC   H8S24548   5.726   6.492  14.100  0.0528 -2.3192 -0.9777
  198DOPC   C2924549   5.563   6.633  14.083  0.4022 -0.4553  0.3437
  198DOPC   H9R24550   5.536   6.709  14.009  2.7688 -0.0003 -0.1444
  198DOPC  C21024551   5.503   6.634  14.204  0.1295  0.0507  0.3243
  198DOPC  H10R24552   5.434   6.714  14.232 -0.1375 -0.5543  1.4422
  198DOPC  C21124553   5.511   6.531  14.317  0.3315 -0.1862  0.7941
  198DOPC  H11R24554   5.602   6.468  14.316 -1.6496 -3.2939  2.0235
  198DOPC  H11S24555   5.424   6.461  14.314 -0.0927  0.3622 -0.5554
  198DOPC  C21224556   5.504   6.598  14.453  0.1694  0.4070 -0.2886
  198DOPC  H12R24557   5.437   6.686  14.449 -1.8541 -1.0378  0.4889
  198DOPC  H12S24558   5.606   6.629  14.484  0.7494 -1.5799 -0.0571
  198DOPC  C21324559   5.457   6.504  14.564  0.0327 -0.0571  0.4763
  198DOPC  H13R24560   5.524   6.415  14.565  1.5014  0.9837  2.0830
  198DOPC  H13S24561   5.357   6.461  14.548 -0.2642  0.7116  0.2122
  198DOPC  C21424562   5.467   6.568  14.706 -0.1801 -0.1544 -0.3036
  198DOPC  H14R24563   5.428   6.493  14.778 -1.1947 -0.1303 -0.8163
  198DOPC  H14S24564   5.408   6.663  14.709 -0.4316 -0.3026 -0.5446
  198DOPC  C21524565   5.617   6.590  14.753  0.6676 -0.2741  0.3458
  198DOPC  H15R24566   5.657   6.672  14.690  1.4218 -3.6386 -4.0409
  198DOPC  H15S24567   5.671   6.498  14.722 -2.3107 -1.9917 -0.0663
  198DOPC  C21624568   5.626   6.646  14.895  0.6890  0.4516  0.2738
  198DOPC  H16R24569   5.597   6.565  14.965 -1.1811  0.1081 -0.8098
  198DOPC  H16S24570   5.554   6.730  14.900  0.8027  0.4959  1.2393
  198DOPC  C21724571   5.757   6.703  14.934  0.0429  0.2511  0.0240
  198DOPC  H17R24572   5.755   6.792  15.001  2.5026 -1.2437  2.2630
  198DOPC  H17S24573   5.801   6.740  14.838  2.8550 -1.6825  0.4365
  198DOPC  C21824574   5.868   6.608  14.994  0.4388 -0.3866  0.1591
  198DOPC  H18R24575   5.880   6.528  14.917  0.4644  1.4141 -1.8010
  198DOPC  H18S24576   5.843   6.581  15.099  1.9001  0.3740  0.7156
  198DOPC  H18T24577   5.962   6.663  15.013  0.9530 -0.6515 -1.4921
  198DOPC   C3324578   5.274   5.598  13.671  0.0990  0.3374  0.0545
  198DOPC   H3X24579   5.201   5.531  13.721 -1.1605  1.5871 -0.0193
  198DOPC   H3Y24580   5.214   5.692  13.666 -1.8752 -0.7552  1.5985
  198DOPC   C3424581   5.402   5.629  13.751 -0.1250 -0.0652 -0.4617
  198DOPC   H4X24582   5.458   5.720  13.720 -0.2573  0.2289  0.1547
  198DOPC   H4Y24583   5.474   5.546  13.738 -1.6919 -1.7249  0.9701
  198DOPC   C3524584   5.365   5.660  13.895  0.5737  0.1497  0.9202
  198DOPC   H5X24585   5.317   5.568  13.935 -0.3770  0.3153  0.1832
  198DOPC   H5Y24586   5.291   5.742  13.901  0.8625  0.5572 -0.7148
  198DOPC   C3624587   5.487   5.691  13.980 -0.1352 -0.1325 -0.8902
  198DOPC   H6X24588   5.555   5.604  13.971  1.8878  1.5602 -4.2201
  198DOPC   H6Y24589   5.560   5.764  13.938 -1.9166  1.0817 -2.0285
  198DOPC   C3724590   5.462   5.720  14.128  0.6654  0.1835 -0.9197
  198DOPC   H7X24591   5.553   5.745  14.186 -0.4015  0.2644  0.7957
  198DOPC   H7Y24592   5.412   5.819  14.138  0.5506  0.0491 -0.1049
  198DOPC   C3824593   5.384   5.612  14.207 -0.2779  0.2760 -0.1786
  198DOPC   H8X24594   5.416   5.509  14.183 -0.0010  0.6904 -1.7203
  198DOPC   H8Y24595   5.280   5.610  14.166 -0.7371 -0.5069  0.9850
  198DOPC   C3924596   5.377   5.626  14.358  0.3521 -0.3858 -0.4950
  198DOPC   H9X24597   5.456   5.572  14.412 -1.0484 -1.8415  0.1902
  198DOPC  C31024598   5.275   5.675  14.431  0.2027 -0.2041  0.8729
  198DOPC  H10X24599   5.289   5.684  14.539  0.6651  1.9784  0.6697
  198DOPC  C31124600   5.146   5.725  14.369  0.2406  0.7336  1.0100
  198DOPC  H11X24601   5.152   5.720  14.258 -3.0609  2.8565  0.6026
  198DOPC  H11Y24602   5.119   5.827  14.401  0.4031  0.2124  2.9049
  198DOPC  C31224603   5.007   5.659  14.405  0.1393 -0.2383 -0.1856
  198DOPC  H12X24604   5.010   5.616  14.508 -0.8461 -2.2099 -0.9262
  198DOPC  H12Y24605   4.988   5.570  14.342 -0.0589 -0.1365 -0.2711
  198DOPC  C31324606   4.888   5.753  14.392  0.3121 -0.0117 -0.5684
  198DOPC  H13X24607   4.911   5.857  14.422  1.3880  0.5244 -2.9930
  198DOPC  H13Y24608   4.851   5.749  14.288  0.4304  1.2093 -0.6631
  198DOPC  C31424609   4.773   5.704  14.483 -0.0708  0.3536  0.4325
  198DOPC  H14X24610   4.765   5.594  14.466 -0.4512  0.5809 -1.0411
  198DOPC  H14Y24611   4.808   5.725  14.586  2.1052 -1.4854  0.1651
  198DOPC  C31524612   4.640   5.776  14.462 -0.4737 -0.0805  0.0763
  198DOPC  H15X24613   4.611   5.777  14.355 -0.1271 -2.4060 -0.1025
  198DOPC  H15Y24614   4.657   5.881  14.493 -2.0184 -0.4944  2.7051
  198DOPC  C31624615   4.533   5.717  14.554  0.9439 -0.2143  0.6872
  198DOPC  H16X24616   4.445   5.785  14.543  0.4336 -1.1498 -1.6342
  198DOPC  H16Y24617   4.488   5.620  14.525 -1.8434 -0.0517  3.8549
  198DOPC  C31724618   4.561   5.691  14.699  0.0151  0.0546 -0.3584
  198DOPC  H17X24619   4.475   5.639  14.746  1.0047  1.6647  3.6444
  198DOPC  H17Y24620   4.647   5.621  14.702 -0.4400 -0.4900  0.0963
  198DOPC  C31824621   4.588   5.818  14.783 -0.4478  0.0870 -0.5433
  198DOPC  H18X24622   4.612   5.777  14.883 -1.1325 -2.9162 -1.5100
  198DOPC  H18Y24623   4.675   5.874  14.742  0.9205 -0.7941  1.0202
  198DOPC  H18Z24624   4.503   5.889  14.795  1.9279  3.1968 -0.7572
  199DOPC     N24625   5.431   0.292  12.861  0.1088 -0.2284 -0.3101
  199DOPC   C1224626   5.422   0.305  13.013 -0.3654 -0.0559  0.0952
  199DOPC  H12A24627   5.490   0.236  13.061  0.0998  1.1303  1.1966
  199DOPC  H12B24628   5.329   0.258  13.040  1.5257 -4.9693 -0.9389
  199DOPC   C1324629   5.376   0.162  12.819  0.2651 -0.6501  0.0636
  199DOPC  H13A24630   5.416   0.081  12.878  1.6419 -0.1531 -0.1313
  199DOPC  H13B24631   5.270   0.161  12.839  0.6262  0.0214  2.4048
  199DOPC  H13C24632   5.399   0.138  12.716 -0.2163 -1.0273  0.0438
  199DOPC   C1424633   5.573   0.306  12.815 -0.2359  0.6740 -0.1683
  199DOPC  H14A24634   5.618   0.383  12.876 -2.7056  1.6470  0.5537
  199DOPC  H14B24635   5.631   0.216  12.830  2.2689  2.3911  1.0944
  199DOPC  H14C24636   5.579   0.344  12.714  2.6462 -0.9107 -0.7055
  199DOPC   C1524637   5.341   0.395  12.800 -0.1302  0.3702  0.5774
  199DOPC  H15A24638   5.339   0.391  12.692  0.2321  1.0725  0.5420
  199DOPC  H15B24639   5.360   0.496  12.832 -0.4446 -0.2053  2.7025
  199DOPC  H15C24640   5.242   0.365  12.831  0.7178 -3.2049  0.3020
  199DOPC   C1124641   5.434   0.444  13.088 -0.1998  0.4575 -0.6185
  199DOPC  H11A24642   5.447   0.440  13.198 -2.3611  2.9993 -0.1722
  199DOPC  H11B24643   5.530   0.483  13.047  0.2001 -0.6589 -0.7765
  199DOPC     P24644   5.185   0.489  13.139  0.1001 -0.2861 -0.3795
  199DOPC   O1324645   5.105   0.402  13.052 -0.1236 -0.2192  0.5212
  199DOPC   O1424646   5.113   0.602  13.199 -0.0615  0.2161 -0.1522
  199DOPC   O1224647   5.320   0.534  13.064  0.2988  0.7355  0.2919
  199DOPC   O1124648   5.242   0.392  13.253  0.0599  0.2116  0.4725
  199DOPC    C124649   5.235   0.426  13.393  0.9984  0.1593  0.1031
  199DOPC    HA24650   5.130   0.449  13.423  1.3830  0.2899  1.4174
  199DOPC    HB24651   5.304   0.511  13.415  0.1150  0.8116  0.4483
  199DOPC    C224652   5.285   0.304  13.478  0.0430 -0.2349  0.4077
  199DOPC    HS24653   5.208   0.226  13.488  0.3994 -0.5796  0.4983
  199DOPC   O2124654   5.335   0.343  13.612 -0.1892 -0.3872  0.5549
  199DOPC   C2124655   5.236   0.359  13.698  0.3244  0.2320 -0.5313
  199DOPC   O2224656   5.122   0.336  13.667  0.1759 -0.1054 -0.1550
  199DOPC   C2224657   5.287   0.408  13.834 -0.4871  0.2935 -0.7759
  199DOPC   H2R24658   5.292   0.518  13.844  1.7590  0.0345  2.0283
  199DOPC   H2S24659   5.386   0.359  13.845  1.0721  3.5295  0.9071
  199DOPC    C324660   5.410   0.243  13.410 -0.1308 -0.0734 -0.5080
  199DOPC    HX24661   5.480   0.326  13.390 -0.0059  0.6676  2.4401
  199DOPC    HY24662   5.383   0.190  13.316  0.2101 -0.5488 -0.3454
  199DOPC   O3124663   5.480   0.156  13.496 -0.4486 -0.3774 -0.0832
  199DOPC   C3124664   5.602   0.131  13.466 -0.5102  0.5987  0.0222
  199DOPC   O3224665   5.661   0.181  13.372  0.2981  0.4587  0.0842
  199DOPC   C3224666   5.667   0.032  13.558 -0.7687 -0.2783  0.3967
  199DOPC   H2X24667   5.598  -0.056  13.560 -2.3132  0.7806 -1.4786
  199DOPC   H2Y24668   5.770   0.010  13.525 -0.0141  0.3728  2.2205
  199DOPC   C2324669   5.212   0.351  13.960 -0.2220 -0.4044  0.7195
  199DOPC   H3R24670   5.263   0.393  14.048 -0.0562  2.5613 -0.6567
  199DOPC   H3S24671   5.223   0.241  13.968 -2.1487 -0.6872  0.1905
  199DOPC   C2424672   5.065   0.395  13.970 -0.2081  0.4268  0.2813
  199DOPC   H4R24673   5.010   0.330  13.899  1.9787 -1.0156 -0.1699
  199DOPC   H4S24674   5.057   0.503  13.944  0.4096  0.1045 -1.3784
  199DOPC   C2524675   5.005   0.389  14.114  0.8665 -0.0449  0.2329
  199DOPC   H5R24676   5.036   0.295  14.163  1.8104  0.1438  0.0261
  199DOPC   H5S24677   4.895   0.396  14.102  0.6394 -0.1145  2.0922
  199DOPC   C2624678   5.042   0.508  14.201  0.1094  0.5388  0.6241
  199DOPC   H6R24679   4.993   0.599  14.161  0.1048 -0.6942 -2.4068
  199DOPC   H6S24680   5.151   0.525  14.215 -0.1147  0.8018  2.3485
  199DOPC   C2724681   5.005   0.479  14.350  0.2964  0.3104  0.9533
  199DOPC   H7R24682   5.051   0.380  14.375 -0.4026 -0.5407 -0.9502
  199DOPC   H7S24683   4.899   0.448  14.344  0.5324 -0.2601 -1.0041
  199DOPC   C2824684   5.036   0.588  14.453 -0.3146  0.5940  1.0667
  199DOPC   H8R24685   5.142   0.620  14.448 -0.7408  2.1194 -3.9693
  199DOPC   H8S24686   5.010   0.544  14.551 -0.2953 -1.0241  0.3736
  199DOPC   C2924687   4.974   0.721  14.421  0.7773  0.0538  0.2388
  199DOPC   H9R24688   4.985   0.755  14.317 -0.7154 -1.0878 -0.3276
  199DOPC  C21024689   4.884   0.789  14.490 -0.0991 -0.1426 -1.2135
  199DOPC  H10R24690   4.848   0.885  14.451 -0.6707  1.1469  2.1844
  199DOPC  C21124691   4.823   0.744  14.624  0.3299  0.0523 -0.1866
  199DOPC  H11R24692   4.851   0.639  14.647  0.5710 -0.4463 -2.5245
  199DOPC  H11S24693   4.714   0.740  14.606 -0.0665 -0.6070  1.9789
  199DOPC  C21224694   4.850   0.841  14.738 -0.5496 -0.1936 -0.3716
  199DOPC  H12R24695   4.959   0.847  14.760 -0.6453  0.0572  0.0404
  199DOPC  H12S24696   4.798   0.795  14.824  2.0656 -0.2786  1.2792
  199DOPC  C21324697   4.788   0.979  14.726 -0.3952  0.0132 -0.0247
  199DOPC  H13R24698   4.689   0.969  14.676 -0.4973  0.8141  0.0083
  199DOPC  H13S24699   4.854   1.038  14.659  0.6066 -1.2039 -0.1458
  199DOPC  C21424700   4.772   1.052  14.867  0.2678 -0.2059 -0.0971
  199DOPC  H14R24701   4.680   1.013  14.916 -0.7770  0.6460 -1.3230
  199DOPC  H14S24702   4.757   1.161  14.855 -1.1913 -0.5364 -1.6947
  199DOPC  C21524703   4.886   1.019  14.956  0.6710 -0.1880  0.0301
  199DOPC  H15R24704   4.985   1.045  14.913  1.3916 -1.9600  0.5146
  199DOPC  H15S24705   4.891   0.910  14.976 -0.9112 -0.2356  0.3322
  199DOPC  C21624706   4.851   1.084  15.097  0.2940 -0.1743 -0.0143
  199DOPC  H16R24707   4.742   1.075  15.112  0.2623  1.5014  1.1049
  199DOPC  H16S24708   4.860   1.195  15.092 -0.0304 -0.2067 -3.1993
  199DOPC  C21724709   4.918   1.014  15.212 -0.1560 -0.1051 -0.7902
  199DOPC  H17R24710   5.028   1.027  15.218 -0.0765 -0.8886 -0.4515
  199DOPC  H17S24711   4.898   0.905  15.214 -0.5497 -0.0631 -2.0874
  199DOPC  C21824712   4.863   1.063  15.351 -0.0423 -0.0986  1.0512
  199DOPC  H18R24713   4.931   1.048  15.438  0.5477 -1.7887  0.3437
  199DOPC  H18S24714   4.757   1.036  15.369  0.6715 -2.2641  2.3651
  199DOPC  H18T24715   4.859   1.173  15.336 -0.8615 -0.3254 -0.5895
  199DOPC   C3324716   5.681   0.086  13.702 -0.0575 -1.0791 -0.1163
  199DOPC   H3X24717   5.578   0.086  13.745 -0.5911 -0.5622 -1.3433
  199DOPC   H3Y24718   5.717   0.191  13.698  0.7055 -1.3751 -1.3079
  199DOPC   C3424719   5.759   0.002  13.802  0.4956  0.4164 -0.5453
  199DOPC   H4X24720   5.864   0.009  13.768  0.8352 -1.4739 -0.0509
  199DOPC   H4Y24721   5.727  -0.105  13.794 -0.4767  0.5723  0.8200
  199DOPC   C3524722   5.762   0.048  13.951  0.2701 -0.3745  0.7977
  199DOPC   H5X24723   5.791   0.155  13.943 -2.1191  0.2576 -0.2123
  199DOPC   H5Y24724   5.846  -0.008  13.999  1.0400  1.1963  1.3555
  199DOPC   C3624725   5.631   0.027  14.033 -0.1411 -0.1284  0.0191
  199DOPC   H6X24726   5.546   0.078  13.982  1.5154  1.7869 -0.9946
  199DOPC   H6Y24727   5.617  -0.083  14.042  0.8011 -0.2128  0.5851
  199DOPC   C3724728   5.654   0.084  14.173  0.5658 -0.2953  0.6654
  199DOPC   H7X24729   5.746   0.046  14.222 -0.1242 -0.5303  1.8242
  199DOPC   H7Y24730   5.676   0.192  14.157  1.4341 -0.5690 -0.0064
  199DOPC   C3824731   5.540   0.048  14.276  0.5789 -0.2772  0.3200
  199DOPC   H8X24732   5.577   0.070  14.379  1.0203 -1.6426  0.4743
  199DOPC   H8Y24733   5.526  -0.061  14.265 -3.9161  0.3507 -2.6503
  199DOPC   C3924734   5.413   0.119  14.232  0.9452  0.1233 -0.5118
  199DOPC   H9X24735   5.348   0.067  14.159 -0.2541  0.4882  0.2609
  199DOPC  C31024736   5.384   0.238  14.289 -0.5516 -0.0065 -0.0930
  199DOPC  H10X24737   5.290   0.289  14.263 -0.1596  0.7464 -0.0831
  199DOPC  C31124738   5.471   0.301  14.389  0.1282 -0.2842 -0.1557
  199DOPC  H11X24739   5.568   0.334  14.347 -0.6305 -0.3398 -2.0141
  199DOPC  H11Y24740   5.489   0.235  14.477 -1.6405  0.3105  0.7006
  199DOPC  C31224741   5.403   0.434  14.434  0.2563  0.0828  0.0885
  199DOPC  H12X24742   5.326   0.425  14.514 -0.3215  0.9643 -0.3547
  199DOPC  H12Y24743   5.341   0.478  14.353  0.4534 -1.1481 -0.7627
  199DOPC  C31324744   5.501   0.541  14.483 -0.3697  0.8373 -0.7664
  199DOPC  H13X24745   5.569   0.490  14.554 -1.4736 -0.7609 -0.8185
  199DOPC  H13Y24746   5.561   0.563  14.392  0.3523  1.2460 -0.2131
  199DOPC  C31424747   5.431   0.666  14.535  0.5051  0.1833 -0.5236
  199DOPC  H14X24748   5.513   0.736  14.562  0.7549 -0.0104 -0.7713
  199DOPC  H14Y24749   5.371   0.717  14.456  0.7615 -0.4266 -1.1279
  199DOPC  C31524750   5.345   0.655  14.663 -0.7976 -0.6659 -0.0388
  199DOPC  H15X24751   5.405   0.606  14.743 -0.6143 -0.1969  0.1106
  199DOPC  H15Y24752   5.257   0.588  14.650 -0.6614 -0.7996 -0.2676
  199DOPC  C31624753   5.316   0.796  14.721  0.2719  0.3077 -0.1318
  199DOPC  H16X24754   5.409   0.853  14.739  0.2357  0.4553 -0.4051
  199DOPC  H16Y24755   5.258   0.854  14.646 -0.9067 -0.9937 -0.2782
  199DOPC  C31724756   5.235   0.792  14.855  0.3470 -0.4050  0.0091
  199DOPC  H17X24757   5.306   0.804  14.940 -1.0964  1.0199  1.0503
  199DOPC  H17Y24758   5.178   0.887  14.851  1.1055  0.0197 -2.5999
  199DOPC  C31824759   5.148   0.665  14.872  0.0761 -0.4801 -1.0271
  199DOPC  H18X24760   5.093   0.651  14.776 -2.3639 -0.6680  0.3089
  199DOPC  H18Y24761   5.200   0.569  14.889 -1.7812 -1.7639 -2.3011
  199DOPC  H18Z24762   5.070   0.688  14.948 -0.2869  0.0659 -1.5519
  200DOPC     N24763   0.133   6.965  13.145 -0.4451 -0.3417 -0.3348
  200DOPC   C1224764   0.107   7.119  13.133 -0.0152 -0.3619 -0.5704
  200DOPC  H12A24765   0.079   7.152  13.034 -0.8405 -0.8219 -0.4949
  200DOPC  H12B24766   0.199   7.171  13.156  0.3779 -1.2834 -0.0068
  200DOPC   C1324767   0.119   6.931  13.291  0.4262  0.2384  0.4444
  200DOPC  H13A24768   0.118   6.824  13.305 -0.0510  0.2446  0.4742
  200DOPC  H13B24769   0.198   6.968  13.355 -0.3243  0.6649  1.1363
  200DOPC  H13C24770   0.027   6.974  13.329  0.0701  0.3903 -0.5618
  200DOPC   C1424771   0.273   6.938  13.102  0.4493 -0.2433 -0.9421
  200DOPC  H14A24772   0.286   6.958  12.997  0.9774  1.4298 -0.5821
  200DOPC  H14B24773   0.336   7.009  13.154 -5.0534  3.4464  1.6494
  200DOPC  H14C24774   0.299   6.839  13.137 -0.9241  0.2947  1.9316
  200DOPC   C1524775   0.023   6.896  13.073  0.1424 -0.6910 -0.9133
  200DOPC  H15A24776  -0.002   6.933  12.974  1.3572 -0.2160 -1.0642
  200DOPC  H15B24777  -0.064   6.925  13.130  0.1758  1.6589 -1.9228
  200DOPC  H15C24778   0.033   6.790  13.087  1.5839 -0.7954 -2.5047
  200DOPC   C1124779  -0.005   7.191  13.224  0.2912  0.1856  0.3502
  200DOPC  H11A24780   0.025   7.186  13.330 -0.2485 -0.9124  0.4618
  200DOPC  H11B24781  -0.015   7.299  13.199  0.9693  0.6023  1.8094
  200DOPC     P24782  -0.261   7.188  13.164 -0.0743  0.1977  0.0357
  200DOPC   O1324783  -0.368   7.090  13.142 -0.2108  0.6322 -0.0730
  200DOPC   O1424784  -0.240   7.290  13.057  0.7980  0.4172  0.1822
  200DOPC   O1224785  -0.120   7.118  13.195 -0.2833 -0.2764 -0.7190
  200DOPC   O1124786  -0.297   7.269  13.303 -0.0160 -0.5662  0.0316
  200DOPC    C124787  -0.305   7.212  13.430  0.3828 -0.0698 -0.6635
  200DOPC    HA24788  -0.278   7.105  13.440  1.9362  0.1586 -1.8620
  200DOPC    HB24789  -0.412   7.227  13.456  0.0717 -2.2783 -0.5306
  200DOPC    C224790  -0.220   7.279  13.547  0.9554 -0.3040  1.1768
  200DOPC    HS24791  -0.113   7.254  13.527  0.5357 -1.9667  0.8174
  200DOPC   O2124792  -0.266   7.239  13.672  0.3527  0.2100 -0.4267
  200DOPC   C2124793  -0.198   7.140  13.727  0.3094 -1.4319  0.0200
  200DOPC   O2224794  -0.115   7.075  13.668 -0.3735 -0.1252  0.0966
  200DOPC   C2224795  -0.240   7.128  13.870  0.2808  0.7488 -0.0370
  200DOPC   H2R24796  -0.351   7.125  13.867  0.3250 -1.6792 -0.8051
  200DOPC   H2S24797  -0.199   7.205  13.939 -1.3890 -0.1485  2.1100
  200DOPC    C324798  -0.232   7.430  13.527  0.0554  0.2317 -0.6162
  200DOPC    HX24799  -0.341   7.449  13.532 -0.3034 -1.8227  0.0823
  200DOPC    HY24800  -0.194   7.457  13.426  2.6452  2.2868  0.7548
  200DOPC   O3124801  -0.181   7.509  13.638  0.2127  0.4770 -0.5034
  200DOPC   C3124802  -0.055   7.551  13.631 -0.0526  0.3099  1.0497
  200DOPC   O3224803   0.025   7.536  13.540 -0.1328  0.1409  0.4423
  200DOPC   C3224804  -0.034   7.622  13.763  0.0216 -0.0289  0.3108
  200DOPC   H2X24805   0.062   7.677  13.764 -0.3012  0.5419  0.7200
  200DOPC   H2Y24806  -0.114   7.700  13.765 -0.1818 -0.0772 -2.2058
  200DOPC   C2324807  -0.204   6.988  13.936 -0.3588 -0.0720  0.3199
  200DOPC   H3R24808  -0.102   6.956  13.906 -0.7030 -0.1118 -0.8707
  200DOPC   H3S24809  -0.273   6.905  13.909  0.6928 -1.6254  2.1619
  200DOPC   C2424810  -0.204   7.000  14.091 -0.0061 -0.0097 -0.7904
  200DOPC   H4R24811  -0.303   7.048  14.107 -0.3048 -1.2092  1.2495
  200DOPC   H4S24812  -0.116   7.058  14.127  0.9837 -2.1482  0.4417
  200DOPC   C2524813  -0.205   6.859  14.157  0.3005  0.6329  0.0967
  200DOPC   H5R24814  -0.280   6.792  14.111  1.0893 -0.0034 -0.2921
  200DOPC   H5S24815  -0.237   6.868  14.263 -0.0069  0.7464 -0.0040
  200DOPC   C2624816  -0.067   6.794  14.155  0.1246 -0.1460  0.0726
  200DOPC   H6R24817   0.003   6.876  14.130  0.9225 -0.9175 -0.2529
  200DOPC   H6S24818  -0.067   6.726  14.068 -1.2294 -3.1925  2.2947
  200DOPC   C2724819  -0.025   6.728  14.283 -0.3582  0.1553  0.0515
  200DOPC   H7R24820  -0.107   6.658  14.312  0.2218  0.0721  1.6045
  200DOPC   H7S24821  -0.030   6.801  14.367 -3.3051 -0.3319  0.3941
  200DOPC   C2824822   0.111   6.659  14.267 -0.2894  0.0188 -0.1119
  200DOPC   H8R24823   0.164   6.742  14.217 -3.1907  1.5501 -0.9028
  200DOPC   H8S24824   0.094   6.581  14.189 -2.3072 -0.9583  1.1864
  200DOPC   C2924825   0.170   6.599  14.395 -0.0785  0.2421 -0.0095
  200DOPC   H9R24826   0.128   6.502  14.426  1.7343 -0.4030  0.5727
  200DOPC  C21024827   0.282   6.653  14.455 -0.0856 -0.7689 -0.1038
  200DOPC  H10R24828   0.314   6.603  14.548 -0.0782 -2.2296 -0.8666
  200DOPC  C21124829   0.362   6.773  14.412  0.1739 -0.8591  0.1051
  200DOPC  H11R24830   0.365   6.837  14.502 -0.6489  1.5040 -1.4616
  200DOPC  H11S24831   0.306   6.834  14.338 -0.3727 -0.6164  0.7177
  200DOPC  C21224832   0.493   6.731  14.348  0.2530  0.0424  0.4263
  200DOPC  H12R24833   0.545   6.660  14.417 -0.0164  1.3438  2.0229
  200DOPC  H12S24834   0.551   6.824  14.329 -2.4780  1.2363 -3.1896
  200DOPC  C21324835   0.466   6.669  14.208 -0.0025  0.2341  0.0837
  200DOPC  H13R24836   0.379   6.717  14.158 -1.1029  1.4994  2.9835
  200DOPC  H13S24837   0.431   6.564  14.220 -0.4722  0.1845 -1.5046
  200DOPC  C21424838   0.580   6.667  14.108  0.2418 -0.4307  0.0547
  200DOPC  H14R24839   0.664   6.605  14.146  1.2635  0.7219 -0.2336
  200DOPC  H14S24840   0.613   6.773  14.094 -1.4774 -0.1708 -2.9260
  200DOPC  C21524841   0.527   6.612  13.976 -0.0115  0.5056 -0.2853
  200DOPC  H15R24842   0.446   6.679  13.940 -2.7603 -0.3704  3.5618
  200DOPC  H15S24843   0.480   6.513  13.996 -2.1481  1.6949  1.0298
  200DOPC  C21624844   0.633   6.600  13.854 -0.3714  0.1212 -0.4975
  200DOPC  H16R24845   0.698   6.689  13.869 -2.4253  2.2829 -3.1813
  200DOPC  H16S24846   0.584   6.596  13.754 -0.1232  0.0220 -0.6155
  200DOPC  C21724847   0.719   6.465  13.872 -0.4286 -0.4473 -0.3802
  200DOPC  H17R24848   0.726   6.445  13.981 -2.2445 -1.8260 -0.4630
  200DOPC  H17S24849   0.820   6.481  13.829 -1.1256 -0.0250 -1.9688
  200DOPC  C21824850   0.653   6.343  13.800  0.9539 -0.4276 -0.0362
  200DOPC  H18R24851   0.656   6.342  13.689 -1.1186  2.7595 -0.2299
  200DOPC  H18S24852   0.550   6.336  13.840  1.8942  0.8660  2.9145
  200DOPC  H18T24853   0.695   6.245  13.833 -0.0475 -1.2064 -0.9870
  200DOPC   C3324854  -0.031   7.519  13.875 -0.6506  0.4211 -0.3159
  200DOPC   H3X24855   0.038   7.437  13.845 -1.1632  0.1090 -0.6410
  200DOPC   H3Y24856  -0.122   7.461  13.900  1.1288 -1.5979  2.1272
  200DOPC   C3424857   0.025   7.576  14.012 -0.5454 -1.7610 -0.1028
  200DOPC   H4X24858   0.122   7.622  13.982 -0.5535 -1.6695  0.0113
  200DOPC   H4Y24859   0.055   7.497  14.084  2.7614 -2.8735 -2.4544
  200DOPC   C3524860  -0.071   7.685  14.064 -0.5976  0.1792  0.0480
  200DOPC   H5X24861  -0.176   7.651  14.080 -0.5664  0.5083  1.0514
  200DOPC   H5Y24862  -0.086   7.752  13.977 -1.1812 -0.2720 -0.2091
  200DOPC   C3624863  -0.029   7.759  14.192 -0.1163 -0.3494 -0.1453
  200DOPC   H6X24864   0.076   7.795  14.187 -0.4227  0.6012  0.1321
  200DOPC   H6Y24865  -0.088   7.853  14.197  0.3931  0.1633 -2.5191
  200DOPC   C3724866  -0.026   7.678  14.323  0.0946 -0.2199 -0.5762
  200DOPC   H7X24867  -0.127   7.634  14.338 -0.4839  0.0046 -3.2439
  200DOPC   H7Y24868   0.044   7.594  14.309 -0.7184 -0.7411 -1.7243
  200DOPC   C3824869   0.016   7.766  14.441  0.0965 -0.2363 -0.5673
  200DOPC   H8X24870  -0.033   7.866  14.444  1.9928  0.6936  1.0918
  200DOPC   H8Y24871   0.122   7.797  14.434  0.6621 -1.1295  2.7109
  200DOPC   C3924872  -0.008   7.693  14.571 -0.6667 -0.2036 -0.4016
  200DOPC   H9X24873  -0.114   7.662  14.573 -1.0627  0.5725 -3.5522
  200DOPC  C31024874   0.082   7.671  14.669  0.1181 -0.0440 -0.1582
  200DOPC  H10X24875   0.044   7.624  14.761  0.9031  1.3333  0.9118
  200DOPC  C31124876   0.223   7.712  14.678 -0.6519  0.1561  0.5316
  200DOPC  H11X24877   0.242   7.759  14.777  1.0733 -0.1504  0.3651
  200DOPC  H11Y24878   0.251   7.788  14.603  0.9909  0.0843  1.0477
  200DOPC  C31224879   0.314   7.588  14.674  0.0958 -0.0717  0.1647
  200DOPC  H12X24880   0.328   7.540  14.575  3.1350  0.5379  0.1831
  200DOPC  H12Y24881   0.279   7.518  14.753  0.3480 -0.8719 -0.4261
  200DOPC  C31324882   0.454   7.629  14.722  0.1796  0.3118  0.2879
  200DOPC  H13X24883   0.493   7.704  14.649 -1.5554  0.0116 -1.0306
  200DOPC  H13Y24884   0.451   7.681  14.820 -3.1578  2.2930 -0.6747
  200DOPC  C31424885   0.548   7.508  14.724 -0.6768  0.0894  0.1396
  200DOPC  H14X24886   0.505   7.428  14.788  1.6981  0.0612  1.8453
  200DOPC  H14Y24887   0.561   7.470  14.620 -2.3195  1.2097 -0.5103
  200DOPC  C31524888   0.693   7.553  14.757  0.3451  0.4703 -0.0748
  200DOPC  H15X24889   0.669   7.616  14.846 -2.4560  1.1938 -1.2401
  200DOPC  H15Y24890   0.737   7.612  14.674 -0.1531  0.0422 -0.6473
  200DOPC  C31624891   0.786   7.439  14.794 -0.6057  0.0450  0.3722
  200DOPC  H16X24892   0.812   7.394  14.696 -0.5871 -0.1746  0.4766
  200DOPC  H16Y24893   0.874   7.491  14.837  0.8070 -0.4417 -1.7690
  200DOPC  C31724894   0.742   7.349  14.911  0.0594  0.3282 -0.9280
  200DOPC  H17X24895   0.640   7.311  14.893  0.4863 -0.0556 -2.6549
  200DOPC  H17Y24896   0.811   7.262  14.908 -0.3151 -0.1728  1.9389
  200DOPC  C31824897   0.744   7.412  15.052 -0.3303  0.2703 -0.2817
  200DOPC  H18X24898   0.709   7.339  15.129 -0.5372  1.8884  1.2174
  200DOPC  H18Y24899   0.834   7.472  15.075 -0.2824 -0.1144  0.6105
  200DOPC  H18Z24900   0.670   7.494  15.060  0.0687  0.5273  1.1012
  201SOD    SOD24901   5.074   0.734  19.528 -0.0726  0.0733  0.2048
  202SOD    SOD24902   1.924   5.587  11.505  0.2312 -0.0389  0.4552
  203SOD    SOD24903   7.243   2.498  19.269 -0.0696 -0.1286 -0.1546
  204SOD    SOD24904   6.303   4.792  12.729  0.6370  0.5031 -0.1342
  205SOD    SOD24905   2.124   4.021  17.195 -0.6124 -0.0626 -0.4418
  206SOD    SOD24906   6.497   5.917  12.455  0.5466  0.9762 -0.7213
  207SOD    SOD24907   0.007   0.836  11.804  0.0846  0.1887  0.2267
  208SOD    SOD24908   3.232   1.613  17.512  0.2082  0.3699 -0.6198
  209SOD    SOD24909   5.226   5.212  11.723 -0.1912  0.1252  0.4064
  210SOD    SOD24910   3.250   4.709  17.896  0.0929 -0.2419 -0.0310
  211SOD    SOD24911   4.852   3.836  18.051  0.2440  0.6031 -0.3453
  212SOD    SOD24912   5.677   1.212  17.478  0.1496 -0.1449  0.5688
  213SOD    SOD24913   1.129   1.198  11.334 -0.3118 -0.0876 -0.1670
  214SOD    SOD24914   6.308   4.045  18.673  0.0286 -0.0036  0.3002
  215SOD    SOD24915   0.358   4.783  18.216  0.1342  0.4119 -0.5537
  216SOD    SOD24916   7.295   5.934  17.570 -0.4783 -0.2084  0.1865
  217SOD    SOD24917   0.766   2.781  10.851  0.0242  0.1566 -0.4631
  218SOD    SOD24918   7.665   7.604  17.286 -0.2587 -0.1716  0.1218
  219SOD    SOD24919   4.374   6.285  18.189 -0.2377 -0.0493 -0.4428
  220SOD    SOD24920   6.276   0.213  12.443  0.4043  0.2361 -0.0248
  221SOD    SOD24921   5.732   2.019  11.287 -0.0513 -0.1589 -0.5656
  222SOD    SOD24922   1.980   2.602  17.687  0.1883 -0.0042  0.1259
  223SOD    SOD24923   1.237   7.590  10.846 -0.4307 -0.0861 -0.0107
  224SOD    SOD24924   2.345   5.951  12.068 -0.0433  0.6860 -0.4284
  225SOD    SOD24925   1.817   6.235  11.508  0.2878  0.3677  0.0235
  226SOD    SOD24926   0.220   1.812  18.087 -0.0236 -0.0240 -0.1968
  227CLA    CLA24927   2.543   3.860  10.782  0.2954  0.2110  0.0562
  228CLA    CLA24928   4.709   7.424  12.146  0.2050  0.3380 -0.2335
  229CLA    CLA24929   7.024   4.473  11.508  0.3313  0.1940 -0.6022
  230CLA    CLA24930   0.077   7.351  18.750  0.7421  0.0862  0.1472
  231CLA    CLA24931   1.148   7.234  17.411 -0.0122 -0.3308 -0.2022
  232CLA    CLA24932   3.666   0.930  19.133 -0.5226 -0.5675  0.0475
  233CLA    CLA24933   7.670   3.981  17.847 -0.1143 -0.0498 -0.0143
  234CLA    CLA24934   0.408   5.895  18.278 -0.2873 -0.0199  0.6120
  235CLA    CLA24935   1.793   1.931  11.614  0.2287  0.1423  0.3169
  236CLA    CLA24936   0.885   1.529  18.161 -0.1232 -0.3209  0.2522
  237CLA    CLA24937   6.852   2.075  18.923  0.3857  0.3087 -0.3993
  238CLA    CLA24938   7.168   1.336  11.435 -0.1258  0.1753 -0.5322
  239CLA    CLA24939   6.130   3.063  11.030 -0.3191  0.1531 -0.8070
  240CLA    CLA24940   5.131   5.957  18.771 -0.1269 -0.3253  0.3457
  241CLA    CLA24941   0.866   4.301  12.503  0.0691  0.4611 -0.0071
  242CLA    CLA24942   3.809   4.207  18.137  0.1489 -0.1773  0.4194
  243CLA    CLA24943   1.586   7.239  10.800 -0.0901  0.0474 -0.0388
  244CLA    CLA24944   6.394   6.529  12.438  0.2321  0.0354 -0.1248
  245CLA    CLA24945   0.842   3.607  12.771  0.0742  0.5006 -0.0920
  246CLA    CLA24946   2.967   2.920  19.234  0.0451  0.0704 -0.4046
  247CLA    CLA24947   6.942   2.802  11.981  0.2003  0.4195 -0.1533
  248CLA    CLA24948   2.022   5.143  11.306  0.1600  0.3412  0.5738
  249CLA    CLA24949   6.563   1.818  11.428  0.4999 -0.0142 -0.2358
  250CLA    CLA24950   1.954   6.067  17.867 -0.1463 -0.2024 -0.0737
  251CLA    CLA24951   5.309   4.271  19.281 -0.1409  0.2607  0.1224
  252CLA    CLA24952   4.223   5.509  12.110 -0.2072 -0.0418 -0.2929
  253TIP3   OH224953   2.666   5.274  17.531 -0.4365 -0.0139  0.4255
  253TIP3    H124954   2.642   5.276  17.439  0.6896 -3.2551 -0.0507
  253TIP3    H224955   2.746   5.221  17.534  1.3616  2.4982  2.9573
  254TIP3   OH224956   6.193   7.354  18.581  0.0735 -0.3586 -0.3648
  254TIP3    H124957   6.166   7.299  18.507 -0.2666 -1.2989  0.4348
  254TIP3    H224958   6.221   7.292  18.648  0.9073  0.4983  0.1011
  255TIP3   OH224959   0.327   1.669  17.936  0.6251  0.3069 -0.5071
  255TIP3    H124960   0.324   1.702  17.846  0.5975 -0.2353 -0.7046
  255TIP3    H224961   0.415   1.633  17.946  0.1145 -1.1031 -0.8518
  256TIP3   OH224962   7.427   5.940  18.560  0.7225  0.4760  0.3751
  256TIP3    H124963   7.510   5.981  18.584 -0.1469  1.5466  1.6403
  256TIP3    H224964   7.363   6.011  18.563 -0.4468 -0.5567  0.5722
  257TIP3   OH224965   1.619   1.170  18.018  0.3351  0.0425  0.1419
  257TIP3    H124966   1.563   1.098  17.989  0.5577  0.6852 -2.0816
  257TIP3    H224967   1.701   1.158  17.970  0.9619  0.8656  0.9659
  258TIP3   OH224968   1.361   0.471  18.985 -1.0848  0.1831  0.1755
  258TIP3    H124969   1.337   0.484  19.077  0.7197  1.6022  0.5195
  258TIP3    H224970   1.372   0.377  18.975 -0.6590  0.0722  1.5892
  259TIP3   OH224971   1.761   1.839  18.263  0.3802  0.3202  0.4575
  259TIP3    H124972   1.674   1.874  18.284  0.7051  1.4778 -0.0888
  259TIP3    H224973   1.754   1.746  18.284 -1.4724  0.0638 -1.0056
  260TIP3   OH224974   1.560   5.630  16.807  0.1818  0.8204 -0.5318
  260TIP3    H124975   1.506   5.709  16.802  1.4112  1.6689 -0.7827
  260TIP3    H224976   1.649   5.662  16.822  0.5966 -0.5589  0.1282
  261TIP3   OH224977   0.460   7.359  17.443 -0.3663  0.4067  0.2776
  261TIP3    H124978   0.522   7.349  17.516 -1.2870 -2.5985  0.8041
  261TIP3    H224979   0.402   7.430  17.471  0.7546  0.9589  1.3235
  262TIP3   OH224980   1.004   2.343  18.128 -0.3779 -0.1850 -0.2605
  262TIP3    H124981   1.078   2.283  18.115  0.6995  0.7444  1.2769
  262TIP3    H224982   1.044   2.430  18.132 -1.6477  0.4208 -0.1735
  263TIP3   OH224983   5.550   3.061  17.503 -0.2487  0.3232  0.2234
  263TIP3    H124984   5.625   3.046  17.445 -0.7507  0.0314 -0.3605
  263TIP3    H224985   5.537   3.156  17.501  1.3199  0.6203  1.8835
  264TIP3   OH224986   5.200   5.636  18.269  0.1610  0.2641 -0.3150
  264TIP3    H124987   5.185   5.585  18.349 -1.0901 -0.3632 -0.9303
  264TIP3    H224988   5.182   5.574  18.198  1.0189  0.8854 -1.0902
  265TIP3   OH224989   1.037   5.450  18.645 -0.0696  0.2761 -0.5946
  265TIP3    H124990   1.094   5.527  18.652  0.2261 -0.0538  1.6887
  265TIP3    H224991   0.967   5.467  18.708 -0.4692 -0.9240 -0.6881
  266TIP3   OH224992   3.899   0.544  17.425 -0.9341  0.5551 -0.1259
  266TIP3    H124993   3.862   0.462  17.393 -0.2771  0.1357  0.1719
  266TIP3    H224994   3.917   0.595  17.345  0.4425 -0.3695 -0.4377
  267TIP3   OH224995   0.140   2.258  16.682  0.5446  0.5794 -0.1609
  267TIP3    H124996   0.061   2.236  16.634  0.0539 -0.2057  0.9570
  267TIP3    H224997   0.193   2.308  16.620  0.2942 -1.0642 -1.7716
  268TIP3   OH224998   3.012   5.192  19.493 -0.1067  0.0496 -0.1187
  268TIP3    H124999   2.939   5.204  19.553  1.2913 -2.2328  2.2798
  268TIP3    H225000   2.990   5.114  19.442  0.4497 -0.4212  0.3418
  269TIP3   OH225001   4.415   4.329  18.811 -0.1227 -0.3642  0.1103
  269TIP3    H125002   4.460   4.412  18.827 -0.3974  0.2897 -2.1528
  269TIP3    H225003   4.471   4.283  18.748  0.0583 -1.9571  1.3828
  270TIP3   OH225004   7.236   5.622  17.192  0.3437  0.0516  0.5189
  270TIP3    H125005   7.177   5.676  17.140 -0.5727 -1.0984  0.3066
  270TIP3    H225006   7.303   5.593  17.131 -0.6585 -1.1924 -0.0384
  271TIP3   OH225007   5.012   5.437  19.518  0.4721  0.7092  0.4039
  271TIP3    H125008   4.916   5.433  19.518  0.5059 -1.2030  0.8995
  271TIP3    H225009   5.038   5.372  19.583  2.1294  0.9195 -0.0088
  272TIP3   OH225010   0.526   2.150  16.920  0.2958 -0.1667 -0.3165
  272TIP3    H125011   0.527   2.240  16.890  0.0397  0.6730  2.0024
  272TIP3    H225012   0.437   2.135  16.951  1.0467 -0.1740  2.0667
  273TIP3   OH225013   7.342   4.470  18.760 -0.0189 -0.1336  0.2213
  273TIP3    H125014   7.287   4.480  18.837  0.1363 -1.4216  0.5253
  273TIP3    H225015   7.422   4.428  18.793  1.3199  1.9549 -0.1461
  274TIP3   OH225016   1.598   5.915  19.139  0.5515 -0.5186  0.3506
  274TIP3    H125017   1.525   5.897  19.080 -0.2169 -0.5285  1.2627
  274TIP3    H225018   1.657   5.971  19.089  0.5288 -1.5057 -0.8307
  275TIP3   OH225019   7.003   5.577  18.098  0.6266  0.2796 -0.2774
  275TIP3    H125020   6.918   5.617  18.113  0.0965 -0.9894  0.2027
  275TIP3    H225021   6.983   5.486  18.077  1.9174 -0.2945  0.8748
  276TIP3   OH225022   4.019   3.822  19.346  0.3604  0.1058 -0.4055
  276TIP3    H125023   4.005   3.836  19.440 -3.4662 -0.7244 -0.6870
  276TIP3    H225024   3.980   3.899  19.304 -3.6339 -2.1117 -1.3202
  277TIP3   OH225025   3.901   4.053  19.251  0.0166 -0.3118  0.6804
  277TIP3    H125026   3.828   4.065  19.312 -1.3069 -0.5423 -0.7714
  277TIP3    H225027   3.954   4.132  19.260 -1.0248  0.3688  1.0048
  278TIP3   OH225028   2.136   5.278  17.065 -0.4809  0.4917 -0.2874
  278TIP3    H125029   2.146   5.204  17.006  1.1599 -0.5863  1.2476
  278TIP3    H225030   2.131   5.354  17.008  2.0004 -0.3910 -1.8305
  279TIP3   OH225031   7.338   5.934  18.302 -0.0213  0.5632 -0.3442
  279TIP3    H125032   7.356   5.918  18.395 -2.9263 -2.5330 -0.1125
  279TIP3    H225033   7.416   5.902  18.257 -0.4779 -2.6805  0.9118
  280TIP3   OH225034   5.933   4.169  18.987 -0.6245  0.6139 -0.3220
  280TIP3    H125035   5.917   4.083  19.027  0.4154  0.6033  0.1061
  280TIP3    H225036   5.869   4.227  19.027 -0.7646  0.2191  0.0349
  281TIP3   OH225037   1.305   6.922  18.873  0.1767 -0.1350 -0.5248
  281TIP3    H125038   1.364   6.847  18.879 -0.7764 -0.9717 -1.4292
  281TIP3    H225039   1.221   6.890  18.906 -0.0928  0.7032 -0.3742
  282TIP3   OH225040   0.950   0.246  18.471 -0.2008  0.0882  0.2609
  282TIP3    H125041   1.029   0.292  18.442 -0.0098 -0.0520  0.5496
  282TIP3    H225042   0.971   0.153  18.462 -0.6843  0.0506 -0.5776
  283TIP3   OH225043   5.472   1.882  18.512  1.2298 -0.0290 -0.1485
  283TIP3    H125044   5.411   1.950  18.483  1.3929  1.1284  1.9914
  283TIP3    H225045   5.421   1.801  18.508 -0.1210  0.7413  0.5209
  284TIP3   OH225046   5.891   0.368  12.224 -0.1170 -0.1845  0.4228
  284TIP3    H125047   5.821   0.433  12.218  0.8412  0.7998 -0.7741
  284TIP3    H225048   5.901   0.335  12.135  1.7942  0.6736  0.2645
  285TIP3   OH225049   4.516   4.971  12.157 -0.0808  0.2412  0.1392
  285TIP3    H125050   4.495   4.979  12.250 -0.4515 -1.0553  0.1822
  285TIP3    H225051   4.605   4.935  12.155 -0.6548 -1.2442  0.0326
  286TIP3   OH225052   4.070   0.647  12.688 -0.2840  0.2294 -0.1630
  286TIP3    H125053   4.127   0.601  12.626  0.1582 -0.6007  0.8349
  286TIP3    H225054   4.019   0.577  12.730  0.1578  0.6648  1.1390
  287TIP3   OH225055   3.638   5.668  11.596  0.0498  0.1495 -0.4442
  287TIP3    H125056   3.699   5.639  11.663  0.9508  2.0840 -0.3514
  287TIP3    H225057   3.679   5.746  11.558  0.5007 -1.8607 -4.6169
  288TIP3   OH225058   5.836   0.625  10.590 -0.2101 -0.0541  0.5848
  288TIP3    H125059   5.767   0.690  10.584 -0.1329  0.2388  2.3134
  288TIP3    H225060   5.906   0.659  10.534 -0.7637  0.5695  0.2650
  289TIP3   OH225061   2.264   0.887  12.414 -0.0497 -0.4246 -0.4312
  289TIP3    H125062   2.211   0.815  12.448  0.2032 -0.6991 -0.6139
  289TIP3    H225063   2.325   0.907  12.485 -0.2732 -0.2321 -0.2921
  290TIP3   OH225064   3.798   2.137  10.932 -0.1738 -0.0106 -0.3628
  290TIP3    H125065   3.890   2.140  10.957 -0.3436  0.2849  0.2308
  290TIP3    H225066   3.773   2.045  10.942 -0.0718 -0.0055 -0.0544
  291TIP3   OH225067   3.662   6.126  12.941  0.0077  0.2819 -0.3515
  291TIP3    H125068   3.577   6.169  12.951 -0.4545 -0.9324  1.6217
  291TIP3    H225069   3.646   6.035  12.969  1.8462 -0.0863 -0.3492
  292TIP3   OH225070   2.585   4.181  10.802 -0.4076  0.2747  0.4422
  292TIP3    H125071   2.668   4.177  10.849 -0.4482  1.8367  0.7113
  292TIP3    H225072   2.565   4.090  10.781  0.8083 -0.2347  1.3478
  293TIP3   OH225073   0.506   6.987  11.117  0.0629  0.2884  0.3223
  293TIP3    H125074   0.415   6.967  11.141  0.0395  0.6946  0.5752
  293TIP3    H225075   0.536   6.909  11.071  0.0503 -0.4290  1.5045
  294TIP3   OH225076   3.150   0.260  13.203 -0.3384  0.0070 -0.0490
  294TIP3    H125077   3.185   0.305  13.280  1.2691  0.9530 -1.2522
  294TIP3    H225078   3.228   0.232  13.155 -1.3002 -0.6056 -1.2969
  295TIP3   OH225079   2.461   2.796  10.885  0.0755 -0.0178 -0.7747
  295TIP3    H125080   2.486   2.885  10.859  0.7168 -0.0767 -0.3874
  295TIP3    H225081   2.446   2.750  10.802 -0.5538  0.5311 -0.9689
  296TIP3   OH225082   1.942   6.093  12.213 -0.5895 -0.0057  0.3688
  296TIP3    H125083   2.027   6.049  12.212  0.0691  1.1749  1.2321
  296TIP3    H225084   1.905   6.077  12.127  0.0203 -1.4430  0.3438
  297TIP3   OH225085   3.339   6.070  12.752 -0.3410 -0.1359  0.2144
  297TIP3    H125086   3.381   6.113  12.826 -0.8563  0.6865  0.0354
  297TIP3    H225087   3.406   6.070  12.684 -0.1224 -0.2057  0.4277
  298TIP3   OH225088   5.554   1.116  11.473  0.0213 -0.3141  0.0478
  298TIP3    H125089   5.467   1.091  11.439  0.8437 -1.1067 -1.5915
  298TIP3    H225090   5.536   1.186  11.535 -1.7505 -0.0235 -0.7250
  299TIP3   OH225091   6.340   2.389  11.777 -0.3023 -0.4298 -0.2394
  299TIP3    H125092   6.263   2.407  11.724  0.5192 -0.0628 -1.3349
  299TIP3    H225093   6.345   2.293  11.780 -1.4573 -0.4917  0.8605
  300TIP3   OH225094   1.291   2.738  13.654  0.6651  0.0663  0.2155
  300TIP3    H125095   1.249   2.816  13.617  0.1943 -0.2275  0.1306
  300TIP3    H225096   1.269   2.667  13.594  1.1189 -0.1283  0.2765
  301TIP3   OH225097   1.025   0.897  11.022  0.3376  0.1212 -0.5986
  301TIP3    H125098   0.958   0.922  11.086  1.6176  0.7773  0.5355
  301TIP3    H225099   1.053   0.980  10.983  0.4238 -0.1560 -1.1283
  302TIP3   OH225100   2.467   1.898  11.493  0.5692  0.2866  0.0767
  302TIP3    H125101   2.398   1.909  11.559  0.6010 -2.6174  0.7408
  302TIP3    H225102   2.421   1.908  11.409 -0.7829 -1.6490  0.5052
  303TIP3   OH225103   2.596   6.576  11.244 -0.0745 -0.4610  0.2778
  303TIP3    H125104   2.599   6.647  11.309 -0.8190 -0.0409 -0.1326
  303TIP3    H225105   2.686   6.567  11.214  0.3281 -0.8197  1.5284
  304TIP3   OH225106   1.817   6.462  10.611 -0.0716  0.9280  0.5376
  304TIP3    H125107   1.795   6.373  10.639 -0.2979  0.8076 -0.0254
  304TIP3    H225108   1.734   6.500  10.583  0.2230  0.8903 -0.4102
  305TIP3   OH225109   6.651   7.443  11.604  0.2723  0.3453 -0.0592
  305TIP3    H125110   6.629   7.522  11.655  0.4856  0.8691 -0.7675
  305TIP3    H225111   6.663   7.474  11.515 -1.0337 -0.7241 -0.6274
  306TIP3   OH225112   1.682   0.777  11.883 -0.0374  0.0970 -0.3105
  306TIP3    H125113   1.649   0.849  11.936 -2.2431 -1.7764  1.0575
  306TIP3    H225114   1.759   0.745  11.930  1.3637  1.8550 -1.2715
  307TIP3   OH225115   1.973   6.048  12.784 -0.0004 -0.5943 -0.0135
  307TIP3    H125116   1.970   6.060  12.689  1.0354 -0.1498  0.0051
  307TIP3    H225117   1.924   5.968  12.799  0.6471 -1.2002 -1.0245
  308TIP3   OH225118   0.805   2.242  13.087  0.4823  0.3527  0.1729
  308TIP3    H125119   0.846   2.263  13.171 -0.3715  0.3151  0.6065
  308TIP3    H225120   0.738   2.309  13.075 -0.1655 -0.2980  0.0746
  309TIP3   OH225121   7.220   0.796  12.141 -0.7485 -0.3277  0.1591
  309TIP3    H125122   7.182   0.732  12.081 -0.6231 -0.3084  0.0585
  309TIP3    H225123   7.159   0.869  12.140 -0.4428 -0.0725 -0.4138
  310TIP3   OH225124   3.645   7.220  13.238 -0.2408  0.7112 -0.2975
  310TIP3    H125125   3.617   7.238  13.148 -0.4327 -0.6232 -0.5228
  310TIP3    H225126   3.564   7.218  13.288 -0.2319  0.3156 -0.3014
  311TIP3   OH225127   7.067   1.614  11.260 -0.2420 -0.4422 -0.2338
  311TIP3    H125128   7.092   1.572  11.343  0.3855  1.7387  0.7598
  311TIP3    H225129   6.982   1.653  11.279  0.1345  0.4986 -0.4423
  312TIP3   OH225130   4.040   7.397  12.251  0.3182  0.5189 -0.2995
  312TIP3    H125131   3.948   7.386  12.226  0.1856  2.2529 -0.6858
  312TIP3    H225132   4.064   7.483  12.217  1.4653  1.0327  1.6427
  313TIP3   OH225133   1.048   0.823  10.542 -0.4953  0.5848 -0.4217
  313TIP3    H125134   1.048   0.778  10.626  0.3726 -1.5254 -1.4706
  313TIP3    H225135   0.996   0.902  10.556 -1.0449 -0.1284  1.8548
  314TIP3   OH225136   2.207   7.573  12.936 -0.3518  0.0469 -0.1400
  314TIP3    H125137   2.139   7.537  12.992  0.2115 -2.0222 -0.6900
  314TIP3    H225138   2.250   7.496  12.898  2.0145  1.2707 -0.1424
  315TIP3   OH225139   3.421   5.587  13.258 -0.1461 -0.5816 -0.1643
  315TIP3    H125140   3.338   5.615  13.295 -0.6117 -0.7143 -1.0913
  315TIP3    H225141   3.482   5.657  13.280 -0.5844 -0.3162  0.2094
  316TIP3   OH225142   1.635   3.629  10.338 -0.0056 -0.1426 -0.2293
  316TIP3    H125143   1.625   3.719  10.370 -0.7811 -0.4572  0.4319
  316TIP3    H225144   1.720   3.601  10.372 -0.4760 -0.2065  0.9391
  317TIP3   OH225145   6.672   7.588  11.378  0.1649  0.3869 -0.1200
  317TIP3    H125146   6.721   7.662  11.416  0.5330  0.7320 -1.2160
  317TIP3    H225147   6.604   7.630  11.325 -0.6616 -0.0889  0.5467
  318TIP3   OH225148   4.218   5.041  12.538  0.2469  0.2890  0.6016
  318TIP3    H125149   4.283   4.990  12.490 -0.5091 -2.1278  1.9691
  318TIP3    H225150   4.261   5.062  12.621 -0.6035 -1.1943  1.4529
  319TIP3   OH225151   4.532   1.159  11.541  0.0142  0.1916 -0.6774
  319TIP3    H125152   4.577   1.169  11.458  0.9079  3.0625  0.0367
  319TIP3    H225153   4.440   1.176  11.521  0.4414  2.5929 -0.8937
  320TIP3   OH225154   6.373   5.354  10.735 -0.3279  0.4390  0.2050
  320TIP3    H125155   6.289   5.335  10.695  0.0243  0.6621 -0.6613
  320TIP3    H225156   6.412   5.267  10.751  0.5920  0.3003 -2.2772
  321TIP3   OH225157   0.279   4.088  11.818 -0.3352 -0.0326 -0.4619
  321TIP3    H125158   0.216   4.125  11.879 -0.0547  1.0508 -0.8203
  321TIP3    H225159   0.229   4.071  11.738 -0.2842  0.3451 -0.5740
  322TIP3   OH225160   0.288   0.000  10.715 -0.0175 -0.4622 -0.0760
  322TIP3    H125161   0.303  -0.047  10.797  1.1819 -1.2595 -0.7212
  322TIP3    H225162   0.294  -0.067  10.648  0.2737  0.3892 -0.9158
  323TIP3   OH225163   4.805   4.033  17.039  0.4671  0.3301  0.0556
  323TIP3    H125164   4.831   3.999  16.953 -2.5592  0.4133 -1.0482
  323TIP3    H225165   4.799   4.127  17.027  0.3695  0.3746  0.4395
  324TIP3   OH225166   1.088   6.831  19.487  0.6143 -0.3108  0.3349
  324TIP3    H125167   1.089   6.919  19.524 -2.9792  1.7242 -3.5855
  324TIP3    H225168   1.016   6.787  19.531 -0.2656  0.2407 -0.5242
  325TIP3   OH225169   7.350   1.673  17.366 -0.2477 -0.5388  0.1473
  325TIP3    H125170   7.329   1.761  17.398  0.5759 -0.5776  0.8447
  325TIP3    H225171   7.334   1.616  17.442 -0.0971 -0.8925 -0.0871
  326TIP3   OH225172   6.444   7.662  16.604  0.1707 -0.1428 -0.8639
  326TIP3    H125173   6.378   7.616  16.656  1.3857  1.1785  2.0975
  326TIP3    H225174   6.423   7.640  16.513 -2.9243 -1.5566  0.0573
  327TIP3   OH225175   3.696   1.755  19.428 -0.7344 -0.7721 -0.4077
  327TIP3    H125176   3.697   1.847  19.403 -1.2259 -0.8062 -0.5481
  327TIP3    H225177   3.610   1.723  19.402 -1.0605 -0.9473  0.8343
  328TIP3   OH225178   6.746   6.869  18.006  0.2760 -0.2749 -0.9004
  328TIP3    H125179   6.788   6.784  18.023  0.4804  0.0481  0.3106
  328TIP3    H225180   6.803   6.933  18.048 -0.4380  0.3573 -0.8732
  329TIP3   OH225181   6.703   2.394  17.810 -0.1558  0.2799 -0.1541
  329TIP3    H125182   6.768   2.347  17.758 -0.4718  0.3754 -0.6460
  329TIP3    H225183   6.656   2.324  17.856 -1.7234 -0.0883 -2.1484
  330TIP3   OH225184   0.221   4.028  18.910 -0.3196 -0.9659 -0.2712
  330TIP3    H125185   0.213   3.992  18.821  0.0010  0.6868 -1.0251
  330TIP3    H225186   0.142   3.998  18.955 -2.2960  0.8611 -2.2052
  331TIP3   OH225187   0.653   4.157  19.245  0.1818  0.1368 -0.1231
  331TIP3    H125188   0.583   4.120  19.192 -1.7734 -0.3325  2.5758
  331TIP3    H225189   0.685   4.231  19.194 -0.7992 -0.9069 -2.3987
  332TIP3   OH225190   0.043   2.629  17.495  0.2253  0.5181  0.2713
  332TIP3    H125191   0.004   2.542  17.494 -0.2979  0.7070  1.8895
  332TIP3    H225192  -0.022   2.686  17.455  0.8494  0.0914 -1.4294
  333TIP3   OH225193   3.340   3.196  17.579 -0.3062 -0.3331  0.4310
  333TIP3    H125194   3.288   3.147  17.643  2.5421 -2.3272  1.4248
  333TIP3    H225195   3.385   3.129  17.528  0.7104  1.2691 -0.8960
  334TIP3   OH225196   6.234   3.695  18.325 -0.1139 -0.3148 -0.1252
  334TIP3    H125197   6.236   3.628  18.257  1.6784 -1.6351  1.1106
  334TIP3    H225198   6.285   3.767  18.289 -0.0785 -0.5696 -0.5956
  335TIP3   OH225199   2.138   6.885  19.465  0.2085 -0.0103  0.2763
  335TIP3    H125200   2.119   6.882  19.371 -0.2793  1.9446  0.2781
  335TIP3    H225201   2.059   6.852  19.506  0.6975 -1.6125  0.0325
  336TIP3   OH225202   2.961   3.572  19.153 -0.0987  0.6446  0.5925
  336TIP3    H125203   2.885   3.518  19.130 -0.0240  0.2942  1.1433
  336TIP3    H225204   3.017   3.570  19.076  0.0360 -0.3061  0.7096
  337TIP3   OH225205   1.209   2.333  17.558  0.2329  0.0249  0.5985
  337TIP3    H125206   1.272   2.318  17.488 -0.5333  0.4899 -0.2081
  337TIP3    H225207   1.124   2.322  17.516 -0.2343 -1.1721  1.7987
  338TIP3   OH225208   0.852   4.595  18.071 -0.5250  0.1151 -0.1810
  338TIP3    H125209   0.841   4.602  17.976 -0.8563 -0.2948 -0.1771
  338TIP3    H225210   0.943   4.618  18.087  0.2297 -2.2042 -0.8552
  339TIP3   OH225211   7.273   1.392  17.496  0.1978  0.3056  0.6803
  339TIP3    H125212   7.303   1.349  17.416  0.6857 -0.3890  1.2163
  339TIP3    H225213   7.178   1.381  17.496  0.4216 -2.4468  1.6784
  340TIP3   OH225214   4.695   7.210  18.773  0.6736 -0.5444 -0.2781
  340TIP3    H125215   4.745   7.163  18.706 -1.4592 -1.2476 -1.4684
  340TIP3    H225216   4.646   7.277  18.725 -0.2488 -0.4852  0.6889
  341TIP3   OH225217   5.040   6.552  17.189  0.1882  0.7645  0.4215
  341TIP3    H125218   5.018   6.586  17.102  0.4272  2.8215  1.1041
  341TIP3    H225219   4.973   6.590  17.246  0.6211  0.2625  1.2715
  342TIP3   OH225220   3.914   0.461  19.055  0.3622 -0.0236  0.4763
  342TIP3    H125221   3.849   0.433  19.120  0.4065 -1.3334 -0.0157
  342TIP3    H225222   3.997   0.427  19.088  0.6176  0.5983  0.4828
  343TIP3   OH225223   1.668   1.441  17.560 -0.1319 -0.3443 -0.9069
  343TIP3    H125224   1.599   1.504  17.581 -0.0448 -0.0134 -1.5563
  343TIP3    H225225   1.654   1.421  17.467  1.1131  0.3456 -1.2771
  344TIP3   OH225226   1.996   0.012  17.721  0.2156 -0.1682 -0.5717
  344TIP3    H125227   1.919   0.048  17.676  0.6267  3.5695  1.3382
  344TIP3    H225228   1.967  -0.002  17.811  1.7159  1.4372  0.2162
  345TIP3   OH225229   5.190   5.667  17.726  0.1822 -0.0032 -0.0570
  345TIP3    H125230   5.166   5.620  17.807 -0.1832  0.2009 -0.0445
  345TIP3    H225231   5.276   5.632  17.703  0.5054  0.2820  0.6870
  346TIP3   OH225232   6.082   6.942  19.200  0.4087  0.5002 -0.3526
  346TIP3    H125233   5.988   6.957  19.189  0.3208  1.0802  0.9959
  346TIP3    H225234   6.088   6.850  19.226  0.1244  0.7162  0.4887
  347TIP3   OH225235   7.248   0.396  19.017 -0.5113  0.1243 -0.5522
  347TIP3    H125236   7.246   0.359  19.105  1.0719 -2.2776 -1.4359
  347TIP3    H225237   7.159   0.385  18.984 -0.5541 -1.1418 -0.0744
  348TIP3   OH225238   3.419   0.711  19.221  0.3365 -0.0510 -0.1724
  348TIP3    H125239   3.382   0.763  19.292  1.1493 -0.3768  0.5023
  348TIP3    H225240   3.466   0.775  19.166 -0.4144  0.2209 -0.5100
  349TIP3   OH225241   4.711   2.608  17.015 -0.3217  0.6836 -0.1966
  349TIP3    H125242   4.712   2.592  16.921 -1.7429  1.0747 -0.3066
  349TIP3    H225243   4.768   2.541  17.052 -1.0185 -0.4999 -1.2067
  350TIP3   OH225244   1.316   2.315  17.813 -0.2225  0.0571 -0.8478
  350TIP3    H125245   1.281   2.308  17.724 -0.9199  0.3686 -0.6133
  350TIP3    H225246   1.251   2.370  17.859  0.9887  1.3361 -0.5937
  351TIP3   OH225247   7.047   7.518  17.204 -0.3191  0.2645 -0.6840
  351TIP3    H125248   7.132   7.530  17.161  0.6984 -0.3513  1.0853
  351TIP3    H225249   7.020   7.430  17.180  0.7086 -0.4464  0.6410
  352TIP3   OH225250   1.809   2.707  18.132  0.0549 -0.0499  0.1798
  352TIP3    H125251   1.775   2.777  18.076  0.5710  0.3096  0.3158
  352TIP3    H225252   1.880   2.668  18.080  0.7958  0.5367  0.7357
  353TIP3   OH225253   5.721   6.820  16.579 -0.1525 -0.6644  0.1514
  353TIP3    H125254   5.795   6.840  16.522 -0.1772 -0.6086  0.1386
  353TIP3    H225255   5.760   6.811  16.666 -0.3789  1.5092  0.5436
  354TIP3   OH225256   4.254   2.077  19.015 -0.0983 -0.0000  0.3119
  354TIP3    H125257   4.287   2.051  18.929  0.9009  1.2624  0.2797
  354TIP3    H225258   4.160   2.055  19.013 -0.2140  0.5169 -1.3117
  355TIP3   OH225259   1.737   7.481  18.244 -0.2010  0.0775  0.0353
  355TIP3    H125260   1.697   7.396  18.261  0.0015 -0.0894 -0.2919
  355TIP3    H225261   1.736   7.526  18.328  2.1998 -1.3147  0.9169
  356TIP3   OH225262   3.574   1.434  19.446 -0.0674  0.2014 -0.3012
  356TIP3    H125263   3.558   1.527  19.434  2.1390  0.8471  1.1206
  356TIP3    H225264   3.640   1.412  19.380  1.8548  0.5100  1.4003
  357TIP3   OH225265   5.760   2.074  17.584 -0.2323 -0.2736 -0.0821
  357TIP3    H125266   5.792   1.992  17.545  0.2901  0.6679 -1.7098
  357TIP3    H225267   5.724   2.123  17.510 -0.7902  0.8650  0.9188
  358TIP3   OH225268   1.751   0.844  18.766  1.0807  0.0755  0.2461
  358TIP3    H125269   1.801   0.763  18.756 -0.9514 -1.0064 -1.9893
  358TIP3    H225270   1.677   0.819  18.822 -0.0723  0.0560 -1.2234
  359TIP3   OH225271   3.307   1.674  18.083  0.2330  0.0611 -0.0480
  359TIP3    H125272   3.269   1.600  18.130 -1.1698  0.0506 -1.1528
  359TIP3    H225273   3.377   1.636  18.030 -0.0926 -0.3762 -0.1629
  360TIP3   OH225274   4.983   1.788  16.738  0.2242  0.8621  0.1725
  360TIP3    H125275   5.055   1.833  16.784 -0.8555  1.3005  1.5045
  360TIP3    H225276   5.010   1.788  16.646  2.3185  0.2437  0.7337
  361TIP3   OH225277   5.828   4.464  17.762 -0.2134 -0.0768 -0.1682
  361TIP3    H125278   5.759   4.529  17.748 -1.2408 -0.7325  1.5041
  361TIP3    H225279   5.790   4.382  17.729  0.5232 -0.1168 -0.9546
  362TIP3   OH225280   6.607   3.527  17.433 -0.4673  0.3563 -0.3572
  362TIP3    H125281   6.636   3.465  17.499 -1.0499 -0.6365 -0.9927
  362TIP3    H225282   6.677   3.527  17.367 -0.8929 -0.3800 -0.8260
  363TIP3   OH225283   2.794   6.843  16.523 -0.6931 -0.3668 -0.5126
  363TIP3    H125284   2.737   6.814  16.452  1.4530 -2.6645 -1.4316
  363TIP3    H225285   2.869   6.883  16.479 -0.3407  0.1871  0.5593
  364TIP3   OH225286   4.153   6.384  18.531 -0.4010 -0.2306 -0.1968
  364TIP3    H125287   4.071   6.414  18.491  0.4946  1.3839 -0.9410
  364TIP3    H225288   4.157   6.431  18.615 -1.4133 -2.2570  1.0743
  365TIP3   OH225289   3.624   1.106  16.405  0.4250  0.0072  0.1573
  365TIP3    H125290   3.591   1.046  16.338  0.8834 -0.4254  0.3105
  365TIP3    H225291   3.624   1.055  16.486  1.1160  0.1064  0.2289
  366TIP3   OH225292   7.158   4.192  19.223 -0.3676  0.1488  0.3895
  366TIP3    H125293   7.092   4.166  19.159  0.9331 -0.1464 -0.8882
  366TIP3    H225294   7.129   4.278  19.253 -1.6295 -0.2223  0.3094
  367TIP3   OH225295   7.458   3.991  17.150  0.6255  0.1532  0.3681
  367TIP3    H125296   7.426   3.901  17.157  1.1892 -0.3598 -2.3169
  367TIP3    H225297   7.378   4.045  17.143  0.2676 -0.4798 -0.6931
  368TIP3   OH225298   5.951   3.745  17.771 -0.0339 -0.9009 -0.1820
  368TIP3    H125299   5.945   3.768  17.678 -1.8742 -1.2668 -0.1917
  368TIP3    H225300   6.003   3.816  17.809 -0.3325 -0.0517 -1.2703
  369TIP3   OH225301   1.888   0.599  19.484  0.2089  0.3787 -0.0223
  369TIP3    H125302   1.952   0.555  19.429  0.6237 -0.2550  0.9498
  369TIP3    H225303   1.860   0.532  19.546 -0.7253  0.9062  0.1363
  370TIP3   OH225304   0.820   4.125  18.580 -0.0545  0.1305  0.3130
  370TIP3    H125305   0.765   4.203  18.580  0.8236  0.7778 -0.1550
  370TIP3    H225306   0.884   4.141  18.510  0.3266 -0.8813  0.4096
  371TIP3   OH225307   1.483   7.465  19.316  0.2443  0.5631 -0.1116
  371TIP3    H125308   1.466   7.389  19.260  1.4851  0.4620 -0.3776
  371TIP3    H225309   1.557   7.439  19.370 -0.4511  0.9506  1.0600
  372TIP3   OH225310   7.667   5.371  19.124  0.9332  0.4872 -0.4700
  372TIP3    H125311   7.720   5.424  19.065  1.7209 -1.6677 -1.8482
  372TIP3    H225312   7.730   5.318  19.173  0.1741  0.5974  0.6657
  373TIP3   OH225313   3.868   2.168  19.145 -0.1525 -0.4358 -0.5315
  373TIP3    H125314   3.958   2.193  19.164 -0.3778  0.5594 -0.7566
  373TIP3    H225315   3.875   2.105  19.073  0.4138 -1.0933  0.0731
  374TIP3   OH225316   3.320   0.859  19.440  0.3504  0.5218  0.0607
  374TIP3    H125317   3.262   0.935  19.444  0.7051  0.8220 -0.4064
  374TIP3    H225318   3.389   0.877  19.504 -1.8763 -1.4247  3.3238
  375TIP3   OH225319   7.184   6.978  18.500  0.0831 -0.1490 -0.3542
  375TIP3    H125320   7.200   7.062  18.459 -1.0860  1.0953  1.6030
  375TIP3    H225321   7.257   6.966  18.561 -0.5054  0.1655  0.4263
  376TIP3   OH225322   1.264   0.327  18.093 -0.2345  0.2527 -0.6671
  376TIP3    H125323   1.227   0.254  18.043  0.5052 -0.1438 -0.6486
  376TIP3    H225324   1.189   0.385  18.110 -1.2483 -1.4608  1.0519
  377TIP3   OH225325   4.498   4.547  16.822  0.3031  0.2199  0.1196
  377TIP3    H125326   4.528   4.633  16.852 -0.3605  0.7312 -0.6387
  377TIP3    H225327   4.573   4.489  16.835  0.9992  1.0712 -0.0329
  378TIP3   OH225328   2.471   5.757  19.314  0.0902  0.3095 -0.0451
  378TIP3    H125329   2.414   5.705  19.370  0.4546 -1.5655 -1.3155
  378TIP3    H225330   2.417   5.779  19.238  0.5638 -0.0859 -0.5047
  379TIP3   OH225331   6.815   0.587  17.670 -0.4258  0.3812  0.4210
  379TIP3    H125332   6.909   0.603  17.665 -0.4420  0.3867  0.0808
  379TIP3    H225333   6.801   0.548  17.756 -0.0319 -0.1566  0.2427
  380TIP3   OH225334   4.554   4.858  17.861  0.4807  0.3484  0.1362
  380TIP3    H125335   4.566   4.912  17.783 -0.9269 -1.5221 -1.4653
  380TIP3    H225336   4.635   4.869  17.911  0.9522  2.4651 -1.0115
  381TIP3   OH225337   5.369   2.523  16.539  0.1360  0.5318  0.8872
  381TIP3    H125338   5.306   2.509  16.609  0.1142 -0.3446  0.6947
  381TIP3    H225339   5.347   2.458  16.473  0.1112  1.3889  0.0247
  382TIP3   OH225340   1.084   1.081  18.914 -0.0163 -0.3156  0.4310
  382TIP3    H125341   1.068   1.134  18.992  2.1507  1.5185 -0.2302
  382TIP3    H225342   1.031   1.122  18.846  1.0121  0.5622  0.1186
  383TIP3   OH225343   6.519   4.037  17.279  0.2310  0.1648 -0.6389
  383TIP3    H125344   6.559   4.089  17.210  0.6998 -0.2863 -0.7119
  383TIP3    H225345   6.445   3.993  17.237 -1.2348  2.0846 -0.1794
  384TIP3   OH225346   7.650   0.145  17.371  0.0366  0.2008 -0.1688
  384TIP3    H125347   7.579   0.208  17.386 -0.0830  0.1972 -0.6769
  384TIP3    H225348   7.730   0.195  17.387 -0.0519  0.5534 -0.7912
  385TIP3   OH225349   3.186   5.020  17.669  0.0163  0.1137 -0.1032
  385TIP3    H125350   3.232   4.973  17.739 -0.8249 -0.6687 -0.0613
  385TIP3    H225351   3.102   4.976  17.661 -0.3747  0.9488 -0.8071
  386TIP3   OH225352   5.788   0.314  17.459 -0.2038 -0.0574 -0.0627
  386TIP3    H125353   5.840   0.274  17.390  0.8304 -1.8183  1.6500
  386TIP3    H225354   5.839   0.390  17.487 -0.4274  0.4216 -0.9245
  387TIP3   OH225355   0.932   6.792  19.253 -0.9054 -0.0714 -0.2148
  387TIP3    H125356   0.950   6.699  19.247  1.0414  0.3259 -1.6525
  387TIP3    H225357   1.007   6.828  19.301 -0.7923  0.9380 -1.1070
  388TIP3   OH225358   4.246   6.105  18.277  0.3028  0.1525 -0.2475
  388TIP3    H125359   4.279   6.015  18.281  0.3242  0.0803 -1.6688
  388TIP3    H225360   4.162   6.101  18.322  0.5147 -0.4729  0.1140
  389TIP3   OH225361   5.883   1.785  17.546 -0.4281 -0.1692 -0.5128
  389TIP3    H125362   5.847   1.721  17.484  0.2537 -0.5789 -0.4995
  389TIP3    H225363   5.898   1.735  17.626  0.3258 -0.0534 -0.5723
  390TIP3   OH225364   7.275   4.037  16.812 -0.0916  0.4140 -0.1786
  390TIP3    H125365   7.209   3.980  16.773  0.6941 -0.7191  0.1119
  390TIP3    H225366   7.358   4.000  16.784  0.4538  0.7797  0.9050
  391TIP3   OH225367   6.614   6.862  18.345 -0.2403  0.1953  0.0156
  391TIP3    H125368   6.553   6.799  18.306 -0.6867  0.2875  0.5563
  391TIP3    H225369   6.673   6.809  18.397  0.6981  0.0138 -1.2029
  392TIP3   OH225370   1.032   0.153  18.230  0.2802 -0.1833  0.1306
  392TIP3    H125371   0.979   0.077  18.253  1.1663 -0.3496  1.8101
  392TIP3    H225372   1.055   0.140  18.138 -0.5822 -1.3089  0.0511
  393TIP3   OH225373   1.839   6.920  18.200 -0.3256 -0.4481 -0.2186
  393TIP3    H125374   1.788   6.949  18.124 -1.5189  0.5233  0.9075
  393TIP3    H225375   1.889   6.997  18.225 -1.3668 -0.1647  1.0911
  394TIP3   OH225376   4.127   6.609  18.263 -0.6046  0.1181 -0.1717
  394TIP3    H125377   4.144   6.690  18.311  2.2452 -0.2318 -0.4436
  394TIP3    H225378   4.035   6.615  18.238 -0.8802  2.5340  1.1362
  395TIP3   OH225379   0.868   1.022  18.491  0.2710 -0.1542 -0.0504
  395TIP3    H125380   0.954   1.013  18.451 -0.0840 -1.5084 -0.5473
  395TIP3    H225381   0.837   0.933  18.505 -0.6835  0.2945  0.9656
  396TIP3   OH225382   3.904   4.807  18.059 -0.0739  0.5375 -0.5129
  396TIP3    H125383   3.864   4.835  17.976  0.8699  1.2688 -0.7413
  396TIP3    H225384   3.830   4.787  18.116 -0.7780  2.3885 -0.7347
  397TIP3   OH225385   4.242   4.637  18.927  0.0321 -0.2956 -0.3620
  397TIP3    H125386   4.244   4.710  18.865 -1.9528 -1.4183 -1.8750
  397TIP3    H225387   4.181   4.664  18.995 -2.7645 -1.3671 -2.2425
  398TIP3   OH225388   4.392   2.697  17.702 -0.6009 -0.1169 -0.5050
  398TIP3    H125389   4.392   2.602  17.710 -1.3960 -0.3626 -2.7063
  398TIP3    H225390   4.467   2.716  17.645  0.6609  0.7847  1.3618
  399TIP3   OH225391   2.180   2.538  17.601 -0.0721 -0.5293  0.1370
  399TIP3    H125392   2.273   2.536  17.623 -0.0151 -1.5971 -0.1141
  399TIP3    H225393   2.173   2.482  17.524 -1.1141 -1.6002  0.9714
  400TIP3   OH225394   2.600   5.102  17.212 -0.2668 -0.1827 -0.1894
  400TIP3    H125395   2.539   5.084  17.140  0.5610 -1.0889 -0.7007
  400TIP3    H225396   2.588   5.028  17.272  1.1249 -1.0065 -0.8753
  401TIP3   OH225397   1.017   1.292  19.132 -0.4071 -0.1575 -0.0778
  401TIP3    H125398   0.922   1.304  19.135 -0.2720  1.1079 -0.1248
  401TIP3    H225399   1.037   1.238  19.208 -1.0410  0.5282  0.5866
  402TIP3   OH225400   1.870   5.387  17.985 -0.2984  0.6245 -0.6306
  402TIP3    H125401   1.895   5.395  18.077 -2.1486  2.3416 -0.2026
  402TIP3    H225402   1.951   5.362  17.940  1.1369  1.7311  1.1914
  403TIP3   OH225403   0.159   3.318  17.497  0.0637 -0.1118 -0.3512
  403TIP3    H125404   0.253   3.314  17.509  0.1843  1.8906 -0.2727
  403TIP3    H225405   0.123   3.323  17.585 -0.0907 -0.4323 -0.3945
  404TIP3   OH225406   0.003   5.994  18.634 -0.2657  0.1446 -0.5588
  404TIP3    H125407   0.080   5.937  18.632 -0.0575  0.3393  0.7602
  404TIP3    H225408   0.025   6.066  18.576  0.2153 -0.2085 -0.8274
  405TIP3   OH225409   5.400   5.778  18.967  0.2519 -0.7077  0.0378
  405TIP3    H125410   5.341   5.829  19.022  0.9269 -0.7255  0.7929
  405TIP3    H225411   5.361   5.691  18.964  0.1453 -0.6706  0.3776
  406TIP3   OH225412   4.480   0.097  19.363  0.2203  0.3755 -0.3182
  406TIP3    H125413   4.489   0.101  19.268  1.1332 -0.0413 -0.2639
  406TIP3    H225414   4.553   0.149  19.397 -0.7535  1.4750  0.1620
  407TIP3   OH225415   0.000   0.324  19.471 -0.0737 -0.3324  0.3253
  407TIP3    H125416  -0.055   0.247  19.479 -0.9785  0.1759 -0.8042
  407TIP3    H225417   0.056   0.307  19.396 -0.2904  0.1115  0.0571
  408TIP3   OH225418   3.217   3.911  18.337 -0.6606  0.0110  0.4436
  408TIP3    H125419   3.166   3.948  18.409 -0.4383 -2.1266  1.7707
  408TIP3    H225420   3.271   3.844  18.378  0.6697 -0.1802 -1.4874
  409TIP3   OH225421   5.277   3.797  19.163  0.1656  0.0156 -0.5898
  409TIP3    H125422   5.254   3.890  19.166  0.4654  0.0669  0.2023
  409TIP3    H225423   5.364   3.793  19.202 -0.4283 -0.7781  0.7032
  410TIP3   OH225424   2.063   6.206  18.800 -0.3865  0.5445  0.7463
  410TIP3    H125425   2.040   6.138  18.863 -0.4224  0.6630  0.8629
  410TIP3    H225426   2.159   6.207  18.800 -0.2155 -2.0123 -1.9783
  411TIP3   OH225427   4.697   2.219  17.584 -0.1887 -0.5223 -0.8296
  411TIP3    H125428   4.659   2.170  17.658 -0.0977 -0.6685 -0.8809
  411TIP3    H225429   4.645   2.192  17.508 -0.5002 -0.1189 -0.7656
  412TIP3   OH225430   6.063   0.282  18.505  0.2201 -0.2991 -0.1392
  412TIP3    H125431   6.093   0.319  18.422  1.2475  0.7345  0.6504
  412TIP3    H225432   5.989   0.337  18.531 -1.2176 -1.6821 -1.1701
  413TIP3   OH225433   1.573   1.466  17.866  0.0693  0.1138 -0.6783
  413TIP3    H125434   1.571   1.511  17.782  0.2445  0.7837 -0.3275
  413TIP3    H225435   1.511   1.514  17.921 -0.1997 -0.4452 -0.4860
  414TIP3   OH225436   5.088   7.084  17.940 -0.0241  0.6188 -0.1175
  414TIP3    H125437   5.128   7.137  18.008 -0.1300  1.3553 -0.6223
  414TIP3    H225438   5.138   7.103  17.861 -0.2146  0.1529 -0.3594
  415TIP3   OH225439   4.213   0.750  17.761 -0.1248  0.5485  0.4481
  415TIP3    H125440   4.295   0.703  17.773 -0.1290  0.8946  2.0674
  415TIP3    H225441   4.197   0.747  17.666  1.6155  0.2888  0.1349
  416TIP3   OH225442   5.075   5.524  17.247 -0.1468  0.1030  0.2577
  416TIP3    H125443   5.129   5.491  17.319 -0.9142 -0.8038  0.4395
  416TIP3    H225444   5.009   5.579  17.290 -1.5373 -1.6279  0.4733
  417TIP3   OH225445   7.026   3.230  16.847  0.7848 -1.0368  0.1235
  417TIP3    H125446   7.117   3.251  16.868  0.9589 -0.6240 -0.9464
  417TIP3    H225447   7.001   3.163  16.910  1.9035 -1.3122  0.2910
  418TIP3   OH225448   2.585   1.792  18.203 -0.6997 -0.1201 -0.3585
  418TIP3    H125449   2.575   1.807  18.297 -0.5294  2.3137 -0.6687
  418TIP3    H225450   2.541   1.867  18.162  1.3990  0.2123 -2.1575
  419TIP3   OH225451   0.193   2.979  19.118 -0.7390 -0.3239  0.3917
  419TIP3    H125452   0.202   3.067  19.080  2.0602 -0.4272  0.5986
  419TIP3    H225453   0.165   2.924  19.045 -1.5861  0.5447  0.0293
  420TIP3   OH225454   5.028   2.394  18.640 -0.2198 -0.5838  0.6710
  420TIP3    H125455   4.964   2.346  18.587 -0.2280 -0.4835  0.5890
  420TIP3    H225456   4.981   2.471  18.671  0.0974 -0.0639 -0.0855
  421TIP3   OH225457   4.493   2.779  17.053  0.0052  0.3857  0.3704
  421TIP3    H125458   4.576   2.732  17.045 -0.3410  0.0359 -1.7007
  421TIP3    H225459   4.426   2.711  17.051 -0.3989  0.7812  0.0362
  422TIP3   OH225460   3.052   4.841  17.868 -0.1392 -0.0353  0.2046
  422TIP3    H125461   2.973   4.815  17.915 -0.1874  0.5382  0.4406
  422TIP3    H225462   3.049   4.936  17.865 -0.1359 -0.0536 -0.9729
  423TIP3   OH225463   1.861   4.193  16.829  0.0275 -0.1267 -0.5053
  423TIP3    H125464   1.792   4.260  16.829 -1.0623 -1.2168 -1.1753
  423TIP3    H225465   1.818   4.114  16.798  1.7499 -0.6866 -1.6396
  424TIP3   OH225466   4.837   2.301  18.468  0.1310  0.5348  0.1593
  424TIP3    H125467   4.831   2.206  18.470  0.4207  0.5203  0.8017
  424TIP3    H225468   4.790   2.327  18.389  2.5569 -0.3423 -1.7212
  425TIP3   OH225469   0.123   2.292  16.291 -0.0137 -0.1104  0.3699
  425TIP3    H125470   0.094   2.375  16.328  1.0802  0.8316 -0.8260
  425TIP3    H225471   0.052   2.231  16.313 -1.0423  1.2149  0.8906
  426TIP3   OH225472   3.257   6.127  17.063  0.6646  0.0377  0.0644
  426TIP3    H125473   3.278   6.187  17.135  1.7859 -1.0139  0.6546
  426TIP3    H225474   3.215   6.182  16.997  0.3311  1.1793  1.1892
  427TIP3   OH225475   7.529   2.724  19.097 -0.3231 -0.8225 -0.6281
  427TIP3    H125476   7.553   2.792  19.034 -0.0239 -0.4887 -0.1685
  427TIP3    H225477   7.607   2.668  19.102  0.7233  0.6773  1.4105
  428TIP3   OH225478   1.644   2.805  16.898  0.8541  0.6599  0.1413
  428TIP3    H125479   1.716   2.851  16.942 -1.2823  1.0066  3.6059
  428TIP3    H225480   1.566   2.831  16.946 -1.0058 -3.4151 -0.2864
  429TIP3   OH225481   6.318   5.353  18.249 -0.2494  0.3002 -0.0345
  429TIP3    H125482   6.380   5.307  18.305  0.2070  1.1934  0.2007
  429TIP3    H225483   6.324   5.308  18.165  3.6282  2.6810 -1.2773
  430TIP3   OH225484   0.156   3.398  19.426 -0.3160 -0.1870 -0.3892
  430TIP3    H125485   0.205   3.474  19.457 -1.4097  0.2059  0.4563
  430TIP3    H225486   0.132   3.419  19.336  3.4229 -1.5905 -1.9083
  431TIP3   OH225487   3.087   4.361  17.096 -0.5644 -0.0716  0.5557
  431TIP3    H125488   3.002   4.332  17.063  0.1270 -1.7570  0.1761
  431TIP3    H225489   3.121   4.287  17.145  1.0565  0.2502 -0.0187
  432TIP3   OH225490   4.499   1.154  18.795 -0.4171  0.1520 -0.2390
  432TIP3    H125491   4.582   1.121  18.830  0.3085  2.0027 -0.0639
  432TIP3    H225492   4.483   1.101  18.717  2.0470  1.0607 -1.4924
  433TIP3   OH225493   5.911   6.006  17.591 -0.1417 -0.0270 -0.3196
  433TIP3    H125494   5.905   5.982  17.684  0.5952  0.3469 -0.1615
  433TIP3    H225495   5.848   5.950  17.547 -1.7072  0.9165  0.6100
  434TIP3   OH225496   3.456   6.625  17.015  0.3709 -0.4027  0.1004
  434TIP3    H125497   3.445   6.584  17.101 -0.0847 -1.6554 -0.5448
  434TIP3    H225498   3.460   6.552  16.954 -2.2425  0.5272 -1.3026
  435TIP3   OH225499   3.343   4.402  17.662  0.3988  0.1392  0.3440
  435TIP3    H125500   3.380   4.388  17.575 -1.4386 -1.8734 -0.1768
  435TIP3    H225501   3.276   4.334  17.672  0.7878  0.0602  3.4821
  436TIP3   OH225502   0.549   2.343  18.808 -0.9114  0.3633 -0.1397
  436TIP3    H125503   0.555   2.258  18.763  0.7487  0.2748  0.1950
  436TIP3    H225504   0.531   2.320  18.899 -1.8723  0.4487 -0.2958
  437TIP3   OH225505   6.895   1.129  16.831 -0.6975 -0.4827  0.1692
  437TIP3    H125506   6.920   1.210  16.788 -0.2300 -0.1477  1.0600
  437TIP3    H225507   6.946   1.061  16.786 -2.0251 -0.4877 -1.4327
  438TIP3   OH225508   3.250   1.207  18.205  0.1297  0.0519 -0.2566
  438TIP3    H125509   3.168   1.255  18.201 -0.4284 -0.8230  0.4151
  438TIP3    H225510   3.282   1.220  18.294  0.3370 -0.2375 -0.2866
  439TIP3   OH225511   6.781   5.484  19.340 -0.6288 -0.5119  0.4997
  439TIP3    H125512   6.829   5.455  19.417  0.9122  0.2618 -0.1226
  439TIP3    H225513   6.738   5.565  19.369  0.8729  0.4051  0.2722
  440TIP3   OH225514   2.879   3.553  16.783  0.2629 -0.2683 -0.7324
  440TIP3    H125515   2.929   3.551  16.701 -0.9567 -0.4537 -1.5044
  440TIP3    H225516   2.890   3.642  16.816 -0.2455  0.2000 -1.7677
  441TIP3   OH225517   2.168   1.103  18.689 -0.0742 -0.1919  0.2348
  441TIP3    H125518   2.242   1.042  18.687 -0.3821 -0.5731  0.2062
  441TIP3    H225519   2.179   1.152  18.770  0.6160  0.2758 -0.1287
  442TIP3   OH225520   3.089   7.219  18.148  0.3663 -0.2032  0.2929
  442TIP3    H125521   3.129   7.234  18.234 -1.5847 -0.3831  1.2880
  442TIP3    H225522   3.163   7.207  18.089  1.7663 -0.1604  1.9574
  443TIP3   OH225523   6.080   3.293  18.499 -0.3558 -0.1792  0.6213
  443TIP3    H125524   6.127   3.376  18.503 -0.3754 -0.1778  0.8248
  443TIP3    H225525   6.021   3.295  18.575 -2.2940  0.8025 -0.8276
  444TIP3   OH225526   3.711   7.536  18.969  0.1790  0.6989  0.1065
  444TIP3    H125527   3.630   7.580  18.997  0.5647  2.3935 -1.2886
  444TIP3    H225528   3.766   7.606  18.935  1.7238 -0.6131 -0.2258
  445TIP3   OH225529   1.518   3.331  17.917 -0.0388 -0.3925  0.1694
  445TIP3    H125530   1.455   3.272  17.876  0.2200  0.9131 -2.3548
  445TIP3    H225531   1.464   3.397  17.961 -0.6607  1.3626 -2.9123
  446TIP3   OH225532   1.933   3.192  18.056  0.2802 -0.2445 -0.5978
  446TIP3    H125533   1.986   3.113  18.068 -1.0706 -0.9213  1.4268
  446TIP3    H225534   1.880   3.175  17.978  1.0581 -0.6681 -1.0508
  447TIP3   OH225535   4.093   4.773  17.666  0.3768  0.2708  0.7680
  447TIP3    H125536   4.169   4.717  17.681  0.9897  1.6150  3.0997
  447TIP3    H225537   4.099   4.841  17.733 -1.2500  2.1824 -0.8788
  448TIP3   OH225538   6.357   2.420  19.420 -0.3033  0.1390  0.2993
  448TIP3    H125539   6.361   2.500  19.367 -0.9578 -0.2796 -0.4188
  448TIP3    H225540   6.446   2.407  19.452 -0.4989  1.9796  1.7049
  449TIP3   OH225541   1.452   1.609  17.651  0.1219  0.1614  0.2727
  449TIP3    H125542   1.398   1.556  17.593  1.7676 -1.3696  0.0603
  449TIP3    H225543   1.389   1.657  17.705 -1.4239 -0.4271 -0.9388
  450TIP3   OH225544   4.332   7.278  17.453 -0.0276 -0.0360  0.6290
  450TIP3    H125545   4.257   7.337  17.465  0.1234  0.1286  0.7755
  450TIP3    H225546   4.306   7.221  17.381 -0.5449 -0.3792  1.0760
  451TIP3   OH225547   3.878   0.386  18.797 -0.0675 -0.2295 -0.5115
  451TIP3    H125548   3.942   0.423  18.735  0.2283  0.7942  0.3640
  451TIP3    H225549   3.893   0.435  18.878 -3.1723  1.3819 -0.7631
  452TIP3   OH225550   3.696   1.348  16.539  0.0190 -1.0647 -0.7062
  452TIP3    H125551   3.728   1.306  16.620  1.9540 -0.0636 -0.8926
  452TIP3    H225552   3.657   1.276  16.489 -0.5267 -1.8412  0.7675
  453TIP3   OH225553   4.534   5.173  19.043 -0.0782 -0.0848 -0.4728
  453TIP3    H125554   4.535   5.081  19.016  0.1742 -0.0173 -0.6941
  453TIP3    H225555   4.542   5.170  19.138 -0.3608 -0.3014 -0.4562
  454TIP3   OH225556   6.919   2.476  19.552  0.5576  0.8064 -0.6761
  454TIP3    H125557   6.885   2.402  19.502  0.0249  0.0089  0.7903
  454TIP3    H225558   6.849   2.541  19.549  0.0590  0.3089 -0.0461
  455TIP3   OH225559   4.001   4.377  17.234  0.0621 -0.0388 -0.0805
  455TIP3    H125560   4.039   4.299  17.194 -1.0671 -0.7536  0.2036
  455TIP3    H225561   4.053   4.391  17.313  0.7191 -0.0777 -0.4958
  456TIP3   OH225562   5.076   4.680  18.762  0.2243  0.4989 -0.1615
  456TIP3    H125563   5.082   4.772  18.740  0.2050 -0.1063 -3.0663
  456TIP3    H225564   5.166   4.654  18.783  0.5225  0.8428 -0.9674
  457TIP3   OH225565   0.424   2.853  17.789  0.0345  0.2057  0.1777
  457TIP3    H125566   0.342   2.873  17.834  0.1536 -0.0019  0.4976
  457TIP3    H225567   0.446   2.764  17.818 -0.7643 -0.6321 -1.6288
  458TIP3   OH225568   5.334   1.947  17.556  0.6518  0.4924 -0.7421
  458TIP3    H125569   5.247   1.929  17.592  0.2281  3.9214  0.2880
  458TIP3    H225570   5.318   1.978  17.467  1.1705 -1.5831 -1.6369
  459TIP3   OH225571   4.181   5.152  19.024 -0.4207  0.3184 -0.2651
  459TIP3    H125572   4.186   5.202  18.942 -2.4088 -0.9669 -1.2395
  459TIP3    H225573   4.107   5.190  19.071 -0.8235 -0.5486 -0.1973
  460TIP3   OH225574   3.588   2.707  17.392  0.7638 -0.9981  0.1011
  460TIP3    H125575   3.679   2.679  17.401  0.6540 -1.9635 -1.4930
  460TIP3    H225576   3.564   2.683  17.303 -0.3010  1.4970 -0.3595
  461TIP3   OH225577   5.327   0.622  18.848 -0.1968 -0.4493  0.4752
  461TIP3    H125578   5.411   0.621  18.802  0.1965 -0.5087  1.1771
  461TIP3    H225579   5.336   0.554  18.915 -2.0333 -2.9234 -1.5919
  462TIP3   OH225580   6.518   1.439  17.553  0.4055  0.2751  0.1125
  462TIP3    H125581   6.480   1.369  17.606 -1.5197  0.6348 -0.7035
  462TIP3    H225582   6.566   1.393  17.484  0.6377 -0.2150  0.5886
  463TIP3   OH225583   2.754   6.619  18.421 -0.1590 -0.0291 -0.0758
  463TIP3    H125584   2.690   6.680  18.457 -1.3077  0.4846 -2.7225
  463TIP3    H225585   2.708   6.535  18.419  0.1261 -0.1938  0.2476
  464TIP3   OH225586   6.181   4.943  17.212 -0.1554 -0.1801 -0.1779
  464TIP3    H125587   6.140   4.886  17.277 -1.3411 -0.1257 -0.8563
  464TIP3    H225588   6.145   4.913  17.128 -1.3926  2.0246 -0.5040
  465TIP3   OH225589   2.212   5.520  19.009 -0.1882 -0.0024  0.1604
  465TIP3    H125590   2.249   5.473  19.083 -0.4168 -0.3219  0.0695
  465TIP3    H225591   2.201   5.453  18.941 -1.1993  0.0300  0.2757
  466TIP3   OH225592   6.616   0.150  18.576 -0.6677  0.6659  0.1714
  466TIP3    H125593   6.601   0.096  18.654 -0.3261 -2.1415 -1.5935
  466TIP3    H225594   6.642   0.235  18.611 -1.2481 -0.2535  3.1195
  467TIP3   OH225595   0.175   6.991  19.276  0.4692 -0.5170  0.0704
  467TIP3    H125596   0.132   6.911  19.306  2.6882 -0.6800  3.3606
  467TIP3    H225597   0.244   6.960  19.217  0.6105 -0.9779  0.4633
  468TIP3   OH225598   6.788   7.484  19.149  0.3356 -0.0231 -0.3720
  468TIP3    H125599   6.847   7.425  19.103  0.2024 -0.8545  0.4919
  468TIP3    H225600   6.729   7.426  19.197 -1.5126  0.7599 -1.5683
  469TIP3   OH225601   6.073   4.381  18.379 -0.1822  0.1302 -0.6634
  469TIP3    H125602   6.005   4.333  18.330 -0.2648 -0.6087  0.1612
  469TIP3    H225603   6.135   4.409  18.312  0.2402 -1.7388 -1.1109
  470TIP3   OH225604   2.835   4.010  19.072  0.9754  0.3032 -0.2819
  470TIP3    H125605   2.905   3.979  19.014  0.3829  0.1023 -0.8958
  470TIP3    H225606   2.843   4.105  19.069  2.5486  0.2662  1.2993
  471TIP3   OH225607   5.144   7.468  16.785  0.0001  0.2276 -0.5494
  471TIP3    H125608   5.075   7.437  16.726 -0.5972  1.3061 -0.4335
  471TIP3    H225609   5.220   7.414  16.763 -1.0369 -1.4219 -0.2366
  472TIP3   OH225610   5.020   2.171  17.835 -0.3087  0.3480 -0.4568
  472TIP3    H125611   5.052   2.132  17.753  0.1975  1.1739 -0.6633
  472TIP3    H225612   5.093   2.160  17.896  0.8138  3.0294 -1.1763
  473TIP3   OH225613   6.950   3.019  18.220 -0.6675 -0.3277 -0.2790
  473TIP3    H125614   7.013   3.075  18.174 -2.0797  0.2211 -1.6712
  473TIP3    H225615   6.980   2.930  18.202  1.1866 -0.1077  1.3416
  474TIP3   OH225616   4.513   5.875  17.616  0.3875  0.1502 -0.3696
  474TIP3    H125617   4.441   5.814  17.598 -1.3586  2.2795 -1.0415
  474TIP3    H225618   4.590   5.833  17.578 -0.4830 -2.1489  0.2235
  475TIP3   OH225619   2.380   5.191  18.337  0.0610  0.2935 -0.0169
  475TIP3    H125620   2.424   5.212  18.419  0.3577 -3.1843  0.9031
  475TIP3    H225621   2.412   5.256  18.275  0.3955  2.5948  2.4137
  476TIP3   OH225622   1.502   1.903  19.359 -0.0027  0.0707 -0.4375
  476TIP3    H125623   1.442   1.854  19.415 -0.8794  3.0533  1.4859
  476TIP3    H225624   1.513   1.849  19.282 -2.6894 -2.0384  0.5066
  477TIP3   OH225625   4.334   5.088  17.699  0.4952  0.1587  0.0472
  477TIP3    H125626   4.428   5.101  17.716  0.2128  0.9066  1.2074
  477TIP3    H225627   4.330   5.008  17.648  1.6768 -0.8033  1.3737
  478TIP3   OH225628   6.598   3.005  17.379  0.0656 -0.0112  0.1964
  478TIP3    H125629   6.660   3.037  17.444  0.2992 -0.5802  0.2601
  478TIP3    H225630   6.635   3.030  17.295  0.9318 -1.2568  0.1812
  479TIP3   OH225631   1.167   0.876  17.901  0.0307  0.1072  0.4655
  479TIP3    H125632   1.185   0.798  17.952  0.2399  0.6639  1.2656
  479TIP3    H225633   1.096   0.920  17.948 -0.1426  0.3587 -0.0215
  480TIP3   OH225634   4.999   7.602  17.224  0.2759 -0.0242 -0.1158
  480TIP3    H125635   5.025   7.538  17.290 -3.0079 -0.2792  1.1380
  480TIP3    H225636   5.067   7.669  17.226  1.4136 -1.1589  1.9139
  481TIP3   OH225637   6.800   6.342  17.112  0.3438 -0.5945  0.1767
  481TIP3    H125638   6.857   6.366  17.039 -1.1462  1.0946 -0.5134
  481TIP3    H225639   6.713   6.335  17.072 -0.0478 -2.6780  1.2740
  482TIP3   OH225640   7.608   4.455  19.276  0.2694  0.5209 -0.5473
  482TIP3    H125641   7.601   4.384  19.212  1.4789 -0.7576  0.6541
  482TIP3    H225642   7.668   4.518  19.236  2.6534 -1.2246  0.0705
  483TIP3   OH225643   1.807   3.734  18.594 -0.0828 -0.0885 -0.7600
  483TIP3    H125644   1.843   3.792  18.528 -2.3112  0.5503 -1.5106
  483TIP3    H225645   1.718   3.767  18.609 -1.2132 -2.8605 -0.7321
  484TIP3   OH225646   4.839   0.210  18.205 -0.2133 -0.7074  0.6254
  484TIP3    H125647   4.832   0.145  18.275 -0.7616  0.6872  1.9122
  484TIP3    H225648   4.750   0.224  18.176 -0.4962  1.3419  2.2031
  485TIP3   OH225649   6.782   6.558  18.242  0.2879  0.1730 -0.1025
  485TIP3    H125650   6.687   6.568  18.234  0.3308  1.2030  0.4381
  485TIP3    H225651   6.798   6.558  18.336  0.7671 -0.7177 -0.1763
  486TIP3   OH225652   3.790   6.770  19.040 -0.1186  0.1639  0.0217
  486TIP3    H125653   3.838   6.705  18.987 -0.2936  2.4126 -3.1999
  486TIP3    H225654   3.850   6.844  19.047 -0.7444  0.5575  1.7077
  487TIP3   OH225655   1.756   4.780  17.891  0.2392  0.2290  0.4774
  487TIP3    H125656   1.708   4.845  17.942  1.1319  0.6778  0.7553
  487TIP3    H225657   1.833   4.826  17.860 -0.2090 -0.0822 -1.1684
  488TIP3   OH225658   2.874   5.565  19.025  0.2064  0.3841  0.1171
  488TIP3    H125659   2.805   5.524  18.973 -0.5160  0.0968  1.2747
  488TIP3    H225660   2.851   5.658  19.026 -0.4833  0.2172  0.9424
  489TIP3   OH225661   1.984   1.984  17.967 -0.2679  0.0848  0.4128
  489TIP3    H125662   2.067   1.943  17.942 -1.0051 -0.7246 -0.8463
  489TIP3    H225663   1.919   1.915  17.954 -1.5389  1.5760 -1.6514
  490TIP3   OH225664   5.530   5.460  17.384  0.2111 -0.3477 -0.2001
  490TIP3    H125665   5.485   5.535  17.345 -1.0631 -0.8905  0.1554
  490TIP3    H225666   5.622   5.484  17.384 -0.1297  1.0378 -0.4801
  491TIP3   OH225667   4.129   5.156  16.850  0.2075 -0.2309  0.6458
  491TIP3    H125668   4.200   5.177  16.911  0.6461  0.2423 -0.0082
  491TIP3    H225669   4.107   5.065  16.869  0.7106 -0.2605  1.1321
  492TIP3   OH225670   1.183   3.568  18.000  0.4469 -0.3618  0.4725
  492TIP3    H125671   1.134   3.487  18.016 -2.1988  1.2153  0.8815
  492TIP3    H225672   1.194   3.608  18.087 -0.4666  0.8766  0.0452
  493TIP3   OH225673   3.648   5.802  18.919 -0.1366 -0.0805  0.3272
  493TIP3    H125674   3.591   5.878  18.919 -0.0624 -0.0027 -0.5895
  493TIP3    H225675   3.612   5.745  18.851 -0.2457 -0.9075  1.0620
  494TIP3   OH225676   0.321   0.530  18.891 -0.3759  0.2768 -0.4766
  494TIP3    H125677   0.337   0.566  18.804 -1.9488 -0.4605 -1.1184
  494TIP3    H225678   0.239   0.482  18.882 -0.1742 -0.4638  1.2343
  495TIP3   OH225679   0.393   4.151  19.420 -0.1234 -0.2436 -0.0134
  495TIP3    H125680   0.471   4.143  19.365  0.7993  0.3658  1.1550
  495TIP3    H225681   0.409   4.090  19.493 -1.2918 -0.9972 -0.3614
  496TIP3   OH225682   5.235   7.306  19.137 -0.8587 -0.1148 -0.6967
  496TIP3    H125683   5.167   7.369  19.162  0.1166  0.4404  0.6335
  496TIP3    H225684   5.317   7.354  19.145 -0.0283 -1.6898  0.9360
  497TIP3   OH225685   6.513   5.192  18.405  0.1398  0.2155 -0.1603
  497TIP3    H125686   6.586   5.206  18.465  0.3566  1.3512 -0.6582
  497TIP3    H225687   6.530   5.106  18.366  0.7842  0.1212  0.3121
  498TIP3   OH225688   0.992   4.168  17.517 -0.6201  0.2243 -0.3848
  498TIP3    H125689   0.973   4.206  17.603  0.1877 -0.9018  0.3121
  498TIP3    H225690   0.914   4.186  17.466 -1.8320 -0.5834  1.1023
  499TIP3   OH225691   7.638   6.487  19.251 -0.1235 -0.2083 -0.1972
  499TIP3    H125692   7.669   6.402  19.222  1.0101  0.1620 -0.1002
  499TIP3    H225693   7.610   6.531  19.170 -0.8499 -0.7100 -0.2308
  500TIP3   OH225694   6.034   7.141  17.972  0.3872 -0.6151  0.0348
  500TIP3    H125695   6.120   7.100  17.971  0.3107 -0.8303  1.0036
  500TIP3    H225696   5.982   7.092  17.909  0.3538 -1.9114  1.0275
  501TIP3   OH225697   1.198   5.341  19.448  0.2296  0.2762  0.0985
  501TIP3    H125698   1.206   5.371  19.357  1.1865  2.5575  0.8648
  501TIP3    H225699   1.279   5.293  19.465 -0.4391 -1.1556 -0.5330
  502TIP3   OH225700   1.605   3.595  19.588  0.0830 -0.0047 -0.2783
  502TIP3    H125701   1.572   3.591  19.678 -0.1966  2.1821 -0.2152
  502TIP3    H225702   1.547   3.658  19.544  1.2945  0.3197 -1.4824
  503TIP3   OH225703   0.799   5.329  18.825  0.3210 -0.3806 -0.5430
  503TIP3    H125704   0.725   5.284  18.867  0.1269 -0.3725 -0.8747
  503TIP3    H225705   0.876   5.278  18.850  0.5034  0.8171  1.6123
  504TIP3   OH225706   1.588   2.617  16.714  0.2966 -0.5563 -0.3657
  504TIP3    H125707   1.495   2.614  16.692  0.7129 -0.8219 -2.2074
  504TIP3    H225708   1.599   2.699  16.762 -0.9794 -0.8276  0.4368
  505TIP3   OH225709   5.794   7.144  18.146 -0.1086 -0.0394 -0.2072
  505TIP3    H125710   5.869   7.169  18.093  0.2693  1.6048  1.0108
  505TIP3    H225711   5.832   7.110  18.227 -0.6566 -3.0401 -1.0678
  506TIP3   OH225712   3.022   1.842  19.306  0.0512  0.0728 -0.2702
  506TIP3    H125713   3.073   1.779  19.357  0.0117 -0.3955 -0.7958
  506TIP3    H225714   3.051   1.828  19.215  1.0778  1.7812 -0.2487
  507TIP3   OH225715   4.397   0.684  17.102  0.3383  0.1242  0.0650
  507TIP3    H125716   4.340   0.617  17.065  0.3696  0.0106  0.2197
  507TIP3    H225717   4.368   0.693  17.193  0.9515 -0.3596  0.3133
  508TIP3   OH225718   6.596   7.288  19.185 -0.2781  0.1780 -0.6246
  508TIP3    H125719   6.516   7.331  19.217 -0.3228  1.3931 -2.2352
  508TIP3    H225720   6.565   7.205  19.148 -0.6217  0.1314 -0.2473
  509TIP3   OH225721   2.503   1.725  19.214  0.2609 -0.9144 -0.4066
  509TIP3    H125722   2.449   1.728  19.293 -0.6678  0.2508 -1.0650
  509TIP3    H225723   2.593   1.724  19.247 -0.0850  0.4025  0.6626
  510TIP3   OH225724   4.352   6.478  18.792 -0.2523 -0.2055 -0.8955
  510TIP3    H125725   4.278   6.529  18.758 -0.1357 -0.0577 -0.9290
  510TIP3    H225726   4.313   6.416  18.853 -0.1313  1.5864  1.0850
  511TIP3   OH225727   3.809   6.165  19.058  0.1805  0.1247  0.2829
  511TIP3    H125728   3.765   6.247  19.034 -0.9941 -0.4897  0.2526
  511TIP3    H225729   3.760   6.132  19.133  1.3081 -0.0327  0.9789
  512TIP3   OH225730   3.773   3.129  18.870 -0.4831 -0.0252  0.1046
  512TIP3    H125731   3.687   3.145  18.909 -0.0022 -0.0046  1.1874
  512TIP3    H225732   3.820   3.077  18.935  0.5519  0.5061 -0.1969
  513TIP3   OH225733   1.488   1.743  18.626 -0.4138 -0.0089 -0.3584
  513TIP3    H125734   1.421   1.703  18.683 -1.7639  0.4648 -1.5591
  513TIP3    H225735   1.455   1.730  18.538  0.7899  0.8138 -0.9539
  514TIP3   OH225736   0.537   4.063  17.200  0.1247  0.5380  0.2645
  514TIP3    H125737   0.583   4.072  17.117 -1.6225  1.0418 -0.6861
  514TIP3    H225738   0.577   3.987  17.241  2.4093  1.4655 -0.0701
  515TIP3   OH225739   1.989   7.133  18.635 -0.1997  0.0683  0.2531
  515TIP3    H125740   1.999   7.124  18.730  2.6638  0.6913  0.1237
  515TIP3    H225741   1.991   7.227  18.619 -0.4774 -0.0368 -0.4432
  516TIP3   OH225742   0.679   2.836  18.010  0.2442 -0.0970  0.0798
  516TIP3    H125743   0.663   2.838  17.916 -0.8515  0.1673  0.2588
  516TIP3    H225744   0.703   2.746  18.028  0.5960 -0.1176 -0.4753
  517TIP3   OH225745   6.504   2.908  16.921 -0.0536 -0.1394 -0.0055
  517TIP3    H125746   6.419   2.928  16.881 -0.8908 -0.4976  1.4999
  517TIP3    H225747   6.515   2.814  16.906 -1.1502 -0.6224  1.9228
  518TIP3   OH225748   5.340   0.177  17.697  0.2426 -0.1315  0.3206
  518TIP3    H125749   5.326   0.153  17.605  0.8307  1.7581 -0.3230
  518TIP3    H225750   5.270   0.132  17.744 -0.4949 -0.6041 -1.1434
  519TIP3   OH225751   2.210   0.574  19.255  0.3836 -0.2180 -0.8979
  519TIP3    H125752   2.228   0.522  19.176  1.2135 -3.1589  1.0613
  519TIP3    H225753   2.168   0.513  19.315 -0.6460  2.0446  0.8240
  520TIP3   OH225754   2.235   4.441  18.621  0.2912  0.1246 -0.2883
  520TIP3    H125755   2.184   4.504  18.671  0.1625 -0.8291  0.8205
  520TIP3    H225756   2.302   4.409  18.682 -0.9476 -2.3502 -0.1008
  521TIP3   OH225757   3.178   2.742  17.317  1.0214  0.2639 -0.4900
  521TIP3    H125758   3.241   2.806  17.284  0.9069  0.5961 -0.0869
  521TIP3    H225759   3.125   2.718  17.241  0.5003  1.3175 -0.4901
  522TIP3   OH225760   6.052   6.359  18.438  0.0147 -0.0352 -0.2792
  522TIP3    H125761   5.975   6.369  18.381  0.4929  0.0320 -0.9247
  522TIP3    H225762   6.089   6.274  18.413 -0.0729 -0.2575  0.3192
  523TIP3   OH225763   1.272   7.157  18.286  0.1628  0.1339 -0.3699
  523TIP3    H125764   1.302   7.150  18.195  1.5764  0.1970  0.0663
  523TIP3    H225765   1.321   7.089  18.332 -1.5531 -0.8308  0.1357
  524TIP3   OH225766   7.251   1.895  18.395  0.1795  0.0872  0.3017
  524TIP3    H125767   7.261   1.823  18.457  0.5254 -1.1057 -1.0945
  524TIP3    H225768   7.336   1.939  18.396  0.1669  0.1123  0.6929
  525TIP3   OH225769   7.196   2.498  17.992 -0.1371 -0.1760 -0.0813
  525TIP3    H125770   7.190   2.577  18.047 -1.5803  1.0743 -1.9385
  525TIP3    H225771   7.158   2.429  18.046 -2.7794  1.2919  0.1142
  526TIP3   OH225772   3.976   1.171  19.648 -0.5363  0.1687  0.5731
  526TIP3    H125773   3.992   1.202  19.737  0.6468 -0.8366  0.7389
  526TIP3    H225774   3.961   1.251  19.597  0.3138  0.8703  1.3829
  527TIP3   OH225775   4.126   7.290  18.143  0.0248 -0.5340  0.0532
  527TIP3    H125776   4.074   7.320  18.068 -0.9316 -1.1950  0.4359
  527TIP3    H225777   4.062   7.282  18.214  0.7307 -0.9790  0.6459
  528TIP3   OH225778   4.891   1.120  18.698  0.0768  0.4288  0.7029
  528TIP3    H125779   4.852   1.033  18.701  1.6399 -0.2818  1.6136
  528TIP3    H225780   4.981   1.107  18.730  1.1344  1.9421 -1.4088
  529TIP3   OH225781   1.597   5.539  19.360  0.4594 -0.0766  0.2818
  529TIP3    H125782   1.607   5.633  19.377  0.8508 -0.2498  1.0342
  529TIP3    H225783   1.681   5.501  19.383  0.2350 -0.6463  0.1825
  530TIP3   OH225784   1.073   3.180  19.411 -0.1990  0.3229  0.1770
  530TIP3    H125785   0.983   3.170  19.382  0.8274 -1.9000 -2.7752
  530TIP3    H225786   1.092   3.100  19.460  0.1875  0.7488  0.7340
  531TIP3   OH225787   6.387   4.029  18.458  0.3607 -0.0921  0.1667
  531TIP3    H125788   6.350   4.101  18.406  1.2452  0.4839  0.3113
  531TIP3    H225789   6.459   3.996  18.405  0.7281 -0.0603  0.6405
  532TIP3   OH225790   1.699   7.626  18.478  0.2896  0.0533  0.1970
  532TIP3    H125791   1.605   7.637  18.494  0.0322  0.6881 -1.5516
  532TIP3    H225792   1.740   7.696  18.529 -0.3296  0.7995 -0.3050
  533TIP3   OH225793   1.130   1.458  17.180 -0.3152 -0.0961 -0.1368
  533TIP3    H125794   1.059   1.399  17.153 -1.0877 -0.3243  2.1825
  533TIP3    H225795   1.184   1.467  17.102 -4.0912  1.9542 -2.8233
  534TIP3   OH225796   5.377   4.473  19.704 -0.3594 -0.3128  0.4705
  534TIP3    H125797   5.281   4.475  19.698 -0.3267 -0.4745 -0.1192
  534TIP3    H225798   5.407   4.474  19.613  0.2247  1.0649  0.6546
  535TIP3   OH225799   2.796   7.126  18.411 -0.1805 -0.0585 -0.0784
  535TIP3    H125800   2.733   7.054  18.411 -0.2948  0.0416  0.3517
  535TIP3    H225801   2.873   7.090  18.366 -0.0801 -0.5856  0.5060
  536TIP3   OH225802   3.962   7.122  18.745 -0.2608 -0.2308  0.2728
  536TIP3    H125803   3.911   7.202  18.737 -1.7283 -1.0335  1.1218
  536TIP3    H225804   3.903   7.060  18.788  1.0693 -1.5534  0.2843
  537TIP3   OH225805   3.557   0.488  16.878  0.1295  0.3225  0.5885
  537TIP3    H125806   3.477   0.540  16.893 -0.8261 -0.8131 -0.3645
  537TIP3    H225807   3.528   0.416  16.822  1.4133 -1.2600  1.8666
  538TIP3   OH225808   6.856   5.006  18.415 -0.2329 -0.3403  0.3455
  538TIP3    H125809   6.931   5.064  18.431 -0.3182 -0.2702  0.4942
  538TIP3    H225810   6.786   5.043  18.468 -0.2925 -0.5688  0.4254
  539TIP3   OH225811   6.667   0.074  16.727  0.1665  0.0553  0.6647
  539TIP3    H125812   6.580   0.058  16.691  0.2558 -0.9567  0.8795
  539TIP3    H225813   6.707  -0.013  16.733  2.5273  0.7058 -2.7216
  540TIP3   OH225814   0.202   6.791  18.938  0.0958 -0.3247  0.4494
  540TIP3    H125815   0.174   6.879  18.914  0.0014 -0.3910  0.3130
  540TIP3    H225816   0.297   6.795  18.942  0.0888 -0.2053  0.4900
  541TIP3   OH225817   7.278   3.862  18.430 -0.1213  0.4282 -0.2316
  541TIP3    H125818   7.221   3.932  18.464  0.8563  0.4354  1.5457
  541TIP3    H225819   7.248   3.783  18.475  0.6548  0.2592 -0.0026
  542TIP3   OH225820   3.489   5.054  19.341 -0.6322  0.1121 -0.3700
  542TIP3    H125821   3.444   5.129  19.382 -2.1003  0.3220 -2.2081
  542TIP3    H225822   3.429   5.026  19.272  0.9532 -1.3117 -1.2225
  543TIP3   OH225823   3.848   0.794  18.291 -0.0791  0.2546  0.3737
  543TIP3    H125824   3.841   0.866  18.353  0.7606  0.5015  0.1988
  543TIP3    H225825   3.886   0.833  18.213  2.9858 -0.8129  1.1803
  544TIP3   OH225826   5.106   6.317  18.020 -0.0931  0.1340 -0.0433
  544TIP3    H125827   5.116   6.241  18.078 -1.4673  1.0738  1.4958
  544TIP3    H225828   5.156   6.386  18.062 -1.7213  1.0403  0.4806
  545TIP3   OH225829   4.989   1.598  16.923  0.0339 -0.1531 -0.5906
  545TIP3    H125830   5.020   1.521  16.876  0.7619  0.1000 -0.5349
  545TIP3    H225831   4.980   1.665  16.856  1.2381  0.2581 -0.3646
  546TIP3   OH225832   1.888   5.316  19.208 -0.1223  0.0218  0.7301
  546TIP3    H125833   1.860   5.293  19.297  0.4134 -0.2332  0.8349
  546TIP3    H225834   1.963   5.374  19.221 -0.8316  1.0141  0.4480
  547TIP3   OH225835   7.482   0.222  16.597  0.1053 -0.3491 -0.2587
  547TIP3    H125836   7.523   0.136  16.600  1.2372  0.2086  1.6082
  547TIP3    H225837   7.555   0.283  16.582 -0.4730  0.4063 -0.0831
  548TIP3   OH225838   4.220   0.524  16.965 -0.1853  0.1812  0.5623
  548TIP3    H125839   4.262   0.475  16.895  0.3534  0.6323  0.5673
  548TIP3    H225840   4.165   0.588  16.920  1.4240  1.5830  0.5080
  549TIP3   OH225841   6.315   5.893  19.228  0.3693 -0.4442 -0.7630
  549TIP3    H125842   6.231   5.928  19.198 -0.6344 -1.6639  0.4416
  549TIP3    H225843   6.331   5.818  19.171 -1.0358 -2.1503  0.9115
  550TIP3   OH225844   2.647   7.502  17.111  0.0111 -0.0880 -0.2660
  550TIP3    H125845   2.612   7.418  17.141 -1.2240  0.1429 -1.0247
  550TIP3    H225846   2.638   7.500  17.016 -0.4632  1.0813 -0.2591
  551TIP3   OH225847   0.319   2.121  18.768 -0.2279 -0.9094  0.7531
  551TIP3    H125848   0.383   2.101  18.700  0.0085  1.5982  0.1461
  551TIP3    H225849   0.268   2.041  18.778  1.3363 -2.1359 -0.5767
  552TIP3   OH225850   7.643   5.581  17.972  0.1942  0.1127 -0.2892
  552TIP3    H125851   7.681   5.557  17.888 -0.9487  0.9094 -1.0800
  552TIP3    H225852   7.717   5.605  18.027  0.8884  0.9757 -1.5542
  553TIP3   OH225853   6.610   2.208  18.795 -0.1040  0.7519 -0.5898
  553TIP3    H125854   6.675   2.157  18.844 -0.6126  0.0807 -0.6146
  553TIP3    H225855   6.662   2.273  18.748  0.4810  0.7631  0.0520
  554TIP3   OH225856   0.313   6.042  17.421 -0.3715 -0.0820 -0.3426
  554TIP3    H125857   0.394   6.005  17.388 -0.8877 -2.1766  0.5777
  554TIP3    H225858   0.294   6.115  17.362  2.7150  1.2250  0.0650
  555TIP3   OH225859   6.892   6.999  19.033 -0.0508  0.7869  0.5137
  555TIP3    H125860   6.934   6.986  19.118 -0.3310  0.5811  0.6217
  555TIP3    H225861   6.920   7.086  19.005  0.3332  0.7110  0.6514
  556TIP3   OH225862   0.150   1.139  17.172  0.1770 -0.0099 -0.4564
  556TIP3    H125863   0.106   1.070  17.124  1.8547 -1.4294 -0.0755
  556TIP3    H225864   0.149   1.109  17.263  0.1329  0.9050 -0.1474
  557TIP3   OH225865   1.824   1.487  17.948 -0.0196 -0.3532  0.2952
  557TIP3    H125866   1.874   1.429  17.891 -0.5421 -2.2441  1.6791
  557TIP3    H225867   1.733   1.475  17.921  0.0140  1.9080 -1.1654
  558TIP3   OH225868   2.599   6.063  19.363 -1.0193  0.0227  0.4924
  558TIP3    H125869   2.531   6.119  19.400 -0.7733  0.1182  0.8156
  558TIP3    H225870   2.553   5.986  19.331 -1.4432  0.7152 -0.5935
  559TIP3   OH225871   5.037   3.740  19.631 -0.3145 -0.3404 -0.0355
  559TIP3    H125872   5.064   3.764  19.543 -0.7348  1.9803  0.3920
  559TIP3    H225873   4.942   3.742  19.629 -0.3232  0.4023  0.6062
  560TIP3   OH225874   3.238   0.246  18.334 -0.3180 -0.2679  0.1618
  560TIP3    H125875   3.296   0.234  18.408  0.1088 -0.0045 -0.1275
  560TIP3    H225876   3.153   0.266  18.373  0.0894  0.7192  0.5728
  561TIP3   OH225877   4.132   5.527  18.071 -0.1265 -0.2284  0.2598
  561TIP3    H125878   4.147   5.620  18.089  0.0980 -0.0483 -0.7946
  561TIP3    H225879   4.047   5.524  18.028 -1.2650 -0.7950  2.3965
  562TIP3   OH225880   1.905   5.802  17.389  0.1999 -0.4302 -0.4888
  562TIP3    H125881   1.981   5.852  17.360  0.6702 -0.5416  0.5180
  562TIP3    H225882   1.894   5.734  17.323  0.7536 -0.1965 -0.8277
  563TIP3   OH225883   2.022   1.586  17.635  0.2454 -0.1429  0.0203
  563TIP3    H125884   2.085   1.551  17.572 -1.5059 -2.4098 -0.5942
  563TIP3    H225885   1.966   1.645  17.584  0.5817  0.2511  0.1051
  564TIP3   OH225886   0.674   5.675  18.143  0.0002  0.5052  0.4354
  564TIP3    H125887   0.679   5.756  18.093 -0.5561  0.6371  0.5891
  564TIP3    H225888   0.639   5.700  18.228  0.0999  0.1457  0.5883
  565TIP3   OH225889   7.491   7.263  18.195  0.0583 -0.2459 -0.0061
  565TIP3    H125890   7.491   7.168  18.193  0.8327 -0.2540 -1.7969
  565TIP3    H225891   7.406   7.288  18.159 -0.9670 -0.1984  2.2673
  566TIP3   OH225892   3.432   3.172  17.937 -0.4165  0.2464  0.0063
  566TIP3    H125893   3.447   3.163  18.031  0.5649  1.4427 -0.0165
  566TIP3    H225894   3.354   3.227  17.930  0.6650  1.8749  0.1581
  567TIP3   OH225895   3.423   2.866  19.368 -0.1504  0.5787 -0.3159
  567TIP3    H125896   3.347   2.917  19.395  0.3759  1.1721  0.0652
  567TIP3    H225897   3.497   2.909  19.411  0.3844 -0.0664 -0.5829
  568TIP3   OH225898   5.944   5.532  18.982 -0.1016  0.2328 -0.4418
  568TIP3    H125899   6.000   5.594  19.028 -1.9349  1.8610 -0.2376
  568TIP3    H225900   5.916   5.579  18.903 -0.7943 -0.6976 -0.7701
  569TIP3   OH225901   1.779   2.491  16.881 -0.3894 -0.4005 -0.2681
  569TIP3    H125902   1.713   2.531  16.824 -2.0604 -1.9515  0.4851
  569TIP3    H225903   1.778   2.544  16.960  0.0672  0.2086 -0.6582
  570TIP3   OH225904   1.330   2.025  17.757  0.2362 -0.5632 -0.3230
  570TIP3    H125905   1.252   2.063  17.797 -1.3902 -2.3044 -1.7181
  570TIP3    H225906   1.324   1.931  17.775  2.6479 -0.6288  0.5355
  571TIP3   OH225907   0.761   2.834  18.991  0.3885 -0.3116  0.7057
  571TIP3    H125908   0.804   2.757  18.952 -0.9873 -0.4677 -0.6154
  571TIP3    H225909   0.790   2.834  19.082  0.1650 -2.6267  0.8542
  572TIP3   OH225910   5.025   7.458  18.829  0.2868  0.2101 -0.1354
  572TIP3    H125911   5.086   7.407  18.883  0.4174  0.3630 -0.1369
  572TIP3    H225912   5.060   7.451  18.740  0.2057  0.1541 -0.1633
  573TIP3   OH225913   6.593   6.851  19.394 -0.2428  0.2269 -0.5504
  573TIP3    H125914   6.518   6.905  19.418 -0.5267 -0.4665  0.1778
  573TIP3    H225915   6.658   6.913  19.359 -0.9859  0.8831 -0.7950
  574TIP3   OH225916   3.482   7.369  17.204  0.3510 -0.7201  0.1403
  574TIP3    H125917   3.480   7.374  17.109  4.9895  1.5242 -0.1252
  574TIP3    H225918   3.446   7.453  17.233  2.6226  0.3702  0.0198
  575TIP3   OH225919   3.009   3.930  18.845 -0.0540 -1.1953  0.3086
  575TIP3    H125920   3.057   3.847  18.845  0.0202 -1.1533  0.9367
  575TIP3    H225921   3.018   3.962  18.755 -1.2690 -2.5474 -0.3393
  576TIP3   OH225922   5.035   5.785  19.330  0.5675 -0.2900 -0.6569
  576TIP3    H125923   4.982   5.810  19.255 -0.2655  2.6735  0.7847
  576TIP3    H225924   4.977   5.729  19.382 -0.4730  1.2099 -0.1366
  577TIP3   OH225925   4.853   3.054  19.647 -0.1413 -0.4503 -0.4219
  577TIP3    H125926   4.821   3.144  19.649 -0.3067 -0.5081 -0.4286
  577TIP3    H225927   4.778   3.001  19.673  0.7601 -0.3618  2.8136
  578TIP3   OH225928   7.494   6.590  19.053  0.3980 -0.2606 -0.1324
  578TIP3    H125929   7.402   6.575  19.031  0.1743 -0.2725  0.7769
  578TIP3    H225930   7.503   6.685  19.060  0.3901 -0.2722  0.0428
  579TIP3   OH225931   5.458   6.621  19.097  0.3237 -0.4413 -0.2126
  579TIP3    H125932   5.405   6.595  19.173 -0.5207 -0.0984 -0.6703
  579TIP3    H225933   5.500   6.541  19.068 -1.7109 -1.2418 -1.1990
  580TIP3   OH225934   5.854   4.136  17.864 -0.9188  0.6917 -0.0265
  580TIP3    H125935   5.935   4.088  17.846 -0.9384 -0.2031  2.0097
  580TIP3    H225936   5.843   4.193  17.788  1.9610  1.3313 -0.0924
  581TIP3   OH225937   2.055   2.563  18.098 -0.5529  0.1955 -0.2110
  581TIP3    H125938   2.094   2.484  18.136  0.0705  0.3558 -0.5054
  581TIP3    H225939   2.121   2.631  18.110 -0.0661  0.1145 -2.0968
  582TIP3   OH225940   1.116   4.629  18.786 -0.0178  0.2785 -0.4471
  582TIP3    H125941   1.098   4.630  18.693  0.8181 -0.8961 -0.6539
  582TIP3    H225942   1.209   4.608  18.792 -0.5856 -2.2979  0.6530
  583TIP3   OH225943   5.170   1.072  19.261  0.6073 -0.2833  0.2510
  583TIP3    H125944   5.108   1.017  19.213  0.1903  0.2030  0.2270
  583TIP3    H225945   5.257   1.039  19.236  0.5196  1.2379 -2.4681
  584TIP3   OH225946   6.423   3.606  18.849 -0.3652  0.5974  0.5972
  584TIP3    H125947   6.434   3.511  18.850 -1.7334  0.4195  1.3574
  584TIP3    H225948   6.511   3.640  18.867  0.5459 -0.4424 -1.5686
  585TIP3   OH225949   7.444   2.867  19.319  0.3246  0.6115  0.6961
  585TIP3    H125950   7.479   2.831  19.237 -1.0331  0.2500  0.2460
  585TIP3    H225951   7.392   2.796  19.357 -1.2735  1.6129  0.4832
  586TIP3   OH225952   0.182   0.043  16.758  0.0460  0.1339  0.0887
  586TIP3    H125953   0.161   0.118  16.814  1.4071  0.0102  0.7796
  586TIP3    H225954   0.119   0.051  16.685 -0.8107  1.0931  0.8890
  587TIP3   OH225955   5.469   6.340  18.855 -0.2963 -0.6135 -0.0148
  587TIP3    H125956   5.392   6.386  18.822  0.7190  0.7385 -0.5940
  587TIP3    H225957   5.444   6.247  18.852 -0.6616 -0.5595 -3.7868
  588TIP3   OH225958   6.968   5.176  16.652 -0.7834 -0.1102 -0.6412
  588TIP3    H125959   6.922   5.142  16.728  0.2908 -0.9790 -0.3501
  588TIP3    H225960   6.939   5.122  16.579 -0.8677 -0.0978 -0.6160
  589TIP3   OH225961   4.035   6.960  19.029  0.0541 -0.3322 -0.0494
  589TIP3    H125962   4.082   6.925  19.105  1.0180  2.9273  1.0129
  589TIP3    H225963   4.103   7.001  18.976 -1.2453  3.4673  0.9293
  590TIP3   OH225964   6.915   1.375  19.396 -0.2253 -0.1513 -0.3115
  590TIP3    H125965   6.834   1.358  19.349  0.8203 -2.1115 -1.5224
  590TIP3    H225966   6.984   1.354  19.333  1.2773  2.4869  0.3052
  591TIP3   OH225967   1.411   7.472  18.259 -0.1545 -0.0354 -0.2011
  591TIP3    H125968   1.468   7.403  18.294  1.2024  0.9940 -0.3051
  591TIP3    H225969   1.413   7.541  18.325  3.5378  2.5494 -2.6153
  592TIP3   OH225970   6.136   1.462  18.512  0.2194  0.1218 -0.2613
  592TIP3    H125971   6.044   1.483  18.493 -0.2365 -1.5300 -0.0591
  592TIP3    H225972   6.141   1.459  18.607  0.5666  0.5508 -0.2665
  593TIP3   OH225973   0.644   4.029  18.906  0.6114  0.6450 -0.1350
  593TIP3    H125974   0.603   4.079  18.835 -1.4259 -1.6651 -0.6895
  593TIP3    H225975   0.676   3.949  18.864  0.3196 -0.2943  1.3683
  594TIP3   OH225976   5.971   5.698  17.771 -0.3470  0.4571  0.6090
  594TIP3    H125977   5.917   5.668  17.698 -1.1366  2.2915  0.3684
  594TIP3    H225978   6.058   5.712  17.733 -0.2198 -0.5642  0.5147
  595TIP3   OH225979   3.067   7.658  18.794 -0.0647  0.4341 -0.2061
  595TIP3    H125980   3.159   7.659  18.769  0.1190 -1.7580  0.1442
  595TIP3    H225981   3.031   7.740  18.760  2.4116  2.3171  1.3620
  596TIP3   OH225982   0.201   7.223  18.013 -0.1471 -0.0521 -0.1793
  596TIP3    H125983   0.121   7.169  18.007 -0.4341  0.4502 -0.9280
  596TIP3    H225984   0.189   7.273  18.094 -0.6596  0.1263 -0.3596
  597TIP3   OH225985   3.682   7.339  19.131 -0.8123 -0.0032 -0.6617
  597TIP3    H125986   3.588   7.317  19.129 -0.8534  0.1725 -2.4264
  597TIP3    H225987   3.689   7.416  19.074  0.3488  0.2926 -0.1371
  598TIP3   OH225988   6.431   4.272  18.609  0.2714  0.2224  0.2219
  598TIP3    H125989   6.411   4.290  18.517  0.4817  1.7720  0.4478
  598TIP3    H225990   6.484   4.347  18.636  0.3763 -0.3179  1.5627
  599TIP3   OH225991   4.748   1.216  18.953 -0.0603 -0.5471  0.2829
  599TIP3    H125992   4.837   1.250  18.958 -0.1666 -0.0120 -1.1401
  599TIP3    H225993   4.705   1.249  19.032  0.9504 -0.7129  0.9205
  600TIP3   OH225994   3.478   2.541  17.997  0.2428  0.3144  0.2462
  600TIP3    H125995   3.429   2.614  17.961  1.5762  1.0087 -0.2081
  600TIP3    H225996   3.497   2.485  17.922 -0.6605 -0.4488  0.5721
  601TIP3   OH225997   6.855   4.669  19.626 -0.1687  0.1083 -0.0473
  601TIP3    H125998   6.944   4.704  19.628  0.2114 -0.8042 -0.4665
  601TIP3    H225999   6.866   4.577  19.602 -1.2836  0.1817 -0.9080
  602TIP3   OH226000   5.872   0.493  18.557 -0.5260 -0.0324  0.1612
  602TIP3    H126001   5.947   0.535  18.516 -1.4057 -0.4446 -1.9940
  602TIP3    H226002   5.822   0.565  18.597 -0.1085  0.4994 -0.2721
  603TIP3   OH226003   1.410   2.425  18.288 -0.6094  0.5772  0.1397
  603TIP3    H126004   1.440   2.457  18.374  1.3546 -0.9025  0.0752
  603TIP3    H226005   1.489   2.428  18.233 -0.8695 -2.0971 -0.4990
  604TIP3   OH226006   4.726   2.422  18.264 -0.4561  0.2941  0.2915
  604TIP3    H126007   4.686   2.338  18.243 -1.6824  0.9539 -0.1325
  604TIP3    H226008   4.800   2.430  18.204 -1.3015  0.2189 -0.7944
  605TIP3   OH226009   0.899   5.941  17.822 -0.0276  0.3843  0.3196
  605TIP3    H126010   0.824   5.899  17.780 -0.5083  0.9599  0.5762
  605TIP3    H226011   0.974   5.915  17.769 -0.2184 -1.2264  0.7774
  606TIP3   OH226012   3.571   7.012  19.227  0.1216 -0.6580 -0.3133
  606TIP3    H126013   3.509   7.073  19.186 -0.6621  0.5079  2.3810
  606TIP3    H226014   3.649   7.065  19.244 -1.0072  0.1163  3.1627
  607TIP3   OH226015   3.481   0.912  17.104 -0.1161  0.3071 -0.3096
  607TIP3    H126016   3.501   0.961  17.024  1.3071 -0.6493 -0.5685
  607TIP3    H226017   3.388   0.931  17.120 -0.3184  0.8860 -1.9330
  608TIP3   OH226018   2.913   3.645  17.126 -0.0416 -0.8442 -0.0950
  608TIP3    H126019   2.951   3.662  17.040  2.1305 -0.6733  0.8340
  608TIP3    H226020   2.988   3.626  17.182 -1.3761 -0.7531  1.8195
  609TIP3   OH226021   6.770   6.652  18.507 -0.0301  0.1901  0.2621
  609TIP3    H126022   6.845   6.697  18.547 -0.7781  0.9950  0.7701
  609TIP3    H226023   6.729   6.604  18.579 -0.3917  0.2800  0.1150
  610TIP3   OH226024   3.210   5.657  18.175  0.6114  0.0061  0.2296
  610TIP3    H126025   3.265   5.674  18.251 -0.4818 -0.4748  1.1530
  610TIP3    H226026   3.228   5.566  18.152  1.5004  0.3719 -0.5690
  611TIP3   OH226027   1.305   3.825  17.955 -0.1564  0.0787  0.0188
  611TIP3    H126028   1.226   3.787  17.992  0.1597 -0.1318  0.4828
  611TIP3    H226029   1.276   3.865  17.873 -0.4956 -1.1859 -0.5044
  612TIP3   OH226030   2.584   5.359  19.518  0.3287 -0.0395  0.4813
  612TIP3    H126031   2.525   5.290  19.549 -0.4501 -0.1753 -1.1717
  612TIP3    H226032   2.624   5.323  19.439  0.0321  1.3081 -0.3320
  613TIP3   OH226033   2.020   6.427  19.025  0.1341 -0.5617  0.6652
  613TIP3    H126034   2.051   6.360  18.965  0.2384  0.7705 -0.8393
  613TIP3    H226035   2.093   6.441  19.086  1.3634  0.3761 -0.9499
  614TIP3   OH226036   4.819   4.295  18.750  0.2776 -0.1542 -0.0489
  614TIP3    H126037   4.888   4.336  18.698  1.5962 -2.2418 -0.0393
  614TIP3    H226038   4.865   4.239  18.812 -1.3803 -1.7981 -0.2041
  615TIP3   OH226039   1.191   3.328  18.757  0.2513 -0.5249 -0.1785
  615TIP3    H126040   1.173   3.243  18.717 -0.2617  0.7137 -2.7862
  615TIP3    H226041   1.279   3.350  18.728  0.6608 -0.4249  1.0660
  616TIP3   OH226042   3.038   7.295  17.853  0.5458  0.2346  0.0467
  616TIP3    H126043   2.976   7.360  17.885  0.8156 -0.0183  1.0955
  616TIP3    H226044   3.121   7.342  17.845  0.7233  0.0421  0.7320
  617TIP3   OH226045   5.443   1.535  18.879  0.1833  0.2206 -0.3024
  617TIP3    H126046   5.477   1.624  18.889  1.8510 -0.2727 -1.2424
  617TIP3    H226047   5.349   1.543  18.895  0.3450  2.1017 -0.1311
  618TIP3   OH226048   5.644   5.247  18.853  0.0354  0.3593 -0.4660
  618TIP3    H126049   5.684   5.205  18.777  0.7489  0.8889 -0.3920
  618TIP3    H226050   5.705   5.228  18.925 -1.9325 -2.4877  0.6362
  619TIP3   OH226051   2.821   1.024  17.592  0.8758  0.1084 -0.1314
  619TIP3    H126052   2.728   1.047  17.595  0.9045  0.6515 -2.1404
  619TIP3    H226053   2.826   0.950  17.532  1.5371 -1.2749  1.5579
  620TIP3   OH226054   1.949   5.148  18.383  0.1575 -0.6392 -0.1300
  620TIP3    H126055   1.940   5.221  18.321  1.8796 -0.0688  0.2434
  620TIP3    H226056   1.875   5.159  18.443 -0.8800 -0.5307 -1.3737
  621TIP3   OH226057   4.312   3.515  17.782  0.0661 -1.0247  0.1846
  621TIP3    H126058   4.371   3.458  17.732 -0.4893 -1.7795  0.3621
  621TIP3    H226059   4.363   3.594  17.799 -0.8535  1.1119 -4.9107
  622TIP3   OH226060   0.842   7.516  16.961  0.0774  0.2727  0.6573
  622TIP3    H126061   0.900   7.472  16.900  0.1597 -0.4808  1.2597
  622TIP3    H226062   0.795   7.445  17.005 -0.5650  0.8301  0.8934
  623TIP3   OH226063   2.837   6.316  18.204 -0.3426  0.1373 -0.5942
  623TIP3    H126064   2.771   6.375  18.168  1.2852  1.9515 -0.7699
  623TIP3    H226065   2.902   6.374  18.243  1.2783 -1.5547 -0.6575
  624TIP3   OH226066   3.601   1.813  17.701  0.6106 -0.5536  0.3603
  624TIP3    H126067   3.692   1.834  17.682  1.4906 -3.5567  0.7578
  624TIP3    H226068   3.591   1.831  17.794  0.8049 -0.2289  0.3176
  625TIP3   OH226069   4.269   2.654  18.371 -0.4557  0.2023  0.4426
  625TIP3    H126070   4.252   2.560  18.366 -0.8962  0.3341 -0.8890
  625TIP3    H226071   4.194   2.695  18.329  1.2639  0.9729 -2.1108
  626TIP3   OH226072   2.447   4.141  17.837  0.1187 -0.0121  0.2488
  626TIP3    H126073   2.427   4.131  17.930  1.0518  1.5191  0.6704
  626TIP3    H226074   2.539   4.115  17.829  1.6085  4.2087  0.7944
  627TIP3   OH226075   5.817   3.483  16.893 -0.2022 -0.3360 -0.0022
  627TIP3    H126076   5.737   3.457  16.847 -0.0549  0.5560 -0.7868
  627TIP3    H226077   5.791   3.486  16.985 -0.8209 -0.9663 -0.1412
  628TIP3   OH226078   1.716   6.621  17.496 -0.4721 -0.4726  0.0754
  628TIP3    H126079   1.696   6.586  17.409 -0.4865 -0.1910 -0.0379
  628TIP3    H226080   1.675   6.707  17.496  0.0192 -0.2358  0.1513
  629TIP3   OH226081   0.230   4.748  18.590  0.4868  0.0295 -0.4263
  629TIP3    H126082   0.160   4.688  18.616 -0.6670  1.5404  0.1145
  629TIP3    H226083   0.210   4.771  18.499  0.2713  0.4785 -0.2651
  630TIP3   OH226084   3.685   6.937  18.321  0.1195 -0.1188  0.5710
  630TIP3    H126085   3.770   6.974  18.345 -1.0035  0.5308  4.1752
  630TIP3    H226086   3.649   6.997  18.257  0.3807  2.4832  2.6964
  631TIP3   OH226087   4.297   4.004  18.628  0.7096 -0.2554  0.1836
  631TIP3    H126088   4.207   4.011  18.597  1.3380  0.1328 -1.6686
  631TIP3    H226089   4.294   4.036  18.719 -1.1029 -0.8659  0.3844
  632TIP3   OH226090   6.706   4.484  17.408  0.1043 -0.4035 -0.2235
  632TIP3    H126091   6.742   4.400  17.436  0.2376 -0.1968  0.2216
  632TIP3    H226092   6.643   4.508  17.476 -0.7906 -0.7020 -0.9336
  633TIP3   OH226093   7.564   1.144  17.831  0.3342  0.6511 -0.1729
  633TIP3    H126094   7.626   1.212  17.806  0.7097  0.1293 -0.6612
  633TIP3    H226095   7.478   1.179  17.806  0.5059  1.0241 -0.2387
  634TIP3   OH226096   2.707   2.019  18.761 -0.2425  0.6479 -0.1974
  634TIP3    H126097   2.670   1.963  18.829 -0.6875 -0.5315 -1.3785
  634TIP3    H226098   2.799   1.995  18.757 -0.2444  0.6248 -0.0978
  635TIP3   OH226099   4.594   6.939  19.230  0.1102  0.2516 -0.5187
  635TIP3    H126100   4.589   6.964  19.138 -0.2614 -0.7693 -0.7937
  635TIP3    H226101   4.686   6.920  19.245  0.2549  0.9106 -0.5328
  636TIP3   OH226102   1.268   4.025  18.785 -0.0119 -0.3996 -0.1369
  636TIP3    H126103   1.362   4.020  18.801  0.1203 -0.9832 -0.9948
  636TIP3    H226104   1.232   3.945  18.823 -0.3743  0.4608  1.3996
  637TIP3   OH226105   1.470   4.559  16.804 -0.4451 -0.8263 -0.4462
  637TIP3    H126106   1.486   4.559  16.898 -0.4344 -1.8528 -0.4411
  637TIP3    H226107   1.374   4.555  16.796 -0.4109 -1.8789 -0.4658
  638TIP3   OH226108   7.283   2.992  18.881  0.7278  0.3146  0.0642
  638TIP3    H126109   7.220   2.920  18.877  2.4597 -1.3209  0.3212
  638TIP3    H226110   7.281   3.022  18.971 -1.0769  1.6719 -0.3757
  639TIP3   OH226111   2.288   4.923  17.712 -0.3223  0.0037  0.0010
  639TIP3    H126112   2.270   4.942  17.620 -1.7690  0.9714  0.4390
  639TIP3    H226113   2.230   4.850  17.733 -0.3354  0.0847  0.2520
  640TIP3   OH226114   5.152   4.941  17.663 -0.2634 -0.3915  0.0185
  640TIP3    H126115   5.159   4.959  17.757 -1.9164 -0.8835  0.2741
  640TIP3    H226116   5.241   4.951  17.630  0.7479 -2.1324  1.9913
  641TIP3   OH226117   6.979   4.531  18.117  0.1838  0.4275  0.2216
  641TIP3    H126118   6.975   4.435  18.116  1.9072  0.3187 -1.1804
  641TIP3    H226119   6.933   4.557  18.038 -0.5543  0.7854  0.7650
  642TIP3   OH226120   2.884   7.625  17.333  0.0290 -0.2758  0.4673
  642TIP3    H126121   2.873   7.682  17.409  1.6709  0.3073  0.2871
  642TIP3    H226122   2.794   7.609  17.303 -0.5416  1.0100  1.3904
  643TIP3   OH226123   4.485   6.582  17.110 -0.1951  0.4040  0.0195
  643TIP3    H126124   4.424   6.518  17.147  0.3286  0.1050  0.3781
  643TIP3    H226125   4.428   6.647  17.068 -0.8190  0.8397  1.4822
  644TIP3   OH226126   6.340   2.406  18.046 -0.1010  0.4541  0.1292
  644TIP3    H126127   6.325   2.356  18.126 -0.1211 -0.0540 -0.1861
  644TIP3    H226128   6.383   2.344  17.987 -0.1136  0.8144 -0.2646
  645TIP3   OH226129   3.652   5.756  19.196 -0.3393 -0.2276  0.2703
  645TIP3    H126130   3.649   5.767  19.101  0.1199  0.9379  0.3721
  645TIP3    H226131   3.614   5.670  19.211  2.5956 -1.9569 -1.2242
  646TIP3   OH226132   0.520   4.566  18.970 -0.6990  0.4832  0.3159
  646TIP3    H126133   0.453   4.585  19.036 -1.5270 -0.3145 -0.2564
  646TIP3    H226134   0.525   4.470  18.969 -2.6644  0.2563 -2.5803
  647TIP3   OH226135   0.319   7.162  18.441 -0.0557 -0.3680 -0.3867
  647TIP3    H126136   0.268   7.112  18.505  1.3918 -1.3584  0.0263
  647TIP3    H226137   0.358   7.233  18.492  1.1433 -1.1897 -0.1220
  648TIP3   OH226138   2.133   5.682  17.162  0.1777  0.3437 -0.2970
  648TIP3    H126139   2.148   5.623  17.088 -1.0863  1.5231 -1.5805
  648TIP3    H226140   2.044   5.662  17.191 -0.0173  1.1319 -0.3096
  649TIP3   OH226141   2.384   7.283  16.937  0.0449  0.4219 -0.4031
  649TIP3    H126142   2.422   7.289  17.025 -1.2339  0.5222  0.1656
  649TIP3    H226143   2.401   7.369  16.898 -1.3450  1.2099  0.6116
  650TIP3   OH226144   4.154   7.476  17.484  0.0290 -0.0743  0.4394
  650TIP3    H126145   4.067   7.512  17.497  0.4074  0.8634  0.4488
  650TIP3    H226146   4.213   7.542  17.522  0.7913 -0.2145 -0.4783
  651TIP3   OH226147   6.046   3.748  19.255 -0.1993 -0.2083  0.5406
  651TIP3    H126148   6.084   3.787  19.334 -0.0436 -1.8344  1.3089
  651TIP3    H226149   6.121   3.717  19.205 -0.3462 -0.0919  0.2463
  652TIP3   OH226150   3.624   3.684  19.051 -0.7025 -0.2275  0.1039
  652TIP3    H126151   3.714   3.671  19.080 -0.8133 -1.1801  0.0619
  652TIP3    H226152   3.602   3.773  19.079  0.5450  0.3640 -0.7005
  653TIP3   OH226153   3.299   5.946  19.145  0.1548 -0.1379 -0.7644
  653TIP3    H126154   3.283   5.866  19.096  0.9398 -0.2535 -0.8428
  653TIP3    H226155   3.335   5.917  19.228 -0.2390  0.1035 -0.5052
  654TIP3   OH226156   1.366   1.915  17.052  0.2960 -0.0233 -1.1064
  654TIP3    H126157   1.332   1.839  17.005  0.1426 -1.6617  1.4873
  654TIP3    H226158   1.371   1.983  16.985 -4.3272 -0.7551 -2.5998
  655TIP3   OH226159   1.691   7.229  18.760  0.3802 -0.5432 -0.9628
  655TIP3    H126160   1.718   7.180  18.837 -0.1340  0.6066 -0.0096
  655TIP3    H226161   1.764   7.220  18.699  1.0613 -0.9881 -0.1083
  656TIP3   OH226162   5.339   1.838  17.122 -1.1782  0.3278 -0.4704
  656TIP3    H126163   5.345   1.828  17.027 -1.7147  0.0139 -0.4787
  656TIP3    H226164   5.246   1.824  17.141 -1.2239  1.2105  0.0043
  657TIP3   OH226165   2.206   2.598  18.853  0.3217  1.2916 -0.2532
  657TIP3    H126166   2.165   2.516  18.882  2.2478  0.8780  1.5115
  657TIP3    H226167   2.295   2.594  18.887  0.8637  3.5836 -1.2134
  658TIP3   OH226168   4.227   7.334  18.469 -0.3433  0.1052 -0.0901
  658TIP3    H126169   4.314   7.366  18.445  0.2817 -0.7069  1.0053
  658TIP3    H226170   4.218   7.356  18.562 -0.1064 -2.3480  0.5619
  659TIP3   OH226171   2.476   0.718  18.132  0.7661  0.9924 -0.0899
  659TIP3    H126172   2.432   0.718  18.047  0.1389 -0.5948  0.1932
  659TIP3    H226173   2.545   0.784  18.123 -0.1981  1.8927 -1.3295
  660TIP3   OH226174   7.408   3.891  18.169 -0.1159 -0.0005 -0.2957
  660TIP3    H126175   7.474   3.954  18.197 -0.8322  0.5706  0.1362
  660TIP3    H226176   7.357   3.872  18.249  0.1407 -1.1948 -0.3931
  661TIP3   OH226177   3.809   7.263  17.312  0.1590 -0.5290  0.2301
  661TIP3    H126178   3.787   7.299  17.398 -1.3277 -0.9281  0.0436
  661TIP3    H226179   3.747   7.191  17.300  0.4440 -0.5668 -1.1169
  662TIP3   OH226180   3.974   1.045  18.358 -0.2665  0.5345  0.4408
  662TIP3    H126181   3.909   1.074  18.294 -0.3622  0.2208  0.3929
  662TIP3    H226182   4.049   1.017  18.306 -0.6886 -0.5783  0.4131
  663TIP3   OH226183   2.509   2.720  18.023 -0.0214 -0.3708  0.1349
  663TIP3    H126184   2.482   2.778  18.094 -0.4244 -0.1310 -0.2144
  663TIP3    H226185   2.598   2.747  18.002  0.4441 -1.0342  1.1571
  664TIP3   OH226186   1.498   6.745  18.950  0.3014 -0.2982  0.7404
  664TIP3    H126187   1.526   6.692  18.875  2.3675 -0.2828  1.4308
  664TIP3    H226188   1.484   6.681  19.020  1.8392 -0.0965  1.2919
  665TIP3   OH226189   5.001   4.313  18.263 -0.2052 -0.2875  0.3532
  665TIP3    H126190   4.927   4.356  18.306 -1.0413 -1.7497  0.4059
  665TIP3    H226191   5.030   4.376  18.197 -1.3693  0.3812  0.4596
  666TIP3   OH226192   6.575   4.358  19.151 -0.0338  0.5592 -0.0672
  666TIP3    H126193   6.559   4.400  19.066  1.7198  0.4508 -0.4816
  666TIP3    H226194   6.578   4.430  19.213  0.4414  0.8236 -0.3880
  667TIP3   OH226195   5.135   2.377  19.261 -0.1864 -0.4075  0.1841
  667TIP3    H126196   5.137   2.317  19.336 -1.8755 -2.0692 -1.0025
  667TIP3    H226197   5.197   2.339  19.199  0.0517  0.1040  0.1023
  668TIP3   OH226198   4.425   1.596  19.085 -0.4137 -0.2429  0.0846
  668TIP3    H126199   4.439   1.535  19.012 -2.1789 -0.7285  0.0813
  668TIP3    H226200   4.346   1.645  19.059  0.4962  1.4944  0.4659
  669TIP3   OH226201   5.584   6.344  19.144 -0.0602 -0.5905 -0.9692
  669TIP3    H126202   5.680   6.341  19.137 -0.0630  0.7316 -1.9341
  669TIP3    H226203   5.558   6.252  19.147  1.1528 -1.0202 -2.2399
  670TIP3   OH226204   5.325   3.346  17.579  0.5511 -0.0762  0.1565
  670TIP3    H126205   5.317   3.300  17.662  1.3474 -3.5414 -1.5074
  670TIP3    H226206   5.417   3.335  17.554  0.4464  1.3308 -0.9739
  671TIP3   OH226207   2.288   2.390  19.413 -0.7675  0.0734  0.0623
  671TIP3    H126208   2.282   2.486  19.416 -0.6144  0.0625  2.5345
  671TIP3    H226209   2.197   2.360  19.422 -0.6263  0.0112  1.4679
  672TIP3   OH226210   5.049   4.126  19.540  0.1859 -0.1598 -0.0485
  672TIP3    H126211   5.057   4.221  19.554 -0.8198 -0.2615  1.4018
  672TIP3    H226212   5.083   4.087  19.620  1.0523 -1.0709 -0.8323
  673TIP3   OH226213   1.380   1.635  17.250 -0.2071  0.2373  0.1214
  673TIP3    H126214   1.368   1.617  17.157  1.3803 -0.3440  0.0058
  673TIP3    H226215   1.304   1.689  17.274 -0.2928  0.9643 -1.6492
  674TIP3   OH226216   6.603   3.954  18.311 -0.1411 -0.0025 -0.2857
  674TIP3    H126217   6.581   3.966  18.218  1.7167 -0.0152 -0.7629
  674TIP3    H226218   6.631   3.863  18.318 -0.3734 -0.0313  0.3144
  675TIP3   OH226219   6.824   7.015  16.828  0.2433  0.4846  0.0350
  675TIP3    H126220   6.736   7.050  16.844  0.5150  0.5632  1.4681
  675TIP3    H226221   6.882   7.069  16.882  0.9885 -0.4979  0.2458
  676TIP3   OH226222   4.483   3.973  19.006  0.0802 -0.5894 -0.4464
  676TIP3    H126223   4.531   4.018  18.936  2.8561  0.6716  2.0807
  676TIP3    H226224   4.441   4.043  19.055 -1.1461 -1.3970 -0.3065
  677TIP3   OH226225   1.585   2.186  17.842  0.1277  0.1505 -0.2672
  677TIP3    H126226   1.570   2.093  17.853 -0.6706  0.0700 -1.8313
  677TIP3    H226227   1.501   2.227  17.863  0.4156  0.5229  0.2144
  678TIP3   OH226228   5.558   0.483  18.110  0.6509 -0.2584 -0.1247
  678TIP3    H126229   5.473   0.526  18.097  1.6841  1.3264 -2.1998
  678TIP3    H226230   5.540   0.390  18.094 -0.5328  0.1853 -1.6784
  679TIP3   OH226231   5.293   5.885  18.346 -0.3022 -0.2257  0.0939
  679TIP3    H126232   5.383   5.881  18.316  0.0402  0.3037  1.0153
  679TIP3    H226233   5.258   5.797  18.327  0.4657 -0.5074 -0.0632
  680TIP3   OH226234   5.907   5.195  19.587 -0.5297 -0.1098 -0.1640
  680TIP3    H126235   5.877   5.106  19.569  0.6216 -0.4397 -0.5122
  680TIP3    H226236   5.976   5.184  19.653  0.3422  0.4153 -0.9665
  681TIP3   OH226237   6.194   6.011  17.404  0.0475 -0.1668 -0.7613
  681TIP3    H126238   6.141   6.002  17.324  2.5929  1.9522 -2.8722
  681TIP3    H226239   6.267   5.951  17.391  1.1268  1.0810 -0.6655
  682TIP3   OH226240   0.458   5.205  17.442 -0.0133 -0.1659  0.1293
  682TIP3    H126241   0.381   5.224  17.496  0.5388  2.2690  0.1572
  682TIP3    H226242   0.523   5.171  17.504 -0.3453 -0.1679  0.4797
  683TIP3   OH226243   2.896   3.362  18.036  0.4734  0.8935  0.5277
  683TIP3    H126244   2.840   3.361  18.114 -0.8222 -0.6596 -0.3454
  683TIP3    H226245   2.954   3.286  18.047 -0.9998 -0.5099 -0.8171
  684TIP3   OH226246   6.741   4.213  18.999  0.0310 -0.1028  0.0650
  684TIP3    H126247   6.710   4.125  18.978 -0.5961  0.3338 -0.9043
  684TIP3    H226248   6.690   4.238  19.076  0.9524 -0.9668  0.9958
  685TIP3   OH226249   6.755   5.232  18.540 -0.1932  0.7192  0.3027
  685TIP3    H126250   6.746   5.203  18.631 -2.4246  1.4642  0.3876
  685TIP3    H226251   6.790   5.320  18.546 -0.2963  0.7500  0.4571
  686TIP3   OH226252   4.892   4.252  16.646  0.0876 -0.4275 -0.0468
  686TIP3    H126253   4.879   4.193  16.572  1.2670  1.3822 -1.7924
  686TIP3    H226254   4.972   4.220  16.688  0.0189 -0.8050 -0.1938
  687TIP3   OH226255   5.803   4.210  17.620 -0.2923 -0.5093 -0.1362
  687TIP3    H126256   5.768   4.135  17.573 -0.4463 -0.4337 -0.1422
  687TIP3    H226257   5.879   4.238  17.568 -1.3339  0.4919 -1.1744
  688TIP3   OH226258   0.601   1.464  18.331 -0.5763  0.1636  0.1860
  688TIP3    H126259   0.626   1.486  18.420 -2.5906  1.9703  0.3841
  688TIP3    H226260   0.651   1.525  18.276 -0.3346 -0.0569  0.1569
  689TIP3   OH226261   3.289   1.108  18.718 -0.3185 -0.1560 -0.0378
  689TIP3    H126262   3.336   1.120  18.636  0.6864  2.0329  0.7783
  689TIP3    H226263   3.327   1.173  18.777 -3.0004  0.3433  1.2819
  690TIP3   OH226264   4.176   3.244  16.904  0.1038  0.3376  0.0089
  690TIP3    H126265   4.131   3.285  16.830 -0.8319  0.0570  0.4007
  690TIP3    H226266   4.105   3.223  16.966  0.8116  0.1143  0.7587
  691TIP3   OH226267   5.215   0.296  17.993 -0.1173  0.1079  0.3289
  691TIP3    H126268   5.148   0.285  17.925 -0.4917 -0.8027  0.8320
  691TIP3    H226269   5.296   0.307  17.944 -0.2252 -1.6224 -0.2778
  692TIP3   OH226270   6.866   4.547  19.190 -0.1211  0.5583 -0.2219
  692TIP3    H126271   6.777   4.562  19.223 -0.5030  0.5938 -1.2299
  692TIP3    H226272   6.908   4.495  19.258 -1.3316 -0.5875 -0.3196
  693TIP3   OH226273   5.074   0.561  17.275  0.1996  0.5169 -0.5530
  693TIP3    H126274   5.068   0.537  17.183  0.4476  1.8875 -0.9389
  693TIP3    H226275   4.984   0.566  17.305  0.1362 -1.0560 -0.3975
  694TIP3   OH226276   7.615   2.457  19.434  0.6130  0.3324  0.2689
  694TIP3    H126277   7.674   2.425  19.502 -0.1086 -2.3998 -0.2692
  694TIP3    H226278   7.673   2.490  19.365  1.4686 -0.7178  0.4750
  695TIP3   OH226279   5.191   4.288  17.736  0.5161  0.1888 -0.3495
  695TIP3    H126280   5.226   4.205  17.769  1.7473  0.2929 -1.3424
  695TIP3    H226281   5.101   4.266  17.710 -0.6602  0.1594  3.1748
  696TIP3   OH226282   0.678   0.032  17.416 -0.3572 -0.2387  0.2628
  696TIP3    H126283   0.614   0.083  17.466  2.1852  1.6029  1.9556
  696TIP3    H226284   0.669   0.063  17.326 -1.8751 -0.1080  0.4342
  697TIP3   OH226285   4.243   3.954  17.816 -0.4650 -0.1961 -0.1384
  697TIP3    H126286   4.234   3.859  17.820  1.1776 -0.4059 -0.5848
  697TIP3    H226287   4.324   3.973  17.864 -0.9077  1.0093  0.1809
  698TIP3   OH226288   7.267   5.726  17.483  0.1472  0.0454 -0.0076
  698TIP3    H126289   7.309   5.644  17.506 -1.0027 -0.3410  0.8382
  698TIP3    H226290   7.257   5.723  17.388  1.1336 -0.2658 -0.1100
  699TIP3   OH226291   0.358   6.264  18.876  0.2436  0.0265  0.1440
  699TIP3    H126292   0.289   6.199  18.865  0.2930 -0.3528  1.8694
  699TIP3    H226293   0.317   6.333  18.928  1.0150  0.0354  0.7435
  700TIP3   OH226294   2.062   5.600  17.537  0.4645 -0.3575  0.1929
  700TIP3    H126295   2.012   5.655  17.476 -1.0181 -1.8613 -0.0380
  700TIP3    H226296   2.075   5.656  17.614 -0.2786  0.5966 -0.3469
  701TIP3   OH226297   0.118   7.045  17.754 -0.4415 -0.4683 -0.0430
  701TIP3    H126298   0.058   7.023  17.682  0.8445  0.0513 -1.3209
  701TIP3    H226299   0.204   7.015  17.724  0.1382 -0.1323  1.2330
  702TIP3   OH226300   3.064   4.026  18.555  0.0327  0.7607 -0.0824
  702TIP3    H126301   2.978   4.010  18.517  1.0180  0.8902 -2.5251
  702TIP3    H226302   3.055   4.112  18.597 -0.9083  0.9817 -0.6957
  703TIP3   OH226303   7.021   4.042  19.004  0.2019 -0.0259  0.1731
  703TIP3    H126304   6.938   4.026  18.959  0.6051 -0.2205 -0.5285
  703TIP3    H226305   7.087   4.038  18.934  0.9761 -1.3801  0.9328
  704TIP3   OH226306   3.508   6.727  19.063  0.5602  0.4467 -0.2115
  704TIP3    H126307   3.494   6.642  19.105 -0.5395 -0.6578 -2.5957
  704TIP3    H226308   3.601   6.744  19.072  1.1430 -1.8930 -1.1623
  705TIP3   OH226309   6.952   0.766  17.132 -0.2804  0.6485 -0.8498
  705TIP3    H126310   6.915   0.764  17.044 -2.1911  0.0903 -0.0762
  705TIP3    H226311   7.031   0.819  17.123 -0.0120 -0.0201 -3.0396
  706TIP3   OH226312   5.851   6.308  19.046 -0.1039 -0.3286 -0.4803
  706TIP3    H126313   5.924   6.367  19.023 -0.6127  0.1723 -0.8253
  706TIP3    H226314   5.865   6.289  19.138  1.1368 -1.1900 -0.8191
  707TIP3   OH226315   2.798   5.544  16.568  0.3078  0.1036 -0.3662
  707TIP3    H126316   2.842   5.493  16.636 -0.2365 -1.3910 -1.0846
  707TIP3    H226317   2.864   5.605  16.536  0.3335  1.5124  2.0951
  708TIP3   OH226318   3.241   4.531  18.938 -0.2035 -0.5145  0.1086
  708TIP3    H126319   3.301   4.603  18.958  0.8326 -1.3298 -0.0242
  708TIP3    H226320   3.209   4.501  19.023 -0.2497 -0.2363  0.1899
  709TIP3   OH226321   5.366   1.524  18.234  0.1923  0.5059 -0.0305
  709TIP3    H126322   5.334   1.441  18.198  0.8533  0.8311 -1.4296
  709TIP3    H226323   5.428   1.498  18.302  0.3966 -0.1563 -0.4599
  710TIP3   OH226324   2.885   1.130  19.478  0.0068 -0.4816 -0.4473
  710TIP3    H126325   2.819   1.099  19.540  0.3287  0.2938  0.2984
  710TIP3    H226326   2.882   1.066  19.406 -0.8188 -1.0339  0.0587
  711TIP3   OH226327   1.977   4.215  19.135 -0.3314  0.3900 -0.5450
  711TIP3    H126328   1.960   4.278  19.205 -0.0794  1.2787 -1.2559
  711TIP3    H226329   1.896   4.213  19.084 -0.5758 -0.3868 -0.1534
  712TIP3   OH226330   0.707   6.744  18.313 -0.5953  0.2203 -0.1203
  712TIP3    H126331   0.759   6.815  18.276 -1.4916  1.0459  0.1642
  712TIP3    H226332   0.763   6.704  18.379 -0.4677  1.3629  0.4819
  713TIP3   OH226333   7.054   7.218  18.754 -0.1940 -0.3596 -0.3972
  713TIP3    H126334   7.050   7.181  18.666 -1.5925  1.3886 -1.1458
  713TIP3    H226335   7.146   7.241  18.766  0.5124 -2.9244 -0.3095
  714TIP3   OH226336   2.755   3.367  18.799 -0.1664 -0.0383 -0.3587
  714TIP3    H126337   2.703   3.426  18.744  0.4452  1.1463  0.3123
  714TIP3    H226338   2.846   3.393  18.784  0.0188  0.2074  1.0899
  715TIP3   OH226339   4.754   4.899  18.123  0.6554 -0.5939 -0.2255
  715TIP3    H126340   4.740   4.808  18.147 -0.3727 -0.5573 -0.6225
  715TIP3    H226341   4.793   4.940  18.201  1.7195 -1.4917 -0.2552
  716TIP3   OH226342   4.103   5.798  18.077 -0.4338 -0.4175 -0.0038
  716TIP3    H126343   4.184   5.847  18.065 -0.2218 -0.6962  0.2946
  716TIP3    H226344   4.043   5.836  18.012 -0.2991  0.2874  0.2719
  717TIP3   OH226345   0.332   6.330  18.181 -0.9200  0.0931  0.1828
  717TIP3    H126346   0.282   6.249  18.173 -1.6741  0.6992 -1.6477
  717TIP3    H226347   0.415   6.312  18.138 -0.1708 -0.3627  1.7236
  718TIP3   OH226348   5.430   5.236  19.294  0.2807  0.4341 -0.5049
  718TIP3    H126349   5.516   5.226  19.335  1.1327 -2.4288 -2.6223
  718TIP3    H226350   5.393   5.314  19.335  3.2006  0.8886  1.6460
  719TIP3   OH226351   5.590   1.739  18.756  0.1549  0.2457 -0.3091
  719TIP3    H126352   5.533   1.778  18.690 -1.9411  0.7432  1.6569
  719TIP3    H226353   5.665   1.798  18.760 -1.2983  2.1834  0.0965
  720TIP3   OH226354   3.134   4.994  18.410  0.2433 -0.4746 -0.7983
  720TIP3    H126355   3.123   4.901  18.391 -1.4328 -0.7106  0.9459
  720TIP3    H226356   3.131   4.999  18.506 -0.6151  1.4388 -0.8687
  721TIP3   OH226357   6.119   1.028  19.284 -0.3873 -0.0513 -0.5693
  721TIP3    H126358   6.034   1.072  19.292 -0.5508 -0.3297 -0.7776
  721TIP3    H226359   6.154   1.059  19.200 -0.6011 -0.4857 -0.8231
  722TIP3   OH226360   5.689   0.796  19.279 -0.5817  0.8346  0.8570
  722TIP3    H126361   5.707   0.795  19.373  0.7950 -0.6336  0.6240
  722TIP3    H226362   5.768   0.832  19.239 -0.4880 -0.0956  0.1699
  723TIP3   OH226363   0.218   2.420  19.457  0.4721 -0.1629  0.1925
  723TIP3    H126364   0.247   2.378  19.376  0.4414  0.7531 -0.3037
  723TIP3    H226365   0.242   2.512  19.446 -0.9047  0.2588  0.5812
  724TIP3   OH226366   6.912   6.535  17.756  0.0876 -0.1391  0.2595
  724TIP3    H126367   6.916   6.453  17.708 -2.1986  0.6026 -1.3531
  724TIP3    H226368   6.891   6.510  17.846 -0.7926 -1.3127 -0.2541
  725TIP3   OH226369   0.383   0.673  18.654  0.2249  0.0164  0.6349
  725TIP3    H126370   0.355   0.761  18.677  1.4480  0.1159  1.9057
  725TIP3    H226371   0.466   0.662  18.700  0.7413 -1.3374 -0.5395
  726TIP3   OH226372   6.155   3.527  19.533  0.0579 -0.2179  0.2672
  726TIP3    H126373   6.132   3.554  19.622 -0.6857 -1.1905  0.3934
  726TIP3    H226374   6.225   3.463  19.545  1.0740  0.8296  0.0401
  727TIP3   OH226375   6.365   1.578  18.608  0.8032 -0.3207  0.5168
  727TIP3    H126376   6.299   1.550  18.545 -0.0228  2.1215  0.2185
  727TIP3    H226377   6.426   1.632  18.557  1.2913 -0.0116  1.4048
  728TIP3   OH226378   5.829   1.159  18.708 -0.5597 -0.2148  0.1681
  728TIP3    H126379   5.783   1.095  18.653 -0.0130 -0.7005  0.2554
  728TIP3    H226380   5.760   1.205  18.755 -0.9446 -1.3329  0.7479
  729TIP3   OH226381   5.935   0.251  17.220  0.4764  0.2055 -0.7327
  729TIP3    H126382   6.019   0.246  17.174  1.3710 -2.0143  0.9487
  729TIP3    H226383   5.934   0.173  17.276 -2.3961  0.5675 -0.1316
  730TIP3   OH226384   2.804   1.662  19.280  0.4905 -0.2702  0.2721
  730TIP3    H126385   2.841   1.595  19.338 -1.0377 -1.8873 -0.5249
  730TIP3    H226386   2.865   1.735  19.286  2.3946 -1.8229  0.9776
  731TIP3   OH226387   7.670   5.715  18.835 -0.1345 -0.2432 -0.5187
  731TIP3    H126388   7.734   5.774  18.794  0.4758 -1.4020 -1.2898
  731TIP3    H226389   7.631   5.668  18.761  0.0043 -1.4128  0.1264
  732TIP3   OH226390   2.203   7.630  17.977  0.4247 -0.0791 -0.1271
  732TIP3    H126391   2.244   7.637  17.891  0.3715 -0.1350 -0.1572
  732TIP3    H226392   2.109   7.638  17.959  0.3168 -1.3100 -0.2234
  733TIP3   OH226393   2.549   5.533  19.106  0.2971  0.3438 -0.1228
  733TIP3    H126394   2.502   5.569  19.030 -0.4503 -0.4936 -0.0640
  733TIP3    H226395   2.523   5.589  19.179 -0.3329  0.0987 -0.1599
  734TIP3   OH226396   1.682   6.403  17.264 -0.5813 -0.0487 -0.0001
  734TIP3    H126397   1.646   6.328  17.216  1.1364 -1.1523  0.3559
  734TIP3    H226398   1.736   6.364  17.333  0.6309  1.5113 -0.0173
  735TIP3   OH226399   1.217   5.304  16.973 -0.4533 -0.2630  0.5730
  735TIP3    H126400   1.297   5.352  16.949 -1.4652  1.8581  1.2013
  735TIP3    H226401   1.174   5.287  16.889  1.5497 -3.3280 -0.0045
  736TIP3   OH226402   2.545   5.153  18.914 -0.4732  0.3588  0.0160
  736TIP3    H126403   2.552   5.086  18.981 -3.0230  1.2244  1.2861
  736TIP3    H226404   2.612   5.130  18.849  0.2582 -2.0478  1.5115
  737TIP3   OH226405   0.676   5.447  18.608 -0.4880 -0.0705  0.0849
  737TIP3    H126406   0.707   5.422  18.695  1.4062  2.1892  0.1580
  737TIP3    H226407   0.581   5.456  18.618 -0.2754  0.4419  2.0428
  738TIP3   OH226408   6.792   4.907  17.216 -0.4660  0.1906 -0.2300
  738TIP3    H126409   6.772   4.986  17.166 -1.9398  1.5541  2.3180
  738TIP3    H226410   6.872   4.929  17.264 -1.6567  0.7659  1.5858
  739TIP3   OH226411   4.409   4.654  17.660  0.8007 -0.4523  0.1248
  739TIP3    H126412   4.422   4.566  17.697 -1.4461 -0.9671 -0.1668
  739TIP3    H226413   4.459   4.712  17.718  2.6118 -1.9238  0.1242
  740TIP3   OH226414   3.526   0.001  18.151  0.0374  0.2673  0.2279
  740TIP3    H126415   3.433  -0.021  18.154 -0.0543  0.7285  1.0888
  740TIP3    H226416   3.533   0.068  18.083 -0.0522 -0.6684 -0.7265
  741TIP3   OH226417   1.691   4.394  16.806 -0.3629  0.1011  0.3402
  741TIP3    H126418   1.600   4.402  16.777 -0.2040  0.3388 -0.0922
  741TIP3    H226419   1.735   4.470  16.768  0.4977 -1.1491 -1.2995
  742TIP3   OH226420   6.884   5.481  18.612 -0.4222  0.1429  0.0682
  742TIP3    H126421   6.899   5.514  18.701 -0.6992  0.9129 -0.1597
  742TIP3    H226422   6.971   5.461  18.579 -0.3090 -0.0615  0.4824
  743TIP3   OH226423   6.634   0.375  17.498  0.3752  0.5571  0.4156
  743TIP3    H126424   6.693   0.441  17.535 -0.3075  1.1712  0.4494
  743TIP3    H226425   6.689   0.299  17.482  0.9343  0.6931  1.5776
  744TIP3   OH226426   4.220   0.110  18.273 -0.1864  0.1972  0.0331
  744TIP3    H126427   4.137   0.122  18.319 -0.7119 -3.5749  0.4193
  744TIP3    H226428   4.272   0.187  18.296 -2.3288  1.0456  2.5849
  745TIP3   OH226429   1.995   1.785  19.001  0.4097 -0.7307  0.8096
  745TIP3    H126430   1.902   1.763  19.002  0.3931 -0.9018 -1.0983
  745TIP3    H226431   2.000   1.865  18.948  1.5159 -1.7188 -0.6529
  746TIP3   OH226432   2.431   7.503  19.238  0.2579  0.1775  0.5505
  746TIP3    H126433   2.484   7.440  19.189 -0.6507 -1.6539  1.8049
  746TIP3    H226434   2.489   7.578  19.252  1.5519 -0.5715 -0.5430
  747TIP3   OH226435   3.674   3.612  18.226 -0.6023 -0.1227 -0.2947
  747TIP3    H126436   3.691   3.678  18.293 -1.7458  1.0992 -1.1589
  747TIP3    H226437   3.631   3.660  18.155  0.6180 -1.3399 -1.9563
  748TIP3   OH226438   2.304   6.797  18.733  0.0077 -0.3004 -0.3345
  748TIP3    H126439   2.253   6.846  18.799 -0.0001 -0.4176 -0.2522
  748TIP3    H226440   2.272   6.830  18.649  1.7536  1.6966 -0.2995
  749TIP3   OH226441   2.247   6.815  18.379  0.1663 -0.1189 -0.3282
  749TIP3    H126442   2.243   6.729  18.421 -0.6343 -0.8008 -1.7470
  749TIP3    H226443   2.177   6.866  18.421 -0.2119 -0.5855 -0.3861
  750TIP3   OH226444   0.841   6.233  19.024 -0.1670 -0.3121 -0.1691
  750TIP3    H126445   0.843   6.203  18.933  0.0590 -0.0711 -0.2456
  750TIP3    H226446   0.781   6.173  19.068 -1.5373  0.5144 -0.8242
  751TIP3   OH226447   0.699   0.265  18.256 -0.3008 -0.0615 -0.1215
  751TIP3    H126448   0.780   0.270  18.308 -0.8546 -2.5763  1.1183
  751TIP3    H226449   0.724   0.213  18.179 -0.7883 -1.1599  0.4455
  752TIP3   OH226450   4.257   3.957  19.442  0.0802 -0.1490  0.2146
  752TIP3    H126451   4.228   3.964  19.352  0.9929 -0.9813 -0.1616
  752TIP3    H226452   4.348   3.927  19.436 -0.3226 -1.7871  1.4166
  753TIP3   OH226453   3.669   6.049  17.636 -0.0381 -0.2016  0.9513
  753TIP3    H126454   3.695   6.009  17.553 -1.1034  0.1750  0.4120
  753TIP3    H226455   3.743   6.035  17.694  1.2828  0.6348 -0.4438
  754TIP3   OH226456   4.887   5.855  17.953 -0.3961  0.0240 -0.0599
  754TIP3    H126457   4.876   5.784  18.017 -0.1792  0.3189  0.3033
  754TIP3    H226458   4.884   5.810  17.868 -1.9347 -0.2338  0.0902
  755TIP3   OH226459   2.399   5.487  16.827 -0.5251 -0.1124  0.3413
  755TIP3    H126460   2.442   5.447  16.751  0.2336  0.3992  0.4896
  755TIP3    H226461   2.441   5.444  16.902  0.3198  0.9423  0.5049
  756TIP3   OH226462   6.120   7.479  16.951  0.0609 -0.3387  0.0897
  756TIP3    H126463   6.028   7.452  16.954 -0.4819  1.3874  0.3165
  756TIP3    H226464   6.120   7.567  16.990  1.8146 -0.3078  0.0903
  757TIP3   OH226465   0.061   0.593  19.522 -0.5410 -0.3524  0.0662
  757TIP3    H126466   0.150   0.627  19.512 -0.5732  0.0312  0.9495
  757TIP3    H226467   0.072   0.498  19.534 -0.2811 -0.3560 -0.2105
  758TIP3   OH226468   3.153   7.556  17.559 -0.7086  0.0597  0.1770
  758TIP3    H126469   3.236   7.523  17.523  0.1300  0.1708  1.9110
  758TIP3    H226470   3.095   7.480  17.559  0.4822 -0.9436  2.0187
  759TIP3   OH226471   6.973   7.351  17.994  0.2272 -0.1091 -0.4811
  759TIP3    H126472   6.974   7.395  17.909  1.0722 -0.1799 -0.5224
  759TIP3    H226473   6.934   7.414  18.054  2.0381  1.0145 -0.3954
  760TIP3   OH226474   6.108   3.669  18.862  0.3927 -0.0120  0.0745
  760TIP3    H126475   6.034   3.664  18.922 -0.5681  0.4291 -1.0381
  760TIP3    H226476   6.164   3.595  18.886 -1.6022 -1.8328 -0.6312
  761TIP3   OH226477   3.741   3.701  18.783 -0.6338  0.7102 -0.3106
  761TIP3    H126478   3.694   3.686  18.865  0.6864 -0.3587  0.2775
  761TIP3    H226479   3.749   3.614  18.744 -0.0332  1.0234 -0.8964
  762TIP3   OH226480   5.929   6.818  18.310  0.0078  1.0425 -0.3430
  762TIP3    H126481   5.891   6.858  18.388 -1.2322 -0.2407 -0.2570
  762TIP3    H226482   6.019   6.797  18.336  0.0961  2.0355  0.2132
  763TIP3   OH226483   1.426   5.864  16.794  0.3306  0.3737 -0.2794
  763TIP3    H126484   1.337   5.883  16.767 -0.8902 -0.0301  2.9987
  763TIP3    H226485   1.451   5.938  16.850  2.2240  0.6382 -1.3628
  764TIP3   OH226486   6.812   2.015  18.507 -0.0559  0.1479  0.5688
  764TIP3    H126487   6.785   2.101  18.474 -2.8291 -1.0706 -0.6327
  764TIP3    H226488   6.798   2.020  18.602 -2.1593  0.4316  0.2821
  765TIP3   OH226489   5.529   7.375  17.757  0.0191  0.4477 -0.1577
  765TIP3    H126490   5.529   7.339  17.846  0.1029  0.0685 -0.3070
  765TIP3    H226491   5.569   7.461  17.766 -0.4569  0.6330  0.2599
  766TIP3   OH226492   1.147   1.156  17.057  0.3305 -0.0305 -0.3457
  766TIP3    H126493   1.201   1.210  16.999  0.5370 -1.1694 -1.2376
  766TIP3    H226494   1.067   1.141  17.008 -0.1941  0.3887  0.3629
  767TIP3   OH226495   5.836   7.102  18.428  0.6888  0.0151  0.4826
  767TIP3    H126496   5.901   7.095  18.498  2.7479  2.4702 -0.9726
  767TIP3    H226497   5.802   7.191  18.436 -1.5737 -0.7671  0.3335
  768TIP3   OH226498   0.633   1.530  18.617 -0.8047 -0.0388 -0.1228
  768TIP3    H126499   0.582   1.529  18.698 -0.9036  1.0389 -0.1568
  768TIP3    H226500   0.724   1.530  18.647 -0.8301  1.3861  0.0474
  769TIP3   OH226501   0.816   6.594  18.887  0.2590 -0.1863  0.4512
  769TIP3    H126502   0.776   6.680  18.899 -0.1396 -0.2060 -0.6894
  769TIP3    H226503   0.749   6.532  18.917 -0.6383 -0.2209 -1.4989
  770TIP3   OH226504   7.360   0.139  17.242  0.2935 -0.1605 -0.3045
  770TIP3    H126505   7.265   0.142  17.228  0.0221  0.4686  1.4174
  770TIP3    H226506   7.397   0.127  17.154 -1.2805  1.7705 -1.3068
  771TIP3   OH226507   6.448   2.758  19.523 -0.1227 -0.2760 -0.0804
  771TIP3    H126508   6.422   2.748  19.615 -0.5396  1.0473 -0.0222
  771TIP3    H226509   6.541   2.735  19.521  0.4936  1.8583  1.1500
  772TIP3   OH226510   6.356   2.802  17.190  0.3770  0.3336 -0.1080
  772TIP3    H126511   6.431   2.746  17.167  2.1003  2.2793  0.4234
  772TIP3    H226512   6.282   2.742  17.196  2.1514 -1.9309  0.6890
  773TIP3   OH226513   3.140   5.553  18.645 -0.2220  0.3165  0.5511
  773TIP3    H126514   3.077   5.516  18.583 -0.5232  0.2898  0.8661
  773TIP3    H226515   3.117   5.513  18.729 -1.7761  2.6079  1.3050
  774TIP3   OH226516   6.359   2.413  16.597  0.1851 -0.0664  0.8501
  774TIP3    H126517   6.418   2.457  16.535  0.0883  0.3226  1.0314
  774TIP3    H226518   6.276   2.460  16.588  0.7070  1.3537  2.7274
  775TIP3   OH226519   5.729   1.289  19.518  0.9046  0.4514  0.0979
  775TIP3    H126520   5.718   1.306  19.612  1.4029  0.3177  0.1803
  775TIP3    H226521   5.756   1.197  19.513 -0.5263  0.0251 -0.2629
  776TIP3   OH226522   0.522   4.024  19.654  0.1493  0.2517  0.1382
  776TIP3    H126523   0.448   4.034  19.714 -1.6227 -1.7519 -1.5608
  776TIP3    H226524   0.567   3.945  19.685  0.3736  0.2988 -0.0656
  777TIP3   OH226525   6.012   2.153  18.571 -0.3327 -0.0117 -0.5548
  777TIP3    H126526   5.919   2.132  18.571 -0.3619  0.0557 -1.5391
  777TIP3    H226527   6.041   2.132  18.482  0.3419  1.0758 -0.6026
  778TIP3   OH226528   3.048   4.071  17.878  0.1857 -0.7208 -0.4793
  778TIP3    H126529   2.978   4.104  17.934  2.0465  3.7762 -0.4353
  778TIP3    H226530   3.118   4.047  17.940  0.7260  0.2551 -0.7036
  779TIP3   OH226531   3.661   4.141  18.391  0.0923  0.1789 -0.1780
  779TIP3    H126532   3.703   4.179  18.314 -0.8987  1.5660 -0.0790
  779TIP3    H226533   3.568   4.137  18.368 -0.3845  1.6083  1.2949
  780TIP3   OH226534   2.973   2.409  17.675 -0.1937 -0.1872  0.0623
  780TIP3    H126535   2.922   2.368  17.605 -0.6181 -0.8903  0.7635
  780TIP3    H226536   3.017   2.336  17.719 -1.1809  0.0225  1.5035
  781TIP3   OH226537   4.970   2.537  19.616  0.5995 -0.1551  0.5328
  781TIP3    H126538   4.958   2.574  19.704 -0.0102 -2.4674  1.5033
  781TIP3    H226539   5.019   2.456  19.631 -0.2886 -1.0465 -1.1375
  782TIP3   OH226540   2.318   1.299  18.848  0.2689 -0.0152  0.1250
  782TIP3    H126541   2.251   1.353  18.806 -0.1312  0.5496  1.4535
  782TIP3    H226542   2.400   1.327  18.808 -0.3020 -1.2038 -2.0369
  783TIP3   OH226543   6.664   2.153  17.121  0.2993 -0.3311  0.1676
  783TIP3    H126544   6.736   2.204  17.083  1.3146 -2.3854 -0.8208
  783TIP3    H226545   6.642   2.089  17.053 -2.1275 -0.1359  0.6677
  784TIP3   OH226546   6.759   0.263  16.887  0.6088 -0.3675  0.0598
  784TIP3    H126547   6.732   0.183  16.841 -0.3128 -0.5790  0.9314
  784TIP3    H226548   6.681   0.291  16.934  1.1429  0.6233  0.3808
  785TIP3   OH226549   2.282   3.132  17.838 -0.6389  0.1111  0.4993
  785TIP3    H126550   2.367   3.111  17.876 -0.2361  0.0277 -0.4452
  785TIP3    H226551   2.270   3.068  17.768 -1.7543 -0.2620  0.9929
  786TIP3   OH226552   7.101   0.538  17.276  0.5958 -0.1456  0.2121
  786TIP3    H126553   7.024   0.568  17.229  0.7052 -0.3219 -0.0829
  786TIP3    H226554   7.101   0.443  17.265  0.5074 -0.2108  0.7462
  787TIP3   OH226555   0.689   0.119  18.673  0.3620 -0.0016  0.5853
  787TIP3    H126556   0.624   0.072  18.621 -1.1125 -0.1456  2.4195
  787TIP3    H226557   0.673   0.211  18.653  2.0096 -0.1171 -1.6045
  788TIP3   OH226558   0.423   5.471  17.653  0.8769 -0.1873 -0.0917
  788TIP3    H126559   0.388   5.403  17.595  2.0616 -0.0339 -1.0290
  788TIP3    H226560   0.381   5.552  17.624  2.1213  0.0434 -1.4028
  789TIP3   OH226561   4.360   4.869  18.280 -0.3493  0.5340  0.0667
  789TIP3    H126562   4.409   4.804  18.331 -1.1277 -0.4184 -0.3642
  789TIP3    H226563   4.415   4.948  18.282  1.4138 -0.6103 -0.7650
  790TIP3   OH226564   6.243   0.276  17.793  0.8797 -0.1325  0.0005
  790TIP3    H126565   6.331   0.305  17.817  0.5040  0.9908  0.0644
  790TIP3    H226566   6.256   0.221  17.715  1.4804  1.4856 -1.0904
  791TIP3   OH226567   5.684   4.334  18.070  0.1815  0.0907  0.1046
  791TIP3    H126568   5.737   4.410  18.096  0.8759 -0.6017  0.7703
  791TIP3    H226569   5.627   4.368  18.001 -0.0303  1.3951  0.8749
  792TIP3   OH226570   7.644   2.249  19.188  0.3051  0.5433  0.3967
  792TIP3    H126571   7.625   2.217  19.100  0.4860 -0.2249  0.6236
  792TIP3    H226572   7.647   2.169  19.241 -0.5073  1.0542  1.2335
  793TIP3   OH226573   5.856   3.541  19.444 -0.4244 -0.5333 -0.1566
  793TIP3    H126574   5.860   3.476  19.373  2.1658 -0.0009 -0.5973
  793TIP3    H226575   5.947   3.556  19.468 -0.7361  3.6323 -0.7483
  794TIP3   OH226576   6.679   3.668  18.359  0.4258  0.0503  0.2009
  794TIP3    H126577   6.595   3.626  18.377 -0.0881  1.4673  1.3152
  794TIP3    H226578   6.690   3.662  18.264 -0.3301 -1.2170  0.1673
  795TIP3   OH226579   4.121   6.487  19.014  0.0223  0.1084 -0.4429
  795TIP3    H126580   4.205   6.522  19.044  0.9122 -0.1910 -2.4091
  795TIP3    H226581   4.059   6.511  19.082  1.8757 -0.5424  1.5866
  796TIP3   OH226582   3.921   6.249  18.079  0.2968 -0.2011  0.0407
  796TIP3    H126583   3.858   6.308  18.038  0.6796 -0.8465 -1.5406
  796TIP3    H226584   3.913   6.267  18.173 -3.7938 -1.8086  0.1705
  797TIP3   OH226585   5.322   2.390  17.223 -0.3222  0.2541 -0.0229
  797TIP3    H126586   5.325   2.458  17.155 -0.9593 -0.3467 -0.6723
  797TIP3    H226587   5.366   2.315  17.183  0.8983  0.4535  0.9076
  798TIP3   OH226588   6.134   3.197  19.531 -0.8320  0.6012  0.2514
  798TIP3    H126589   6.103   3.243  19.452 -1.8040 -1.7282 -0.8097
  798TIP3    H226590   6.191   3.128  19.498  1.1018  1.3655  1.8500
  799TIP3   OH226591   1.305   3.919  17.165  0.3249 -0.3878  0.3161
  799TIP3    H126592   1.396   3.917  17.194  0.3344 -1.7542  0.2823
  799TIP3    H226593   1.309   3.898  17.072  0.1084  1.5310 -0.1601
  800TIP3   OH226594   1.747   5.127  17.987 -0.2083 -0.3515  0.1740
  800TIP3    H126595   1.790   5.212  17.997  0.5224 -0.7213  0.2095
  800TIP3    H226596   1.797   5.067  18.043 -0.4118 -0.9141 -0.2341
  801TIP3   OH226597   3.096   6.143  18.808  0.5235  0.0282  0.6774
  801TIP3    H126598   3.150   6.149  18.729  0.6450 -1.9434  0.5562
  801TIP3    H226599   3.035   6.071  18.789 -0.4019  0.4857  1.8306
  802TIP3   OH226600   1.195   3.670  17.160  0.0183 -0.1968 -0.4223
  802TIP3    H126601   1.211   3.764  17.173 -3.9427  0.4742  1.3550
  802TIP3    H226602   1.167   3.639  17.247 -3.1102 -1.8567 -1.8469
  803TIP3   OH226603   7.478   6.982  18.259 -0.3298  0.1566 -0.0987
  803TIP3    H126604   7.416   6.909  18.251  0.0143 -0.0539 -0.8887
  803TIP3    H226605   7.539   6.970  18.187 -0.7347  1.6683 -0.7368
  804TIP3   OH226606   0.590   1.610  17.585  0.3145  0.4574 -0.2250
  804TIP3    H126607   0.575   1.658  17.503  0.2351  2.2355  0.7955
  804TIP3    H226608   0.678   1.574  17.575  0.3096  0.6557 -1.0863
  805TIP3   OH226609   3.072   0.796  17.208 -0.2163  0.4277 -0.0946
  805TIP3    H126610   3.019   0.741  17.267  1.3860 -1.1822 -0.0467
  805TIP3    H226611   3.067   0.752  17.124  1.2572  0.0524 -0.0127
  806TIP3   OH226612   4.958   6.933  16.670 -0.7246 -0.2609 -0.0566
  806TIP3    H126613   5.013   6.855  16.676  0.9145  0.7145 -1.4623
  806TIP3    H226614   4.872   6.899  16.643  0.2199 -1.5127 -1.6993
  807TIP3   OH226615   4.191   4.344  19.003 -0.7370 -0.4650  0.0573
  807TIP3    H126616   4.236   4.427  19.019 -2.6578  0.7306 -0.4669
  807TIP3    H226617   4.249   4.296  18.944 -0.5429  1.4290 -1.3761
  808TIP3   OH226618   3.290   6.618  18.077  0.0152  0.3920 -0.2818
  808TIP3    H126619   3.323   6.631  18.166 -1.4085 -0.5851  0.4291
  808TIP3    H226620   3.285   6.523  18.066  0.2423  0.4908 -1.4594
  809TIP3   OH226621   2.217   3.536  18.133 -0.6063  0.1581  0.4380
  809TIP3    H126622   2.207   3.627  18.104 -1.9115  0.0984  0.6465
  809TIP3    H226623   2.191   3.537  18.225 -0.4561 -0.3949  0.4892
  810TIP3   OH226624   6.878   4.077  18.340  0.2525 -0.0259 -0.0420
  810TIP3    H126625   6.880   4.134  18.416 -2.1316 -1.6602  1.3776
  810TIP3    H226626   6.786   4.078  18.312  0.7265 -0.8950 -1.7690
  811TIP3   OH226627   2.906   7.670  17.976 -0.2919 -0.0909  0.2919
  811TIP3    H126628   2.849   7.650  17.901  0.3032  0.7339 -0.3983
  811TIP3    H226629   2.913   7.587  18.023 -0.0659 -0.8432 -1.0005
  812TIP3   OH226630   6.254   5.487  17.241 -0.1023 -0.2583  0.7457
  812TIP3    H126631   6.230   5.414  17.185  1.7018 -0.1265 -0.2798
  812TIP3    H226632   6.224   5.462  17.329 -1.2213 -1.3415  0.0750
  813TIP3   OH226633   4.427   3.336  19.261  0.1606  0.1471 -0.2853
  813TIP3    H126634   4.521   3.351  19.276 -0.0124  2.1196 -0.8739
  813TIP3    H226635   4.384   3.383  19.332 -0.4140  0.8357 -1.0720
  814TIP3   OH226636   7.343   6.296  17.160  0.2433  0.0196 -0.0226
  814TIP3    H126637   7.390   6.340  17.230  0.7599 -0.4760 -0.0533
  814TIP3    H226638   7.369   6.341  17.080  0.6278 -0.2198 -0.0336
  815TIP3   OH226639   3.978   7.135  19.434  0.2043  0.1948 -0.1407
  815TIP3    H126640   3.936   7.214  19.468 -1.5003 -0.3872 -0.7957
  815TIP3    H226641   3.952   7.130  19.343  3.4600  0.8955 -1.2453
  816TIP3   OH226642   5.785   6.460  18.169 -0.2204 -0.2623  0.2726
  816TIP3    H126643   5.723   6.511  18.220 -1.6029 -0.3122 -1.2757
  816TIP3    H226644   5.749   6.459  18.080  1.6771 -0.8352 -0.5510
  817TIP3   OH226645   2.355   0.920  17.413  0.1841 -0.4096  0.2141
  817TIP3    H126646   2.311   0.836  17.404 -1.4885  0.3315  1.1246
  817TIP3    H226647   2.285   0.982  17.431  1.2564  1.3659 -1.3734
  818TIP3   OH226648   6.252   3.852  17.381 -0.4422  0.3812 -0.1716
  818TIP3    H126649   6.232   3.799  17.304 -1.1182  1.5853 -0.8670
  818TIP3    H226650   6.175   3.909  17.391 -0.2892  0.3753  1.2917
  819TIP3   OH226651   6.790   1.802  19.095  0.3844 -0.5695 -0.0622
  819TIP3    H126652   6.848   1.731  19.067 -1.1070 -1.3942 -1.2585
  819TIP3    H226653   6.823   1.879  19.049  1.7546 -0.5444  0.9015
  820TIP3   OH226654   1.382   0.890  18.441 -0.4686  0.0428  0.3715
  820TIP3    H126655   1.420   0.849  18.518 -1.0623  0.1110  0.7021
  820TIP3    H226656   1.307   0.835  18.417 -1.0144  0.6859  0.5686
  821TIP3   OH226657   3.931   0.624  17.690  0.1878  0.1302 -0.2113
  821TIP3    H126658   3.856   0.679  17.708 -0.1401 -0.7937  1.4559
  821TIP3    H226659   3.910   0.580  17.608 -0.2505  1.2594 -0.7171
  822TIP3   OH226660   1.079   0.709  18.417  0.9028  0.1767  0.3260
  822TIP3    H126661   1.091   0.803  18.406 -0.2836  0.3539  0.4836
  822TIP3    H226662   0.995   0.690  18.376  1.1266 -0.8223  0.3000
  823TIP3   OH226663   3.600   4.124  17.544  0.7655  0.0429  0.3151
  823TIP3    H126664   3.537   4.147  17.476 -0.2154 -1.7057  0.5752
  823TIP3    H226665   3.628   4.208  17.580 -1.5788  0.8818  0.3481
  824TIP3   OH226666   1.485   0.176  18.701 -0.0652 -0.0841  0.2773
  824TIP3    H126667   1.493   0.182  18.797 -2.3963  1.7977  0.4505
  824TIP3    H226668   1.391   0.183  18.685  0.4262  2.3322 -2.2580
  825TIP3   OH226669   2.326   3.519  18.971 -0.3334  0.1117 -0.2715
  825TIP3    H126670   2.256   3.530  18.908 -0.0318  0.4015 -0.5604
  825TIP3    H226671   2.293   3.557  19.052 -0.0382  1.3889 -0.7402
  826TIP3   OH226672   0.747   4.077  17.849  0.7966 -0.0882 -0.0031
  826TIP3    H126673   0.774   4.168  17.831 -1.0667  0.3415 -0.7837
  826TIP3    H226674   0.817   4.024  17.810  1.8086  0.9796  0.2659
  827TIP3   OH226675   1.584   6.197  16.754 -0.4110 -0.0676 -0.2149
  827TIP3    H126676   1.553   6.173  16.841  0.1890 -0.5736 -0.1339
  827TIP3    H226677   1.619   6.115  16.717 -1.7870 -0.1493 -1.4210
  828TIP3   OH226678   2.358   5.763  17.337  0.3819 -0.1996  0.3319
  828TIP3    H126679   2.287   5.745  17.276  0.1090  0.2433  0.5184
  828TIP3    H226680   2.382   5.677  17.372  0.3584 -0.4195 -0.1924
  829TIP3   OH226681   6.571   0.440  17.897  0.4397 -0.5012  0.2746
  829TIP3    H126682   6.659   0.466  17.924  0.6796 -0.5648 -0.4204
  829TIP3    H226683   6.521   0.522  17.895  1.2178 -0.0167 -1.9942
  830TIP3   OH226684   1.402   3.579  17.794 -0.2639 -0.3688  0.5689
  830TIP3    H126685   1.384   3.651  17.854 -2.3162 -0.3874  0.0437
  830TIP3    H226686   1.316   3.554  17.760  0.3377 -3.2414  0.9094
  831TIP3   OH226687   1.162   3.404  17.153 -0.1202  0.3662  0.1069
  831TIP3    H126688   1.176   3.492  17.186  0.9187 -1.6397  6.2887
  831TIP3    H226689   1.070   3.385  17.171 -0.1959 -0.0496 -0.6541
  832TIP3   OH226690   6.910   2.036  17.909 -0.7031  0.3541 -0.3252
  832TIP3    H126691   6.937   2.076  17.992  2.3065 -0.1450 -0.9210
  832TIP3    H226692   6.919   2.106  17.844  1.7939 -0.4040 -0.9139
  833TIP3   OH226693   7.423   4.360  19.460  0.4029 -0.2051  0.1937
  833TIP3    H126694   7.439   4.403  19.544 -1.6291 -0.1408  0.6149
  833TIP3    H226695   7.471   4.413  19.396  0.7333  0.6509  1.1246
  834TIP3   OH226696   2.593   6.711  18.077 -0.5646  0.0380 -0.0592
  834TIP3    H126697   2.650   6.726  18.153  1.0439 -2.7718 -0.5578
  834TIP3    H226698   2.633   6.763  18.007  0.7916 -1.0224 -0.1108
  835TIP3   OH226699   2.537   4.171  19.279 -0.0501 -0.1491  0.1267
  835TIP3    H126700   2.540   4.153  19.185 -2.2520  0.8317 -0.1990
  835TIP3    H226701   2.610   4.120  19.316 -0.1237 -1.8485 -1.8837
  836TIP3   OH226702   7.201   5.980  17.176  0.9807 -0.1735  0.0330
  836TIP3    H126703   7.174   5.895  17.142  0.2766  0.0669 -0.0180
  836TIP3    H226704   7.141   6.042  17.136  2.7394  0.6105 -1.5504
  837TIP3   OH226705   5.949   5.469  17.962  0.8126  0.0784  0.4853
  837TIP3    H126706   5.953   5.533  17.891  1.2065  0.5188  0.8889
  837TIP3    H226707   5.961   5.385  17.919 -1.5816  0.0763 -0.2934
  838TIP3   OH226708   0.600   7.324  17.691 -0.3076  0.4152 -0.4737
  838TIP3    H126709   0.686   7.331  17.732 -1.0134  1.3077  0.9523
  838TIP3    H226710   0.556   7.406  17.715 -0.7036  1.1521 -3.3150
  839TIP3   OH226711   2.610   0.271  18.309 -1.0237 -0.0744  0.5363
  839TIP3    H126712   2.668   0.227  18.247 -0.4805  0.4105  0.7008
  839TIP3    H226713   2.531   0.216  18.309  0.1171 -1.8396  1.7400
  840TIP3   OH226714   0.266   1.702  18.602 -0.4569 -0.2807 -0.0037
  840TIP3    H126715   0.308   1.650  18.671  0.0151  1.2639  0.9223
  840TIP3    H226716   0.230   1.778  18.648  1.0585  1.5103 -1.6160
  841TIP3   OH226717   0.238   5.213  17.592 -0.0247 -0.0800  0.5023
  841TIP3    H126718   0.233   5.142  17.657  0.3645  0.2681  0.9150
  841TIP3    H226719   0.153   5.210  17.548 -0.0747 -0.7012  0.6252
  842TIP3   OH226720   1.187   3.076  18.343  0.4580  0.1115  0.0922
  842TIP3    H126721   1.251   3.125  18.291  0.5675 -2.2757 -2.1882
  842TIP3    H226722   1.149   3.013  18.283 -1.1732 -1.2533  2.3797
  843TIP3   OH226723   3.929   4.174  17.860  0.4195 -0.5343  0.0031
  843TIP3    H126724   3.861   4.201  17.798 -0.6015 -1.0571  0.8639
  843TIP3    H226725   3.889   4.185  17.946  2.2346  1.3166  0.6709
  844TIP3   OH226726   2.838   3.921  18.444  0.4256 -0.1276  0.1581
  844TIP3    H126727   2.781   3.848  18.471  0.6485 -0.2079  0.4148
  844TIP3    H226728   2.892   3.885  18.374 -0.4915  0.2210 -0.7507
  845TIP3   OH226729   1.383   5.197  17.282 -0.1195 -0.1442  0.3556
  845TIP3    H126730   1.454   5.262  17.280 -0.6759  0.5162  1.1015
  845TIP3    H226731   1.378   5.171  17.374 -2.3288  1.5358  0.7974
  846TIP3   OH226732   0.272   1.001  17.707 -0.3622 -0.5814 -0.0808
  846TIP3    H126733   0.320   0.982  17.626 -3.0780 -1.2249 -1.7090
  846TIP3    H226734   0.267   0.917  17.752  1.1320 -0.2280  0.7769
  847TIP3   OH226735   4.252   3.831  17.035  0.1522  0.0877  0.3196
  847TIP3    H126736   4.278   3.898  16.971  1.5430 -0.5105  0.2339
  847TIP3    H226737   4.303   3.851  17.113  0.6987 -0.9697  0.2414
  848TIP3   OH226738   2.856   5.171  19.079 -0.4153  0.6120  0.5557
  848TIP3    H126739   2.839   5.255  19.036  1.7207  0.5525 -0.5410
  848TIP3    H226740   2.951   5.165  19.082 -0.4547 -2.4771 -0.9015
  849TIP3   OH226741   2.679   3.468  17.857 -0.0356 -0.3293  0.1969
  849TIP3    H126742   2.757   3.436  17.903 -0.6958  0.6559  2.0740
  849TIP3    H226743   2.702   3.557  17.830 -0.7384  0.2376  1.4064
  850TIP3   OH226744   4.176   2.996  19.794  0.1035  0.6542  0.0391
  850TIP3    H126745   4.244   3.030  19.852  2.1188 -1.4255 -0.9383
  850TIP3    H226746   4.142   3.073  19.749  0.3841  1.9915  1.9854
  851TIP3   OH226747   0.782   4.245  17.385  0.4033 -0.0490 -0.3554
  851TIP3    H126748   0.696   4.209  17.406  0.8680 -0.9132  0.1056
  851TIP3    H226749   0.765   4.336  17.359 -0.6047 -0.1255  0.0260
  852TIP3   OH226750   1.117   3.687  18.360 -0.2066 -0.1790  0.3592
  852TIP3    H126751   1.141   3.767  18.406  0.3373  0.4819 -1.0033
  852TIP3    H226752   1.199   3.638  18.353 -0.0608  0.2004 -0.7646
  853TIP3   OH226753   4.597   7.070  18.379  0.6830 -0.0164  0.5848
  853TIP3    H126754   4.529   7.078  18.312  0.2647 -0.4052  0.9553
  853TIP3    H226755   4.633   7.159  18.387 -0.0357  0.2779  0.6456
  854TIP3   OH226756   1.731   2.842  17.231  0.5586 -0.5235 -0.7897
  854TIP3    H126757   1.741   2.888  17.148 -1.3227 -0.8052 -1.2112
  854TIP3    H226758   1.716   2.911  17.295 -1.0422 -0.4225 -1.2243
  855TIP3   OH226759   3.439   2.882  17.559  0.2581 -0.2429  0.3412
  855TIP3    H126760   3.508   2.944  17.583  0.3780 -0.6578  1.1054
  855TIP3    H226761   3.478   2.829  17.488  0.7768 -0.5558  0.8487
  856TIP3   OH226762   2.454   0.630  17.302  0.2932 -0.2997 -0.6747
  856TIP3    H126763   2.368   0.640  17.342  0.2441  0.3355 -0.9198
  856TIP3    H226764   2.438   0.579  17.222  0.1238 -0.0763 -0.7836
  857TIP3   OH226765   2.130   3.810  17.845  0.4636 -0.0072  0.8470
  857TIP3    H126766   2.164   3.797  17.757 -2.1611  3.1831 -0.8826
  857TIP3    H226767   2.204   3.789  17.903  1.7442 -4.0254 -1.8519
  858TIP3   OH226768   6.135   2.487  19.230 -0.0903 -0.2287  0.1956
  858TIP3    H126769   6.210   2.547  19.234  0.2729 -0.6080 -0.7464
  858TIP3    H226770   6.091   2.509  19.149 -1.0156 -0.0222  0.7380
  859TIP3   OH226771   6.346   5.181  18.052  0.2151 -0.7105  0.1504
  859TIP3    H126772   6.433   5.151  18.026 -0.2632  0.4510 -3.3332
  859TIP3    H226773   6.286   5.130  17.996 -1.0369  1.3138 -0.4514
  860TIP3   OH226774   4.046   5.757  18.613 -0.2189  0.0703  0.9115
  860TIP3    H126775   4.130   5.710  18.615  0.2669  0.5251 -2.8842
  860TIP3    H226776   4.070   5.849  18.621  0.1103  0.4673 -3.0829
  861TIP3   OH226777   2.839   0.427  18.351  0.4139 -0.1857 -0.0154
  861TIP3    H126778   2.806   0.491  18.414  0.4710 -0.9517  0.8082
  861TIP3    H226779   2.767   0.365  18.341  0.5266 -0.2506 -0.4753
  862TIP3   OH226780   1.670   7.491  17.115  0.2674 -0.2388 -0.0453
  862TIP3    H126781   1.720   7.437  17.177 -0.6468 -0.3331  0.6205
  862TIP3    H226782   1.589   7.512  17.161 -1.6411 -2.4675 -2.1208
  863TIP3   OH226783   1.123   3.623  19.589  0.2793 -0.0110  0.3904
  863TIP3    H126784   1.147   3.536  19.620  1.0279 -0.4277 -1.2491
  863TIP3    H226785   1.044   3.610  19.536  0.0406  0.3953  0.6391
  864TIP3   OH226786   1.486   4.423  17.516  0.8268  0.0095  0.0670
  864TIP3    H126787   1.512   4.512  17.541 -1.0894  0.5065  0.4416
  864TIP3    H226788   1.488   4.423  17.420 -1.4366  1.2528 -0.0460
  865TIP3   OH226789   5.943   4.511  19.207  0.3243  0.2527  0.1193
  865TIP3    H126790   6.003   4.442  19.179 -0.3641 -2.0715  3.7459
  865TIP3    H226791   5.978   4.540  19.291 -2.6838 -0.0770  1.6021
  866TIP3   OH226792   5.829   4.853  17.499  0.0141 -0.4471  0.0830
  866TIP3    H126793   5.758   4.830  17.438  0.3110  1.0958 -0.8990
  866TIP3    H226794   5.786   4.859  17.584 -0.7038 -1.1889 -0.2114
  867TIP3   OH226795   0.528   6.558  18.613 -0.0939 -0.7518  0.1598
  867TIP3    H126796   0.483   6.639  18.591 -0.7929 -1.3823 -0.7950
  867TIP3    H226797   0.483   6.490  18.562 -0.0502 -1.8757  1.5377
  868TIP3   OH226798   0.010   0.827  18.617  0.2622  0.6889  0.3367
  868TIP3    H126799   0.032   0.734  18.620  2.8749  1.2537  0.2927
  868TIP3    H226800  -0.070   0.830  18.565  0.3965 -1.4756 -0.1103
  869TIP3   OH226801   0.864   3.002  18.126  0.4732 -0.2701  0.2031
  869TIP3    H126802   0.804   2.940  18.084 -0.4943 -0.4431  1.7914
  869TIP3    H226803   0.917   2.948  18.185  1.6066  0.0182 -0.5106
  870TIP3   OH226804   0.865   7.028  19.067 -0.3572 -0.1213 -0.1577
  870TIP3    H126805   0.939   6.973  19.092 -1.0852 -0.8373  0.4951
  870TIP3    H226806   0.904   7.111  19.039  0.6663 -0.3327  0.5860
  871TIP3   OH226807   0.414   6.909  19.150  0.3176 -0.3834  0.4018
  871TIP3    H126808   0.408   6.852  19.073  1.0430  1.0051 -0.7304
  871TIP3    H226809   0.502   6.893  19.185 -0.0767 -1.1488  1.0925
  872TIP3   OH226810   0.193   4.359  18.508 -0.2183 -0.4259 -0.1803
  872TIP3    H126811   0.186   4.335  18.601  0.5418 -0.0257 -0.0107
  872TIP3    H226812   0.128   4.429  18.496  1.8861  1.8734  0.8794
  873TIP3   OH226813   5.644   6.574  18.817 -0.8877 -0.2579  0.1730
  873TIP3    H126814   5.581   6.502  18.815 -1.8537  0.5642 -2.0541
  873TIP3    H226815   5.590   6.652  18.808  0.2859  0.6362  0.7755
  874TIP3   OH226816   1.759   6.682  16.565  0.5802 -0.0881 -0.1464
  874TIP3    H126817   1.773   6.773  16.591  1.5592 -0.4374  0.5962
  874TIP3    H226818   1.674   6.683  16.520  0.6405  1.2040 -0.2661
  875TIP3   OH226819   3.164   0.177  17.124  0.2067 -0.3466  0.2228
  875TIP3    H126820   3.142   0.196  17.215  1.5877  3.4778 -0.0586
  875TIP3    H226821   3.260   0.177  17.122  0.2129 -1.3628 -1.1089
  876TIP3   OH226822   5.245   6.476  17.357 -0.4432  0.0350  0.2274
  876TIP3    H126823   5.187   6.494  17.283  0.6336 -1.5125 -1.0496
  876TIP3    H226824   5.330   6.508  17.329  0.6624 -3.1809 -0.5392
  877TIP3   OH226825   3.850   6.362  18.611  0.2686 -0.3178  0.2866
  877TIP3    H126826   3.867   6.311  18.532  1.6608  0.2578  0.1873
  877TIP3    H226827   3.829   6.297  18.678  0.5360 -0.9194 -0.2105
  878TIP3   OH226828   3.226   0.998  18.031 -0.5021 -0.3497  0.6157
  878TIP3    H126829   3.206   1.047  17.952 -0.8951 -1.0156  0.2928
  878TIP3    H226830   3.226   1.064  18.101  2.0740  0.6502 -0.2107
  879TIP3   OH226831   0.580   5.189  19.002 -0.1397  0.2533 -0.3565
  879TIP3    H126832   0.515   5.244  18.959 -0.8625 -0.4969 -0.2561
  879TIP3    H226833   0.534   5.106  19.017  0.1491  0.4084  1.6773
  880TIP3   OH226834   5.744   6.586  16.886  0.5112  0.2137 -0.3662
  880TIP3    H126835   5.821   6.614  16.838  1.4372 -1.2072  0.2081
  880TIP3    H226836   5.731   6.495  16.860  0.5210 -0.3288  1.3766
  881TIP3   OH226837   4.708   1.188  17.353  0.2996 -0.5926 -0.4748
  881TIP3    H126838   4.671   1.277  17.351  1.1792 -0.1875  0.4359
  881TIP3    H226839   4.667   1.148  17.429  1.9648 -0.0055  0.7857
  882TIP3   OH226840   3.839   7.141  19.216 -0.3472  0.1039 -0.1426
  882TIP3    H126841   3.895   7.112  19.144 -1.1355  0.4131 -0.8994
  882TIP3    H226842   3.787   7.212  19.179 -0.5563  0.4701  0.8239
  883TIP3   OH226843   0.310   5.408  17.002 -0.7251  0.0065 -0.3200
  883TIP3    H126844   0.236   5.347  17.001  0.5114 -1.5549 -0.3657
  883TIP3    H226845   0.382   5.358  17.039 -0.1397  2.0751  1.5155
  884TIP3   OH226846   4.672   3.505  18.693  0.2890  0.2318 -0.7524
  884TIP3    H126847   4.684   3.440  18.625  0.2365  0.0700 -0.6095
  884TIP3    H226848   4.578   3.501  18.713 -0.2414  2.1214 -2.5086
  885TIP3   OH226849   5.391   6.260  18.280 -0.4101  0.1716  0.3336
  885TIP3    H126850   5.473   6.210  18.283  0.4895  1.6010  0.4918
  885TIP3    H226851   5.325   6.196  18.254  0.9466 -0.7818 -0.9457
  886TIP3   OH226852   2.274   1.904  18.732 -0.0454 -0.4458 -0.0129
  886TIP3    H126853   2.340   1.837  18.749 -1.2055 -1.2392  1.6395
  886TIP3    H226854   2.219   1.866  18.664 -1.0125 -1.4798  1.2836
  887TIP3   OH226855   6.887   0.740  19.409  0.5482 -0.7003 -0.3722
  887TIP3    H126856   6.860   0.653  19.378  0.4822 -0.2882 -1.5164
  887TIP3    H226857   6.833   0.801  19.359  0.0337 -0.0019  0.9936
  888TIP3   OH226858   6.269   4.415  17.495 -0.8923  0.1250 -0.5597
  888TIP3    H126859   6.288   4.430  17.402  0.3465 -2.4934 -0.8401
  888TIP3    H226860   6.274   4.320  17.505 -1.3799  0.3007  2.1285
  889TIP3   OH226861   7.522   6.299  17.832 -0.3242 -0.1429 -0.1262
  889TIP3    H126862   7.527   6.288  17.927  0.2687 -2.0270 -0.3375
  889TIP3    H226863   7.612   6.318  17.805 -0.3778 -0.2548 -0.3855
  890TIP3   OH226864   1.025   4.323  18.160  0.1383  0.5275  0.1240
  890TIP3    H126865   1.048   4.264  18.088 -0.5236  0.0279  0.3162
  890TIP3    H226866   0.936   4.352  18.140 -1.5303 -2.4011  2.4858
  891TIP3   OH226867   5.320   4.625  18.475  0.5910 -0.2870  0.4954
  891TIP3    H126868   5.327   4.606  18.568 -2.1523  0.8470  1.0306
  891TIP3    H226869   5.348   4.544  18.432 -0.0146 -1.5489  2.3488
  892TIP3   OH226870   6.222   4.424  17.072 -0.2944 -0.1536  0.1623
  892TIP3    H126871   6.167   4.357  17.112  1.7008 -0.6710  2.3108
  892TIP3    H226872   6.163   4.498  17.056 -2.1095 -1.6350 -0.2333
  893TIP3   OH226873   5.872   3.462  17.765 -0.5306  0.0729  0.1879
  893TIP3    H126874   5.901   3.425  17.848  0.1976 -0.9784 -0.4987
  893TIP3    H226875   5.865   3.556  17.781  0.0197 -0.0601  1.3049
  894TIP3   OH226876   2.833   1.371  17.917  0.4099  0.4219  0.3757
  894TIP3    H126877   2.774   1.432  17.963 -1.2912 -1.0944  0.3331
  894TIP3    H226878   2.860   1.309  17.985 -1.3858 -1.2893 -0.3684
  895TIP3   OH226879   1.109   6.842  18.675 -0.1128  0.1629  0.4612
  895TIP3    H126880   1.097   6.869  18.766 -1.4886  1.3171 -0.0279
  895TIP3    H226881   1.026   6.862  18.633  0.8607  0.6847 -1.3054
  896TIP3   OH226882   4.474   7.009  17.238  0.1756 -0.3538 -0.2270
  896TIP3    H126883   4.385   7.041  17.227  0.4878  0.3966 -0.6812
  896TIP3    H226884   4.479   6.983  17.330 -0.4640 -0.2635 -0.1620
  897TIP3   OH226885   1.923   6.254  17.384 -0.4285 -0.0606  0.1065
  897TIP3    H126886   1.956   6.343  17.396  0.5092 -0.2541 -0.9108
  897TIP3    H226887   1.962   6.204  17.455  1.9232 -0.3757 -1.2869
  898TIP3   OH226888   6.481   6.056  18.549 -0.3097 -0.9229  0.5872
  898TIP3    H126889   6.491   5.963  18.529 -0.2159 -0.5141 -1.3987
  898TIP3    H226890   6.570   6.088  18.561 -0.2497 -0.7790 -0.2354
  899TIP3   OH226891   3.058   0.681  19.241  0.2514 -0.3926 -0.1267
  899TIP3    H126892   2.967   0.656  19.226  0.4438 -0.7811 -0.6525
  899TIP3    H226893   3.052   0.770  19.276 -0.3107 -0.2851 -0.4823
  900TIP3   OH226894   1.203   5.911  17.976  0.0640 -0.3399 -0.0637
  900TIP3    H126895   1.217   5.918  17.881  1.4092 -0.5325  0.1032
  900TIP3    H226896   1.232   5.822  17.997 -0.4742 -0.3851  0.4995
  901TIP3   OH226897   3.440   2.055  18.201  0.4629 -0.6885 -0.2868
  901TIP3    H126898   3.423   2.140  18.162 -1.9167 -1.1239 -0.3246
  901TIP3    H226899   3.397   2.059  18.287  0.0418 -1.9490 -0.4251
  902TIP3   OH226900   3.197   5.073  16.824  0.0665 -0.1456 -0.3581
  902TIP3    H126901   3.200   4.987  16.782 -2.5955 -0.5193  0.0576
  902TIP3    H226902   3.148   5.058  16.905 -0.8249  1.8187 -0.4796
  903TIP3   OH226903   1.145   5.406  17.223 -0.0037  0.3610  0.1239
  903TIP3    H126904   1.050   5.398  17.232 -0.1498 -0.1308 -1.4938
  903TIP3    H226905   1.167   5.345  17.152  1.2336  1.9321 -0.9213
  904TIP3   OH226906   3.134   7.635  19.141 -0.1088  0.1577 -0.0571
  904TIP3    H126907   3.098   7.659  19.227 -0.9067  0.2670 -0.4088
  904TIP3    H226908   3.073   7.673  19.078 -0.4295 -1.2501 -0.6500
  905TIP3   OH226909   7.440   5.573  16.984 -0.0652  0.3384 -0.2123
  905TIP3    H126910   7.361   5.588  16.932  0.5754 -0.3564 -1.4518
  905TIP3    H226911   7.512   5.601  16.927  0.5522  2.6912  1.5558
  906TIP3   OH226912   4.331   2.571  18.064  0.4665 -0.0558  0.3506
  906TIP3    H126913   4.365   2.660  18.062 -1.1997  0.6111 -0.2539
  906TIP3    H226914   4.405   2.516  18.038  1.4566  1.1651  0.5131
  907TIP3   OH226915   5.475   4.255  18.565 -0.4690 -0.1926  0.2175
  907TIP3    H126916   5.492   4.246  18.659 -0.5242 -0.4495  0.2046
  907TIP3    H226917   5.379   4.262  18.559 -0.5490 -1.2770  0.0995
  908TIP3   OH226918   0.646   7.389  18.004 -0.4027 -0.0192  0.1271
  908TIP3    H126919   0.580   7.321  18.020 -0.9231  0.2414 -0.8210
  908TIP3    H226920   0.623   7.458  18.066  1.0717 -1.2713  2.2264
  909TIP3   OH226921   3.577   2.460  17.716 -0.1083  0.3024 -0.1842
  909TIP3    H126922   3.645   2.521  17.688 -0.6870  0.9051 -0.3129
  909TIP3    H226923   3.605   2.375  17.683  0.1022  0.7024 -1.0509
  910TIP3   OH226924   6.717   2.431  18.677 -0.2647  0.2138 -0.3739
  910TIP3    H126925   6.705   2.469  18.764  1.5098  0.0250 -0.0174
  910TIP3    H226926   6.727   2.506  18.619  2.0071  0.3784  0.1446
  911TIP3   OH226927   3.229   1.560  17.281  0.0731  0.3979  0.2088
  911TIP3    H126928   3.298   1.599  17.227  1.0482 -1.6148 -0.0836
  911TIP3    H226929   3.179   1.505  17.221 -0.0388 -0.3537  0.9655
  912TIP3   OH226930   4.102   0.791  18.651 -0.2654  0.2241  0.1518
  912TIP3    H126931   4.014   0.819  18.625 -0.5001 -0.3878  0.2740
  912TIP3    H226932   4.087   0.731  18.724  0.2479  0.0099  0.0808
  913TIP3   OH226933   0.047   7.673  19.196 -0.4378 -0.4316 -0.1094
  913TIP3    H126934  -0.041   7.644  19.221  0.0381 -1.3360  0.5669
  913TIP3    H226935   0.049   7.765  19.219 -0.9349 -0.6009  0.6571
  914TIP3   OH226936   7.394   6.010  17.382  0.1928  0.0268 -0.1503
  914TIP3    H126937   7.349   6.001  17.298  1.9244 -1.7161 -0.9651
  914TIP3    H226938   7.435   6.097  17.378 -1.9524  1.0974  0.0818
  915TIP3   OH226939   4.547   0.984  18.583 -0.3210 -0.0444  0.5403
  915TIP3    H126940   4.642   0.972  18.576 -0.0005  2.0318  0.5950
  915TIP3    H226941   4.529   1.060  18.527 -1.4822  1.3427  2.6636
  916TIP3   OH226942   0.516   6.611  17.938 -0.0858  0.3063  0.6140
  916TIP3    H126943   0.602   6.592  17.976  0.0177 -0.4861  0.0402
  916TIP3    H226944   0.455   6.607  18.011  0.4131  1.2836  1.0970
  917TIP3   OH226945   6.358   1.211  18.392 -0.4259  0.4797  0.1383
  917TIP3    H126946   6.403   1.129  18.372 -0.6376  0.3800  0.0644
  917TIP3    H226947   6.358   1.216  18.487  1.8725  1.6596  0.1595
  918TIP3   OH226948   1.115   7.136  19.397 -0.2235 -0.0764 -0.2368
  918TIP3    H126949   1.133   7.122  19.304  0.3646 -2.2047  0.1300
  918TIP3    H226950   1.074   7.222  19.401 -1.0804 -0.2874 -2.5802
  919TIP3   OH226951   5.618   1.421  19.290 -0.0187  0.7126  0.2331
  919TIP3    H126952   5.629   1.357  19.219  1.4520  2.4056 -1.1696
  919TIP3    H226953   5.644   1.374  19.369 -0.5087 -0.8743 -0.5156
  920TIP3   OH226954   6.170   0.222  17.420 -0.1663 -0.4473 -0.5536
  920TIP3    H126955   6.178   0.222  17.324  0.5608  2.3408 -0.5946
  920TIP3    H226956   6.193   0.312  17.445  0.0710 -1.2187  2.2856
  921TIP3   OH226957   2.535   3.986  19.021 -0.4074 -0.3451  0.2040
  921TIP3    H126958   2.565   4.013  18.934 -0.2108 -0.4959  0.2224
  921TIP3    H226959   2.599   3.920  19.049  0.0940  0.4045  0.8674
  922TIP3   OH226960   0.026   5.047  19.143  0.0613  0.0912 -0.1607
  922TIP3    H126961  -0.019   5.057  19.059 -1.2708 -1.6861  0.2834
  922TIP3    H226962  -0.029   5.095  19.205 -1.0218 -1.6422  0.2896
  923TIP3   OH226963   2.066   1.000  19.081  0.4921  0.1009  0.0224
  923TIP3    H126964   2.022   1.033  19.003  1.5488  1.1983 -0.1323
  923TIP3    H226965   1.995   0.976  19.140 -0.3325 -0.7650 -1.2639
  924TIP3   OH226966   5.389   1.999  18.249 -0.4609 -0.2488  0.1963
  924TIP3    H126967   5.328   1.926  18.261 -0.4875 -0.1131  0.9236
  924TIP3    H226968   5.410   1.997  18.155  0.9689 -2.3403  0.4682
  925TIP3   OH226969   3.886   3.401  19.431 -0.0388 -0.5561 -0.4176
  925TIP3    H126970   3.868   3.309  19.451  0.5311 -0.6873 -0.5057
  925TIP3    H226971   3.862   3.411  19.339  0.0619 -0.6619 -0.4560
  926TIP3   OH226972   5.639   6.178  17.738  0.0851 -0.0258 -0.3577
  926TIP3    H126973   5.574   6.213  17.799  1.0918  2.2035 -0.4633
  926TIP3    H226974   5.701   6.130  17.793 -0.3055 -0.0564  0.0622
  927TIP3   OH226975   1.733   0.547  17.962  0.4231 -0.0336 -0.0116
  927TIP3    H126976   1.761   0.456  17.970  0.1835 -0.1852 -0.7814
  927TIP3    H226977   1.761   0.589  18.043  0.2625 -0.8705  0.4784
  928TIP3   OH226978   5.423   1.609  19.513 -0.1549  0.7910 -0.0293
  928TIP3    H126979   5.410   1.589  19.420 -1.0392  0.0127  0.2384
  928TIP3    H226980   5.494   1.672  19.515  2.2369 -1.6617 -1.0431
  929TIP3   OH226981   3.055   0.936  18.353 -0.1340 -0.0672 -0.2865
  929TIP3    H126982   3.014   0.944  18.267 -0.0919  1.2874 -0.2098
  929TIP3    H226983   3.051   1.025  18.389  0.9250 -0.3698  0.6166
  930TIP3   OH226984   1.872   0.492  18.251 -0.2555 -0.0147  0.4747
  930TIP3    H126985   1.839   0.524  18.335 -2.1985 -0.3686 -0.0885
  930TIP3    H226986   1.877   0.397  18.262  1.4481  0.0801  0.7984
  931TIP3   OH226987   3.056   5.414  19.323 -0.4639 -0.5908  0.0225
  931TIP3    H126988   3.046   5.341  19.383 -0.7242  0.6702  1.5610
  931TIP3    H226989   3.000   5.483  19.359 -0.8933  0.1021 -1.8587
  932TIP3   OH226990   1.745   4.423  18.168  0.3363  0.2058  0.1536
  932TIP3    H126991   1.781   4.408  18.255  0.5920 -1.6946 -0.2296
  932TIP3    H226992   1.809   4.480  18.125  0.5045  0.6736  1.0029
  933TIP3   OH226993   0.025   4.666  17.369 -0.0059 -0.4141  0.2008
  933TIP3    H126994   0.107   4.619  17.386 -0.5011 -0.9850  1.0784
  933TIP3    H226995  -0.027   4.606  17.317 -0.4851 -0.7042  0.9934
  934TIP3   OH226996   2.708   5.335  17.218 -0.1415 -0.3793 -0.0748
  934TIP3    H126997   2.691   5.242  17.207 -0.3062 -0.5731  1.5172
  934TIP3    H226998   2.787   5.339  17.272 -0.7049  0.3728  0.7214
  935TIP3   OH226999   6.084   0.396  18.218  0.2315 -0.3528 -0.2684
  935TIP3    H127000   6.132   0.331  18.166 -0.2944 -1.3296  0.4346
  935TIP3    H227001   6.112   0.481  18.182  0.3721 -0.9740 -1.6922
  936TIP3   OH227002   1.275   2.974  19.236  0.2922 -0.2102 -0.2092
  936TIP3    H127003   1.216   3.003  19.305 -0.2454  1.9339 -1.4666
  936TIP3    H227004   1.363   2.987  19.272  0.0279  1.3026 -0.0461
  937TIP3   OH227005   4.840   3.016  17.962 -0.7929 -0.0119  0.8120
  937TIP3    H127006   4.933   3.027  17.982 -0.8164  1.5159  0.1642
  937TIP3    H227007   4.801   2.988  18.045  0.2322 -0.7678  1.0737
  938TIP3   OH227008   2.932   5.304  17.352  0.2030  0.1558 -0.3448
  938TIP3    H127009   2.909   5.248  17.426  0.2661 -1.1478 -1.2779
  938TIP3    H227010   3.028   5.308  17.354  0.1564  1.5691  0.6477
  939TIP3   OH227011   1.818   0.285  18.906 -0.0855 -0.1604  0.5287
  939TIP3    H127012   1.906   0.258  18.931 -0.0814 -0.1213  0.5552
  939TIP3    H227013   1.766   0.275  18.986  0.1464  0.9492  0.8275
  940TIP3   OH227014   4.675   3.723  18.883 -0.3781  0.5394 -0.4944
  940TIP3    H127015   4.665   3.643  18.832 -0.5925 -0.3395  0.8611
  940TIP3    H227016   4.601   3.722  18.943  1.9534 -0.6497  2.6372
  941TIP3   OH227017   6.293   1.882  19.011  0.0153  0.6182 -0.4844
  941TIP3    H127018   6.367   1.917  19.061 -2.3138  1.8889  2.3996
  941TIP3    H227019   6.333   1.837  18.937  3.5636  2.8522 -0.1786
  942TIP3   OH227020   2.239   6.511  16.559  0.0904  0.1192  0.3462
  942TIP3    H127021   2.246   6.416  16.571  0.8470 -0.2007 -2.1953
  942TIP3    H227022   2.229   6.545  16.648 -1.6337 -2.4303  1.2329
  943TIP3   OH227023   1.498   4.065  18.024  0.3074  0.1096  0.2296
  943TIP3    H127024   1.470   3.983  17.984  0.6135  0.2599 -0.3048
  943TIP3    H227025   1.461   4.133  17.967 -0.0675  0.3487  0.7481
  944TIP3   OH227026   3.042   3.172  18.172  0.1410  0.0123 -0.5393
  944TIP3    H127027   2.965   3.116  18.161 -1.5435  2.0754  0.1258
  944TIP3    H227028   3.045   3.190  18.266  1.9051 -0.6083 -0.4436
  945TIP3   OH227029   0.887   2.463  19.660  0.2015  0.0803  0.3378
  945TIP3    H127030   0.967   2.456  19.713 -0.7615 -0.6693  1.7867
  945TIP3    H227031   0.886   2.553  19.629  0.9779  0.4670  1.3681
  946TIP3   OH227032   1.546   5.000  18.960 -0.2713  0.2617 -0.7400
  946TIP3    H127033   1.636   5.020  18.986 -0.1941 -0.1683 -0.6597
  946TIP3    H227034   1.497   5.080  18.978 -0.1891  0.0325  0.6062
  947TIP3   OH227035   0.973   6.446  18.134 -0.4404  0.6849  0.3323
  947TIP3    H127036   1.053   6.415  18.092 -0.6255 -2.7772  2.1414
  947TIP3    H227037   1.001   6.521  18.187  1.2635  0.4621 -0.1875
  948TIP3   OH227038   1.086   3.359  18.195  0.1085 -0.3615 -0.7322
  948TIP3    H127039   1.130   3.360  18.280 -0.4254  0.7693 -0.4443
  948TIP3    H227040   1.015   3.296  18.205 -0.7548  0.6861  0.1216
  949TIP3   OH227041   5.507   6.746  17.780  0.3039  0.0979 -0.2017
  949TIP3    H127042   5.493   6.835  17.813  2.2758  0.3979 -0.0296
  949TIP3    H227043   5.568   6.758  17.707  0.0467 -1.0671 -0.6254
  950TIP3   OH227044   5.081   4.952  18.714  0.1033 -0.2539  0.4454
  950TIP3    H127045   5.053   5.011  18.783  0.4522  0.1399  0.2542
  950TIP3    H227046   5.001   4.927  18.668 -0.0766 -0.1696  0.7168
  951TIP3   OH227047   1.715   6.306  18.438 -0.4167  0.2616 -0.1704
  951TIP3    H127048   1.793   6.329  18.487 -0.8150 -0.8336  1.0053
  951TIP3    H227049   1.747   6.289  18.349  0.5309  0.7385  0.0649
  952TIP3   OH227050   6.128   7.169  18.397  0.1296  0.0202 -0.3881
  952TIP3    H127051   6.197   7.109  18.369 -1.1168 -1.2290 -0.9153
  952TIP3    H227052   6.049   7.135  18.354 -1.4789 -0.6336  2.8249
  953TIP3   OH227053   6.199   5.616  18.279 -0.2089 -0.4322 -0.5350
  953TIP3    H127054   6.105   5.632  18.276 -0.6126 -2.4318 -0.0368
  953TIP3    H227055   6.209   5.526  18.247  1.5703 -0.1869 -0.8023
  954TIP3   OH227056   7.479   0.569  19.496  0.0752 -0.1002 -0.2935
  954TIP3    H127057   7.573   0.552  19.505 -0.1540 -1.6536 -0.5968
  954TIP3    H227058   7.448   0.582  19.586  0.7453  1.5922 -0.2593
  955TIP3   OH227059   7.538   1.440  19.537  0.1857  0.1311 -0.3022
  955TIP3    H127060   7.469   1.437  19.602  0.7636 -0.0385  0.3173
  955TIP3    H227061   7.492   1.442  19.453 -0.5833 -1.7805  0.0195
  956TIP3   OH227062   2.792   2.744  18.597  0.7684 -0.0360 -0.4146
  956TIP3    H127063   2.805   2.828  18.642  0.7625  0.0593 -0.5877
  956TIP3    H227064   2.705   2.716  18.623 -0.0186  0.9329 -1.8102
  957TIP3   OH227065   5.340   6.898  17.163 -0.5822 -0.6907  0.0429
  957TIP3    H127066   5.406   6.840  17.126  0.5942 -0.3541  1.5333
  957TIP3    H227067   5.387   6.950  17.228 -1.8604  1.0864 -0.3754
  958TIP3   OH227068   7.537   7.173  18.843  0.2508  0.1040 -0.0023
  958TIP3    H127069   7.534   7.194  18.937  2.6876  0.1629  0.1250
  958TIP3    H227070   7.598   7.237  18.806 -1.4176  0.7035 -1.8570
  959TIP3   OH227071   4.913   2.735  17.303 -0.3979 -0.0861 -0.3374
  959TIP3    H127072   4.829   2.715  17.261 -0.9609  0.5047  0.4629
  959TIP3    H227073   4.948   2.649  17.328 -0.6256 -0.3545 -0.9332
  960TIP3   OH227074   4.964   3.328  18.944 -0.6138  0.2386  0.0885
  960TIP3    H127075   4.953   3.392  18.874  0.8728 -0.5198 -0.8919
  960TIP3    H227076   4.878   3.323  18.985 -1.2306  1.5282 -0.9634
  961TIP3   OH227077   2.507   0.676  18.437  0.0938  0.6503 -0.5003
  961TIP3    H127078   2.528   0.763  18.470  1.3727 -0.2691  1.2622
  961TIP3    H227079   2.499   0.688  18.342  0.2759  2.6609 -0.3082
  962TIP3   OH227080   7.461   3.799  16.843  0.4796 -0.7277  0.3922
  962TIP3    H127081   7.397   3.772  16.777  0.7834 -0.6506  0.0675
  962TIP3    H227082   7.538   3.746  16.825  0.5332 -0.7753  0.7472
  963TIP3   OH227083   5.128   1.988  18.019 -0.3231 -0.0797  0.1627
  963TIP3    H127084   5.090   1.924  17.960 -0.5320  0.6043 -0.4614
  963TIP3    H227085   5.222   1.984  18.002 -0.5350  1.4695 -1.6514
  964TIP3   OH227086   7.564   5.472  18.221 -0.5061 -0.0542 -0.3531
  964TIP3    H127087   7.589   5.504  18.134 -0.2808  0.7155 -0.0059
  964TIP3    H227088   7.468   5.471  18.218 -0.5255  0.8341 -0.3098
  965TIP3   OH227089   6.127   5.381  18.630 -0.0004 -0.0778 -0.0868
  965TIP3    H127090   6.176   5.306  18.596 -0.9210  0.1255 -1.9966
  965TIP3    H227091   6.084   5.349  18.709  2.1061 -0.6322  0.8928
  966TIP3   OH227092   6.612   2.074  17.840 -0.1767 -0.3556  0.0974
  966TIP3    H127093   6.618   2.013  17.767 -0.3233 -2.2321  1.5898
  966TIP3    H227094   6.702   2.083  17.872 -0.4797 -1.8847  1.4839
  967TIP3   OH227095   0.149   1.214  18.138 -0.0483 -0.2634 -0.5250
  967TIP3    H127096   0.232   1.193  18.182 -0.4973 -0.9308  0.0144
  967TIP3    H227097   0.176   1.261  18.059  0.7672  1.0422  0.4881
  968TIP3   OH227098   3.878   6.100  16.852  0.0929  0.0318  0.1120
  968TIP3    H127099   3.966   6.123  16.823  0.8118 -0.1002  2.0260
  968TIP3    H227100   3.857   6.020  16.805  0.5775  0.5764 -1.0796
  969TIP3   OH227101   4.586   1.176  17.615  0.1095 -0.1378 -0.2741
  969TIP3    H127102   4.491   1.186  17.605  0.0047 -0.1905  0.5869
  969TIP3    H227103   4.612   1.248  17.672  0.6239 -0.0064 -0.6677
  970TIP3   OH227104   1.706   6.293  19.498  0.0439  0.0692  0.1003
  970TIP3    H127105   1.638   6.327  19.556 -0.4009  0.5214 -0.6600
  970TIP3    H227106   1.670   6.212  19.463  0.7663 -0.7964  1.2774
  971TIP3   OH227107   0.893   0.343  18.702 -0.5409 -0.2063  0.6487
  971TIP3    H127108   0.912   0.299  18.619  0.0485  1.2393 -0.0034
  971TIP3    H227109   0.978   0.371  18.735 -0.7888 -0.5791  1.6566
  972TIP3   OH227110   5.681   7.142  17.077 -0.7332  0.0026 -0.5672
  972TIP3    H127111   5.758   7.191  17.049  0.0030 -1.1875 -0.6812
  972TIP3    H227112   5.618   7.155  17.006 -0.0581 -0.3118 -1.2361
  973TIP3   OH227113   7.281   0.745  18.484 -0.2954 -0.2651  0.7536
  973TIP3    H127114   7.341   0.815  18.455 -0.3263 -0.4933  0.1250
  973TIP3    H227115   7.194   0.775  18.456 -0.1371 -1.2429 -0.8821
  974TIP3   OH227116   1.649   3.111  18.616  0.4122 -0.5518  0.5125
  974TIP3    H127117   1.687   3.027  18.640  0.2334 -0.4500  1.1908
  974TIP3    H227118   1.717   3.154  18.564 -0.6610 -2.3574 -2.6447
  975TIP3   OH227119   2.857   0.681  17.794 -0.7299  0.3667  0.1835
  975TIP3    H127120   2.798   0.756  17.793 -1.5555 -0.2147  1.5282
  975TIP3    H227121   2.808   0.613  17.841  1.0149 -0.1219  1.4115
  976TIP3   OH227122   1.530   2.428  19.379 -0.0471 -0.0278 -0.4097
  976TIP3    H127123   1.440   2.428  19.348 -1.5951 -1.9575  3.4535
  976TIP3    H227124   1.564   2.342  19.356  0.0862 -0.0720 -0.0557
  977TIP3   OH227125   5.116   1.686  17.150 -0.3314  0.4558 -0.2269
  977TIP3    H127126   5.124   1.618  17.216 -3.8398  0.5054  0.4403
  977TIP3    H227127   5.074   1.643  17.075 -0.6074  1.3919 -0.6313
  978TIP3   OH227128   4.925   3.196  18.579  0.1857  0.5237  0.1296
  978TIP3    H127129   4.895   3.179  18.668 -2.6202  1.0088 -0.6303
  978TIP3    H227130   4.971   3.280  18.584 -0.1611  0.6594  1.0843
  979TIP3   OH227131   1.972   6.684  18.267 -0.4721  0.0343 -0.8843
  979TIP3    H127132   2.040   6.736  18.225  1.4613  0.4362  2.4030
  979TIP3    H227133   1.904   6.748  18.289  0.8546  0.8882  1.0563
  980TIP3   OH227134   1.141   1.156  17.862  0.1074 -0.2093  0.0508
  980TIP3    H127135   1.143   1.062  17.841 -1.8432 -0.4959  0.9424
  980TIP3    H227136   1.221   1.190  17.823 -0.0197 -1.9026 -1.9200
  981TIP3   OH227137   7.078   2.926  19.590  0.0922 -0.1968 -0.4511
  981TIP3    H127138   7.039   2.917  19.503  0.0637 -1.1425 -0.3500
  981TIP3    H227139   7.169   2.952  19.572 -0.4622  1.7390 -0.6887
  982TIP3   OH227140   4.994   5.117  19.340  0.4213 -0.3998  0.0103
  982TIP3    H127141   4.958   5.200  19.370 -0.0954 -0.2795 -0.8936
  982TIP3    H227142   5.041   5.138  19.260 -0.7910 -1.1354 -0.9452
  983TIP3   OH227143   4.899   2.738  19.437 -0.0198 -0.0618  0.0112
  983TIP3    H127144   4.917   2.662  19.493 -1.9563  0.0152  0.8357
  983TIP3    H227145   4.965   2.802  19.462  3.1785 -2.1561 -2.3239
  984TIP3   OH227146   0.387   5.391  18.924  0.5448 -0.6758  0.6160
  984TIP3    H127147   0.427   5.469  18.885 -1.0793 -0.0573  0.0991
  984TIP3    H227148   0.294   5.401  18.906  0.1095 -1.9352  1.9784
  985TIP3   OH227149   1.315   4.284  17.924  0.4268  0.0969 -0.1170
  985TIP3    H127150   1.330   4.315  18.014  1.8655  1.0334 -0.6403
  985TIP3    H227151   1.228   4.245  17.926  0.4366  0.0730  1.6951
  986TIP3   OH227152   1.839   3.264  18.483 -0.6356 -0.2136 -0.2696
  986TIP3    H127153   1.897   3.284  18.410 -0.9288 -0.5765 -0.6120
  986TIP3    H227154   1.850   3.336  18.544 -0.2314 -0.0104 -0.5823
  987TIP3   OH227155   6.481   2.854  18.721 -0.4721  0.0325 -0.2226
  987TIP3    H127156   6.441   2.770  18.700  0.2420 -0.3464 -0.0900
  987TIP3    H227157   6.514   2.887  18.637 -1.1869  0.4253 -0.3634
  988TIP3   OH227158   4.244   2.755  19.106 -0.1121 -1.0316  0.0198
  988TIP3    H127159   4.177   2.791  19.048 -0.4846 -0.5750  0.7379
  988TIP3    H227160   4.199   2.736  19.188  0.3344 -2.0352  0.0539
  989TIP3   OH227161   4.174   1.121  18.602  0.1926 -0.2334  0.4373
  989TIP3    H127162   4.090   1.082  18.578  0.2793 -0.1044 -0.0922
  989TIP3    H227163   4.190   1.091  18.691 -0.7927  0.3673  0.8428
  990TIP3   OH227164   0.454   3.499  18.910 -0.0151 -0.4097 -0.0479
  990TIP3    H127165   0.506   3.443  18.853 -1.1979 -0.9825 -0.5927
  990TIP3    H227166   0.422   3.568  18.853 -0.5693 -0.5502  0.0904
  991TIP3   OH227167   7.342   2.536  19.070 -0.7710  0.2370  0.4973
  991TIP3    H127168   7.414   2.595  19.093  1.2179 -1.3120 -1.2504
  991TIP3    H227169   7.348   2.529  18.974 -2.4525 -0.9306  0.4495
  992TIP3   OH227170   6.498   5.408  17.456  0.3338  0.2009 -0.0657
  992TIP3    H127171   6.532   5.384  17.543  2.1332  1.1579 -0.4486
  992TIP3    H227172   6.406   5.428  17.471  0.7468  0.9954  1.7801
  993TIP3   OH227173   2.647   3.552  19.479 -0.1819 -0.2662  0.2318
  993TIP3    H127174   2.621   3.461  19.461  0.4807 -0.1723 -1.3553
  993TIP3    H227175   2.570   3.604  19.455  0.1081 -0.2770 -0.7588
  994TIP3   OH227176   5.974   3.118  17.411 -0.1704  0.3147 -0.4007
  994TIP3    H127177   5.961   3.067  17.491 -2.9040 -1.3487 -1.7437
  994TIP3    H227178   6.066   3.103  17.388  0.2940 -0.3011  1.6506
  995TIP3   OH227179   7.556   1.276  18.152 -0.0232 -0.2999  0.5169
  995TIP3    H127180   7.650   1.271  18.138 -0.3134  0.2199 -2.0462
  995TIP3    H227181   7.538   1.369  18.166 -0.1218 -0.4716  1.6994
  996TIP3   OH227182   0.186   4.693  17.683 -0.5535  0.1510  0.2234
  996TIP3    H127183   0.142   4.703  17.767  0.1078 -0.8282  0.7104
  996TIP3    H227184   0.145   4.757  17.626 -0.9206  0.9233  1.3295
  997TIP3   OH227185   6.962   7.335  18.973  0.3174  0.0032  0.4952
  997TIP3    H127186   7.035   7.368  19.025  0.5642  2.9029 -1.4697
  997TIP3    H227187   7.001   7.304  18.892 -0.3395 -1.8341  0.8300
  998TIP3   OH227188   6.794   1.784  17.877 -0.2244 -0.2522  0.5670
  998TIP3    H127189   6.727   1.796  17.810 -1.2841 -1.1303  1.4092
  998TIP3    H227190   6.833   1.871  17.889 -1.2544  0.2943  0.0814
  999TIP3   OH227191   6.109   2.207  19.647 -0.4988  0.4879  0.1375
  999TIP3    H127192   6.116   2.302  19.653 -0.4691  0.5241 -0.4392
  999TIP3    H227193   6.173   2.182  19.580 -0.3112  0.0353  0.4811
 1000TIP3   OH227194   0.420   5.000  18.276 -0.1939  0.4628 -0.0519
 1000TIP3    H127195   0.508   5.032  18.293 -0.5438  0.2399  2.5112
 1000TIP3    H227196   0.364   5.076  18.291 -0.5672  0.1808 -0.0117
 1001TIP3   OH227197   0.977   6.798  17.160 -0.1267  0.1037  0.6890
 1001TIP3    H127198   0.904   6.816  17.220  1.4883  1.5978  2.3142
 1001TIP3    H227199   1.030   6.733  17.205 -0.7432 -1.5300 -0.8073
 1002TIP3   OH227200   5.061   2.166  17.515  0.1399 -0.2345  0.0549
 1002TIP3    H127201   5.052   2.137  17.424 -0.2376 -3.0400  0.8909
 1002TIP3    H227202   5.046   2.087  17.567  1.9196  0.9250  2.5307
 1003TIP3   OH227203   5.721   3.800  19.358  0.0571  0.0514 -0.7279
 1003TIP3    H127204   5.718   3.885  19.401  0.8728 -0.0097 -0.5387
 1003TIP3    H227205   5.807   3.764  19.381 -1.4336 -2.2336  1.9209
 1004TIP3   OH227206   0.787   2.594  19.251 -0.2201 -0.0918 -0.7607
 1004TIP3    H127207   0.862   2.576  19.194 -0.8934 -0.2790 -1.6036
 1004TIP3    H227208   0.712   2.558  19.205 -0.7486 -0.5751  0.4231
 1005TIP3   OH227209   5.489   0.637  17.553  0.0692  0.3295  0.5030
 1005TIP3    H127210   5.534   0.552  17.548  1.0506  0.8870 -0.6644
 1005TIP3    H227211   5.402   0.621  17.516  0.0284 -0.2931  0.8560
 1006TIP3   OH227212   1.979   5.709  19.359 -0.1394  0.0503 -0.0632
 1006TIP3    H127213   1.895   5.735  19.398 -0.1504 -1.3528  0.9157
 1006TIP3    H227214   1.973   5.738  19.268 -2.0118 -0.6915 -0.2151
 1007TIP3   OH227215   3.039   3.223  19.250  0.3110 -0.3501 -0.2452
 1007TIP3    H127216   2.979   3.249  19.320 -0.4698 -1.4919 -0.4568
 1007TIP3    H227217   3.020   3.130  19.236  1.7146 -0.5817 -0.7420
 1008TIP3   OH227218   0.293   5.520  18.575 -0.3016 -0.4077  0.3430
 1008TIP3    H127219   0.220   5.510  18.514 -1.4814 -1.7459  1.8895
 1008TIP3    H227220   0.276   5.457  18.644  3.2251 -1.9868 -0.0218
 1009TIP3   OH227221   2.926   2.344  17.188 -0.0839 -0.5174 -0.2242
 1009TIP3    H127222   3.002   2.374  17.139 -1.1960  3.1476  0.0079
 1009TIP3    H227223   2.862   2.415  17.179 -2.2432 -1.9743  2.2782
 1010TIP3   OH227224   7.441   5.920  16.934 -0.3196  0.7710  0.0106
 1010TIP3    H127225   7.350   5.898  16.914  0.1997 -1.1832 -0.3336
 1010TIP3    H227226   7.452   5.893  17.025  0.7700 -2.1778 -0.8796
 1011TIP3   OH227227   5.010   4.819  19.437 -0.0707  0.0645 -0.0320
 1011TIP3    H127228   5.079   4.843  19.498  0.9216  0.6998 -1.3666
 1011TIP3    H227229   4.976   4.902  19.404 -2.4160 -0.1662  1.5370
 1012TIP3   OH227230   6.825   0.068  17.828 -0.0489 -0.6037  0.8316
 1012TIP3    H127231   6.750   0.099  17.776 -1.5110 -1.8511  2.0833
 1012TIP3    H227232   6.803   0.091  17.918  1.6590  0.0329  1.1209
 1013TIP3   OH227233   6.571   2.595  19.814  0.2412  0.6711  0.3562
 1013TIP3    H127234   6.531   2.563  19.734  1.2757  0.9021 -0.2764
 1013TIP3    H227235   6.498   2.611  19.873 -0.4469 -1.1042  0.0706
 1014TIP3   OH227236   6.927   7.234  16.943  0.1616  0.2470  0.4122
 1014TIP3    H127237   6.972   7.290  16.880  1.1528  0.5777  1.3755
 1014TIP3    H227238   6.837   7.265  16.943  0.5949  1.5934  0.6144
 1015TIP3   OH227239   5.225   2.671  18.084 -0.0278  0.3765  0.2641
 1015TIP3    H127240   5.255   2.598  18.138 -2.4382 -1.1515 -0.3330
 1015TIP3    H227241   5.296   2.684  18.021  0.1790 -1.9263 -0.0497
 1016TIP3   OH227242   5.214   6.005  16.828 -0.2207  0.3317  0.7283
 1016TIP3    H127243   5.297   5.964  16.854  0.8522  1.1938 -1.0845
 1016TIP3    H227244   5.157   5.994  16.904  0.5622 -2.8715  0.9839
 1017TIP3   OH227245   5.274   5.915  19.199 -0.0386 -0.2433  0.3824
 1017TIP3    H127246   5.205   5.941  19.138 -0.9449 -2.2548  0.4719
 1017TIP3    H227247   5.227   5.873  19.272  1.0708  1.4045  2.1508
 1018TIP3   OH227248   4.697   0.635  17.877 -0.4561 -0.3106 -0.2621
 1018TIP3    H127249   4.716   0.697  17.806  1.0635  1.1521  1.3355
 1018TIP3    H227250   4.773   0.577  17.881 -0.1501  0.1346  0.6693
 1019TIP3   OH227251   7.397   5.688  19.247  0.1896  0.0793 -0.1670
 1019TIP3    H127252   7.435   5.685  19.159  0.3228  0.3527 -0.1185
 1019TIP3    H227253   7.469   5.715  19.304  0.0000  0.3054 -0.0323
 1020TIP3   OH227254   5.081   1.911  17.655 -0.0554  0.1920  0.4511
 1020TIP3    H127255   5.066   1.883  17.745  0.3981 -1.9488 -0.0774
 1020TIP3    H227256   5.040   1.843  17.601  3.1557 -0.8453 -0.9461
 1021TIP3   OH227257   6.526   6.296  17.579  0.2188 -0.6246  0.8075
 1021TIP3    H127258   6.520   6.376  17.632 -0.7991  0.5349 -0.9321
 1021TIP3    H227259   6.443   6.251  17.594  0.1935 -0.6172  0.6891
 1022TIP3   OH227260   4.728   4.661  17.497  0.3861  1.0115 -0.6730
 1022TIP3    H127261   4.704   4.742  17.542  0.0325  1.0225 -0.8800
 1022TIP3    H227262   4.733   4.595  17.566  1.1046  1.2997 -0.4409
 1023TIP3   OH227263   3.678   1.087  18.799 -0.2583 -0.0546 -0.0412
 1023TIP3    H127264   3.604   1.057  18.746 -0.5359 -0.0040  0.3112
 1023TIP3    H227265   3.679   1.028  18.875 -1.5689  1.5099  1.2837
 1024TIP3   OH227266   5.615   7.639  17.805 -0.2240 -0.0453  0.1313
 1024TIP3    H127267   5.703   7.654  17.839  0.2849  0.6601 -1.3664
 1024TIP3    H227268   5.618   7.675  17.716 -2.3535  1.0220  0.4252
 1025TIP3   OH227269   3.978   2.493  17.762  0.3130  0.0522 -0.4331
 1025TIP3    H127270   3.977   2.509  17.856  1.7883 -0.2636 -0.3453
 1025TIP3    H227271   4.052   2.543  17.729  1.9485 -2.4562 -0.8864
 1026TIP3   OH227272   3.797   1.499  16.862  0.1596  0.0026  0.0418
 1026TIP3    H127273   3.819   1.580  16.908  1.1890  0.9067 -1.9158
 1026TIP3    H227274   3.783   1.526  16.772 -0.0726 -1.9374 -0.5452
 1027TIP3   OH227275   5.166   2.007  16.847  0.5671  0.0331  0.6433
 1027TIP3    H127276   5.251   1.968  16.865  0.7814  0.2669  0.1556
 1027TIP3    H227277   5.179   2.101  16.860  0.9720  0.3373 -1.4809
 1028TIP3   OH227278   6.097   4.953  16.557 -0.6292 -0.4261 -0.2039
 1028TIP3    H127279   6.150   5.033  16.558 -0.2115 -0.6935 -0.4985
 1028TIP3    H227280   6.014   4.980  16.518 -0.2179 -0.2979 -1.0097
 1029TIP3   OH227281   0.373   0.384  17.212 -0.1784 -0.4225 -0.0355
 1029TIP3    H127282   0.347   0.294  17.190  0.8825 -0.9084  0.6701
 1029TIP3    H227283   0.453   0.399  17.162 -0.1011 -0.0245  0.2017
 1030TIP3   OH227284   3.960   3.846  19.609 -0.2720 -0.3303 -0.0362
 1030TIP3    H127285   3.866   3.843  19.589 -0.6759 -1.4802  1.8001
 1030TIP3    H227286   3.984   3.754  19.627  1.4334 -0.1939 -1.3582
 1031TIP3   OH227287   2.653   0.439  17.384 -0.2968  0.3083  0.1497
 1031TIP3    H127288   2.725   0.460  17.324 -1.4697 -0.1328 -1.5077
 1031TIP3    H227289   2.579   0.491  17.350 -1.4682 -1.3340  0.0916
 1032TIP3   OH227290   5.582   1.859  17.231  0.3519  0.3622 -0.6146
 1032TIP3    H127291   5.610   1.937  17.183 -0.8661  0.4672 -1.2039
 1032TIP3    H227292   5.495   1.840  17.196  1.0091 -1.8391 -1.1708
 1033TIP3   OH227293   4.858   0.759  19.643 -0.2630  0.1835 -0.0414
 1033TIP3    H127294   4.871   0.854  19.640 -0.4418  0.2050 -0.1126
 1033TIP3    H227295   4.764   0.747  19.641 -0.2715  0.0293  0.7607
 1034TIP3   OH227296   4.284   6.839  18.347  0.2467 -0.2157  0.0184
 1034TIP3    H127297   4.271   6.919  18.398  2.0405  1.0522 -1.3527
 1034TIP3    H227298   4.372   6.810  18.370  0.2083 -0.9126 -0.6617
 1035TIP3   OH227299   6.309   0.777  17.621  0.1464 -0.3371 -0.3362
 1035TIP3    H127300   6.318   0.869  17.646 -1.1689  0.1020 -1.3824
 1035TIP3    H227301   6.343   0.773  17.532  1.9396 -1.2735  0.3340
 1036TIP3   OH227302   2.448   3.902  18.195  0.3073 -0.6427 -0.8162
 1036TIP3    H127303   2.469   3.967  18.262  0.8949  0.4309 -1.9994
 1036TIP3    H227304   2.354   3.911  18.182  0.2220 -0.7219 -0.2839
 1037TIP3   OH227305   1.097   0.685  17.646  0.3916 -0.1903  0.0681
 1037TIP3    H127306   1.177   0.635  17.663 -0.1316 -0.7729  0.8695
 1037TIP3    H227307   1.095   0.697  17.551  0.9245 -1.0171 -0.0511
 1038TIP3   OH227308   3.745   6.309  17.753  0.2679  0.3382  0.0818
 1038TIP3    H127309   3.771   6.353  17.672  0.8580  3.4290  1.8012
 1038TIP3    H227310   3.650   6.310  17.751  0.2301 -1.3536 -1.3671
 1039TIP3   OH227311   7.409   4.923  18.695  0.5116 -0.4220 -0.0156
 1039TIP3    H127312   7.375   5.013  18.689  0.9729 -0.1310  1.4048
 1039TIP3    H227313   7.351   4.879  18.756  0.2932 -1.1059 -0.7026
 1040TIP3   OH227314   3.251   4.442  18.180 -0.0660 -0.1668 -0.1753
 1040TIP3    H127315   3.281   4.456  18.090  0.5342  1.1130  0.2028
 1040TIP3    H227316   3.190   4.369  18.173  1.8026 -1.7449 -1.2464
 1041TIP3   OH227317   4.192   3.163  18.012  0.2364  0.2737  0.3854
 1041TIP3    H127318   4.185   3.132  18.103  0.8324  0.6316  0.5573
 1041TIP3    H227319   4.212   3.256  18.020  0.2775  0.3086 -0.1148
 1042TIP3   OH227320   3.053   2.387  19.125 -0.5724  0.1889 -0.3519
 1042TIP3    H127321   3.011   2.468  19.152  0.0663  0.2957  0.3583
 1042TIP3    H227322   3.103   2.410  19.047  0.4426  0.7512  0.4301
 1043TIP3   OH227323   5.276   1.888  18.731  0.6224 -0.1555 -0.3104
 1043TIP3    H127324   5.359   1.919  18.764  1.5452  2.0982 -4.1265
 1043TIP3    H227325   5.299   1.819  18.668 -0.3338  0.3904 -1.3067
 1044TIP3   OH227326   3.394   6.974  17.327  0.8476  0.4011  0.0008
 1044TIP3    H127327   3.332   7.028  17.376 -0.0575  1.1918 -1.9317
 1044TIP3    H227328   3.354   6.887  17.327  1.5910  0.0022  1.8560
 1045TIP3   OH227329   0.752   2.300  19.126  0.4933  0.4305  0.8018
 1045TIP3    H127330   0.838   2.338  19.114  0.4697  0.3975  0.5270
 1045TIP3    H227331   0.769   2.207  19.145  0.4185 -0.5397 -3.1381
 1046TIP3   OH227332   7.625   0.467  17.801 -0.3126  0.0144 -0.3357
 1046TIP3    H127333   7.562   0.481  17.872 -0.0621 -3.2213  0.7246
 1046TIP3    H227334   7.640   0.554  17.764 -1.9439  1.5645  2.3013
 1047TIP3   OH227335   7.116   4.137  17.943  0.1919  0.4014 -0.3480
 1047TIP3    H127336   7.095   4.053  17.984 -2.0761  0.1075 -1.9140
 1047TIP3    H227337   7.199   4.121  17.898  0.7652 -0.3991  0.9441
 1048TIP3   OH227338   1.042   1.731  17.859  0.5297 -0.0125  0.1846
 1048TIP3    H127339   0.993   1.678  17.921 -0.3613  1.4888  0.8329
 1048TIP3    H227340   0.975   1.770  17.802  1.0962  0.7660  0.0245
 1049TIP3   OH227341   0.204   4.481  18.985  0.0866  0.6556  0.3001
 1049TIP3    H127342   0.271   4.414  18.979 -0.3443  0.3090 -0.9573
 1049TIP3    H227343   0.245   4.552  19.035  1.1917  0.2363  0.0116
 1050TIP3   OH227344   4.683   3.565  18.134 -0.4930  0.3283 -0.5703
 1050TIP3    H127345   4.768   3.550  18.174 -0.0681  1.1418 -1.1356
 1050TIP3    H227346   4.619   3.542  18.202  0.1372 -1.1446 -0.4286
 1051TIP3   OH227347   5.036   5.939  19.066  0.9949 -0.3952  0.1134
 1051TIP3    H127348   4.946   5.969  19.078  1.2361 -0.4445  2.5681
 1051TIP3    H227349   5.047   5.934  18.971 -1.6392 -0.5886 -0.2663
 1052TIP3   OH227350   2.151   5.205  18.203  0.1635  0.4019  0.0628
 1052TIP3    H127351   2.092   5.140  18.242 -0.9733 -0.4004 -2.7548
 1052TIP3    H227352   2.231   5.199  18.256 -1.1546 -0.6958  2.0945
 1053TIP3   OH227353   4.153   3.760  18.087  0.0754  0.3449  0.0087
 1053TIP3    H127354   4.178   3.826  18.151 -2.1293  0.0294  1.2986
 1053TIP3    H227355   4.071   3.793  18.049 -0.5311 -1.1600 -0.0540
 1054TIP3   OH227356   6.899   2.239  17.722  0.1156  0.8227 -0.0453
 1054TIP3    H127357   6.889   2.187  17.643 -0.7336  1.0697 -0.1100
 1054TIP3    H227358   6.966   2.304  17.701  0.2687  0.5520 -0.3842
 1055TIP3   OH227359   4.916   2.391  17.553  1.2146 -0.2382  0.3193
 1055TIP3    H127360   4.829   2.350  17.556  0.1205  1.8516 -0.7668
 1055TIP3    H227361   4.976   2.318  17.536 -0.4217 -1.6045  0.1038
 1056TIP3   OH227362   1.252   0.620  18.014  0.5086 -0.2008 -0.2071
 1056TIP3    H127363   1.305   0.630  18.094 -0.8911 -0.1061  0.7365
 1056TIP3    H227364   1.171   0.579  18.043 -0.5753  1.0152 -1.3482
 1057TIP3   OH227365   5.967   2.357  19.371  0.9168  0.1550 -0.0467
 1057TIP3    H127366   5.912   2.360  19.293 -1.0707  0.5149  1.2888
 1057TIP3    H227367   6.038   2.419  19.353 -0.9052  2.1993 -0.6045
 1058TIP3   OH227368   3.135   2.639  18.328  0.3112  0.3003 -0.2693
 1058TIP3    H127369   3.140   2.699  18.403 -0.4595  0.5820 -0.4449
 1058TIP3    H227370   3.178   2.686  18.257  2.1474 -0.4429  0.2807
 1059TIP3   OH227371   7.342   1.359  18.535 -0.0215  0.3394 -0.0406
 1059TIP3    H127372   7.398   1.284  18.516 -0.1829  0.0894  0.4455
 1059TIP3    H227373   7.275   1.357  18.466 -1.3050 -1.2651  1.1616
 1060TIP3   OH227374   4.935   1.757  17.481  0.0108  0.0562 -0.1840
 1060TIP3    H127375   4.877   1.682  17.496 -1.8663  1.4403 -0.1247
 1060TIP3    H227376   4.880   1.821  17.434  1.9924  0.8162 -1.5886
 1061TIP3   OH227377   6.350   3.274  18.424  0.0060 -0.1257  0.1221
 1061TIP3    H127378   6.258   3.250  18.431 -0.0629  0.2955  0.6695
 1061TIP3    H227379   6.385   3.266  18.513  0.5580 -0.4969 -0.1152
 1062TIP3   OH227380   0.329   1.336  18.299 -0.2902 -0.0990 -0.4026
 1062TIP3    H127381   0.267   1.402  18.331  0.1564  0.2297 -0.2009
 1062TIP3    H227382   0.408   1.387  18.276  0.0658 -0.5618 -0.2223
 1063TIP3   OH227383   4.932   0.512  18.219  0.3118 -0.0654  0.3320
 1063TIP3    H127384   4.911   0.426  18.182 -0.3894  0.1894  0.1128
 1063TIP3    H227385   4.968   0.493  18.305 -1.5854 -0.5260  1.0796
 1064TIP3   OH227386   2.341   3.290  17.311 -0.1631  0.3332  0.3092
 1064TIP3    H127387   2.259   3.297  17.360 -0.2437  0.0734  0.2123
 1064TIP3    H227388   2.316   3.301  17.219 -0.3173 -1.2735  0.1326
 1065TIP3   OH227389   5.984   6.278  18.714  0.4830 -0.0943 -0.1736
 1065TIP3    H127390   6.025   6.295  18.630  0.3009  0.1320 -0.2179
 1065TIP3    H227391   5.896   6.315  18.707  0.1125 -0.9430 -0.2267
 1066TIP3   OH227392   0.303   1.366  17.269  0.3307  0.2789 -0.0363
 1066TIP3    H127393   0.354   1.333  17.343 -1.7661  0.6217  1.6631
 1066TIP3    H227394   0.299   1.292  17.208  1.9092 -0.0895  0.2683
 1067TIP3   OH227395   0.546   3.363  16.595 -0.3623 -0.3807 -0.0562
 1067TIP3    H127396   0.583   3.307  16.663 -0.5708 -0.4681 -0.0152
 1067TIP3    H227397   0.617   3.372  16.531 -0.4380 -0.9713 -0.2274
 1068TIP3   OH227398   7.533   2.695  18.002 -0.0598 -0.9356 -0.4726
 1068TIP3    H127399   7.449   2.739  18.015  0.4618  0.1459 -0.6696
 1068TIP3    H227400   7.515   2.628  17.937 -0.6116 -0.1958 -1.0997
 1069TIP3   OH227401   1.915   3.505  17.455  0.2242 -0.3129 -0.1518
 1069TIP3    H127402   1.954   3.592  17.447  1.4597 -0.6974  1.3149
 1069TIP3    H227403   1.875   3.504  17.542 -1.1008 -0.7357 -0.7243
 1070TIP3   OH227404   2.869   3.374  19.459  0.0090 -0.5356 -0.1348
 1070TIP3    H127405   2.797   3.352  19.400 -1.4275 -1.6165  1.8882
 1070TIP3    H227406   2.845   3.460  19.494 -0.2105 -0.8224  0.4195
 1071TIP3   OH227407   0.027   7.518  17.508 -0.1090  0.2201  0.4809
 1071TIP3    H127408   0.094   7.457  17.539 -0.5073 -0.5237 -0.1196
 1071TIP3    H227409   0.017   7.580  17.580 -1.0953 -1.5368  1.9197
 1072TIP3   OH227410   6.714   2.940  17.857  0.3673  0.8804  0.5916
 1072TIP3    H127411   6.737   2.852  17.887 -1.0782  0.1471 -0.3212
 1072TIP3    H227412   6.618   2.940  17.854  0.3640  1.4918 -2.1569
 1073TIP3   OH227413   2.608   7.401  18.035 -0.0232  0.0452  0.3337
 1073TIP3    H127414   2.611   7.308  18.058  0.5282 -0.4690 -1.5799
 1073TIP3    H227415   2.518   7.428  18.054 -0.6490 -1.3248 -0.5319
 1074TIP3   OH227416   1.888   3.010  17.752  0.0238  0.0914  0.7486
 1074TIP3    H127417   1.809   2.970  17.717  0.6607  0.6968 -1.6303
 1074TIP3    H227418   1.869   3.104  17.752 -0.0306  0.1039  2.3660
 1075TIP3   OH227419   4.244   6.644  17.960  0.3979  0.4236 -0.4165
 1075TIP3    H127420   4.231   6.703  18.033 -0.3538  0.9172 -0.9353
 1075TIP3    H227421   4.318   6.682  17.911  0.3749  0.5398 -0.3600
 1076TIP3   OH227422   0.919   5.510  17.443  0.6715 -0.2313  0.3094
 1076TIP3    H127423   0.849   5.470  17.495  0.3890 -0.1017  0.0391
 1076TIP3    H227424   0.899   5.485  17.353 -0.1399  1.3842 -0.0098
 1077TIP3   OH227425   0.297   0.907  18.744 -0.0093 -0.3586  0.1653
 1077TIP3    H127426   0.253   0.913  18.829 -0.4505  1.0030 -0.1227
 1077TIP3    H227427   0.237   0.951  18.683  1.8669  1.9096 -0.1840
 1078TIP3   OH227428   2.812   6.484  18.982 -0.5714  0.8180 -0.5422
 1078TIP3    H127429   2.894   6.450  18.948  0.0029  1.6870 -0.0402
 1078TIP3    H227430   2.781   6.545  18.915 -0.1088  1.5315 -0.1070
 1079TIP3   OH227431   7.597   4.930  18.899  0.1967 -0.2076 -0.5339
 1079TIP3    H127432   7.555   4.857  18.944 -1.7013  1.8341  1.2633
 1079TIP3    H227433   7.552   4.935  18.814 -3.5546  1.8792  1.3063
 1080TIP3   OH227434   1.733   2.128  17.159 -0.5910 -0.5700 -0.2080
 1080TIP3    H127435   1.648   2.112  17.200  0.4929  1.5403  3.1892
 1080TIP3    H227436   1.793   2.069  17.204  0.3806  0.6528  0.1234
 1081TIP3   OH227437   1.530   4.656  17.701  0.1332  0.6742 -0.3474
 1081TIP3    H127438   1.564   4.743  17.723  1.5561  0.5561 -1.8739
 1081TIP3    H227439   1.569   4.598  17.766  0.6569  0.9220 -0.4399
 1082TIP3   OH227440   4.126   6.868  17.704  0.1579  0.1893  0.1254
 1082TIP3    H127441   4.052   6.884  17.763 -1.8036 -1.2815 -1.7550
 1082TIP3    H227442   4.192   6.826  17.758 -2.1136 -2.3974  1.0971
 1083TIP3   OH227443   5.527   1.395  18.398 -0.1817  0.1224 -0.8917
 1083TIP3    H127444   5.540   1.373  18.490 -1.5024  2.5251 -0.0351
 1083TIP3    H227445   5.500   1.312  18.357 -0.2189 -0.8513  0.9924
 1084TIP3   OH227446   4.976   2.157  18.218 -0.0810  0.4487 -0.0217
 1084TIP3    H127447   4.898   2.114  18.254 -0.8755 -0.4529 -2.6259
 1084TIP3    H227448   5.009   2.096  18.152  2.3420  1.2213  0.3705
 1085TIP3   OH227449   5.573   0.247  18.929 -0.1163 -0.2851  0.0550
 1085TIP3    H127450   5.659   0.270  18.965  0.6594 -0.8997 -1.3421
 1085TIP3    H227451   5.591   0.218  18.840 -1.8451 -0.0018 -0.4161
 1086TIP3   OH227452   2.551   3.685  18.358 -0.5123  0.5377 -0.0938
 1086TIP3    H127453   2.630   3.656  18.313 -0.5450 -0.2535  0.3472
 1086TIP3    H227454   2.526   3.766  18.313  0.7705  1.0182  0.0332
 1087TIP3   OH227455   3.964   3.898  18.704 -0.0284  0.0805  0.0177
 1087TIP3    H127456   3.999   3.956  18.637 -1.5530 -0.0600 -0.9501
 1087TIP3    H227457   3.933   3.821  18.655 -0.6237 -0.2889  0.9542
 1088TIP3   OH227458   5.307   7.433  17.601  0.1102  0.0009  0.2786
 1088TIP3    H127459   5.294   7.527  17.599 -1.4605 -0.1363  1.5570
 1088TIP3    H227460   5.374   7.419  17.668 -0.5210  0.1650  0.9614
 1089TIP3   OH227461   2.508   6.692  18.524 -0.6141  0.5716 -0.1982
 1089TIP3    H127462   2.441   6.634  18.488 -2.0555  2.2438 -0.3394
 1089TIP3    H227463   2.473   6.719  18.608  1.0648 -0.4301  0.8832
 1090TIP3   OH227464   0.155   6.723  17.348  0.0553 -0.5959 -0.1408
 1090TIP3    H127465   0.104   6.692  17.273 -0.0054 -0.1369 -0.2938
 1090TIP3    H227466   0.161   6.647  17.406  0.8855 -1.2339 -1.0268
 1091TIP3   OH227467   1.021   0.038  17.740  0.0735  0.1477  0.6349
 1091TIP3    H127468   1.052   0.113  17.689 -0.0760  0.9332  1.6776
 1091TIP3    H227469   0.974  -0.016  17.677 -0.0778  1.0842 -0.0651
 1092TIP3   OH227470   1.040   6.808  18.954  0.1500  0.2607 -0.9989
 1092TIP3    H127471   1.111   6.769  19.005 -1.5894 -2.1565 -0.2247
 1092TIP3    H227472   0.961   6.762  18.984 -1.3243  0.5164 -4.0835
 1093TIP3   OH227473   4.245   0.379  18.005 -0.0044  0.9049  0.5256
 1093TIP3    H127474   4.198   0.377  18.088  1.5011  1.0208  1.4230
 1093TIP3    H227475   4.210   0.456  17.960  0.4644  1.9579  1.8878
 1094TIP3   OH227476   2.156   7.560  19.243  0.1039 -0.1582  0.8627
 1094TIP3    H127477   2.121   7.530  19.160 -0.0056 -0.3370  0.9741
 1094TIP3    H227478   2.251   7.554  19.232  0.1888  2.1007 -0.1120
 1095TIP3   OH227479   7.450   4.700  19.026  0.4590  0.1321  0.2181
 1095TIP3    H127480   7.520   4.635  19.016 -0.1457 -0.7845  1.5589
 1095TIP3    H227481   7.370   4.647  19.030 -0.1521  1.0523  0.2731
 1096TIP3   OH227482   2.433   6.956  19.502 -0.4737  0.3386 -0.5200
 1096TIP3    H127483   2.360   6.895  19.491  0.1027 -0.2867 -0.8840
 1096TIP3    H227484   2.405   7.014  19.573 -0.7610 -0.7159  0.2412
 1097TIP3   OH227485   5.526   3.638  18.269 -0.3064  0.2782 -0.2305
 1097TIP3    H127486   5.518   3.548  18.300 -1.2086  0.2561 -0.4941
 1097TIP3    H227487   5.565   3.631  18.182  1.4561  0.2886  0.5138
 1098TIP3   OH227488   5.532   1.097  18.865 -0.5483  0.1694  0.2901
 1098TIP3    H127489   5.613   1.063  18.904 -0.4434  1.3349  1.1239
 1098TIP3    H227490   5.473   1.021  18.866  0.3822 -0.5880  0.0441
 1099TIP3   OH227491   5.271   4.555  17.216  0.0360  0.5142  0.4634
 1099TIP3    H127492   5.283   4.626  17.153  0.2720 -1.3258 -1.6733
 1099TIP3    H227493   5.302   4.592  17.299  2.4915  2.1358 -1.0252
 1100TIP3   OH227494   5.996   3.160  19.935  0.4196 -0.0463 -0.2438
 1100TIP3    H127495   5.989   3.230  20.000 -1.8660 -0.9224  0.5340
 1100TIP3    H227496   5.964   3.201  19.854 -0.5470 -0.0558  0.1209
 1101TIP3   OH227497   1.780   2.222  18.753 -0.0032  0.1617 -0.0438
 1101TIP3    H127498   1.845   2.184  18.812  0.1599 -0.4147 -0.5707
 1101TIP3    H227499   1.765   2.153  18.688 -0.6941  0.5184 -0.2691
 1102TIP3   OH227500   6.283   7.083  17.661  0.3024 -0.0811  0.2095
 1102TIP3    H127501   6.276   6.990  17.637  2.3627  0.4478 -3.1036
 1102TIP3    H227502   6.209   7.125  17.617  0.5945  0.1019 -0.1139
 1103TIP3   OH227503   1.773   0.082  17.516  0.0737 -0.1973  0.1386
 1103TIP3    H127504   1.721   0.004  17.496 -1.3928  1.0941 -1.3315
 1103TIP3    H227505   1.849   0.077  17.458 -1.2304  0.6093 -1.7245
 1104TIP3   OH227506   5.128   5.905  17.610  0.1952  0.9171  0.2747
 1104TIP3    H127507   5.157   5.834  17.666 -1.2263  0.7323  0.8115
 1104TIP3    H227508   5.156   5.985  17.655 -0.2295  0.7461  0.8525
 1105TIP3   OH227509   2.122   5.813  17.720  0.7120 -0.4468 -0.0418
 1105TIP3    H127510   2.173   5.776  17.793 -0.0364  0.1872  0.8303
 1105TIP3    H227511   2.039   5.838  17.760 -0.1131 -1.0279 -1.3430
 1106TIP3   OH227512   6.938   0.611  18.378 -0.3846  0.3456  0.7066
 1106TIP3    H127513   6.845   0.591  18.388 -0.4690  0.4391  0.1140
 1106TIP3    H227514   6.966   0.638  18.466 -0.9067  0.2772  0.8962
 1107TIP3   OH227515   7.079   4.799  18.365 -0.0347 -0.1781 -0.4013
 1107TIP3    H127516   7.146   4.843  18.313 -0.3709 -0.6819 -1.2707
 1107TIP3    H227517   7.016   4.868  18.386 -0.0604 -0.0310 -0.9447
 1108TIP3   OH227518   4.482   7.597  16.909 -0.1114  0.2305 -0.3313
 1108TIP3    H127519   4.544   7.533  16.875  0.0316  0.3368 -0.2700
 1108TIP3    H227520   4.475   7.663  16.840  1.0017  1.0115  0.2796
 1109TIP3   OH227521   4.859   2.200  16.936 -0.1798 -0.4181  0.3430
 1109TIP3    H127522   4.942   2.245  16.953 -0.0746 -0.3552 -0.3038
 1109TIP3    H227523   4.794   2.250  16.986  0.0694 -0.0641  0.3168
 1110TIP3   OH227524   6.714   0.266  18.976  0.2202 -0.1185 -0.3360
 1110TIP3    H127525   6.620   0.248  18.987  0.3843 -0.7668  0.1319
 1110TIP3    H227526   6.756   0.183  19.000  0.9350  0.3180 -0.0584
 1111TIP3   OH227527   3.162   1.588  19.254  0.0216  0.3237  0.1537
 1111TIP3    H127528   3.255   1.601  19.239 -0.3141  1.4796 -1.1344
 1111TIP3    H227529   3.139   1.512  19.200  0.4120 -0.7197  1.3954
 1112TIP3   OH227530   2.892   5.566  19.761 -0.1624 -0.3112 -0.2860
 1112TIP3    H127531   2.834   5.508  19.809 -0.1193 -0.4279 -0.3768
 1112TIP3    H227532   2.908   5.522  19.677 -1.0389  0.3450 -0.8233
 1113TIP3   OH227533   3.196   0.446  19.296 -0.0289 -1.1600 -0.0252
 1113TIP3    H127534   3.286   0.463  19.326 -0.2288 -1.2749  0.6430
 1113TIP3    H227535   3.161   0.533  19.276  0.1667 -1.0988 -0.1094
 1114TIP3   OH227536   2.108   0.709  18.356  0.1581  0.5009  0.9742
 1114TIP3    H127537   2.028   0.664  18.382  0.1683 -0.7473 -0.9341
 1114TIP3    H227538   2.169   0.694  18.429  0.1295 -2.5869  0.4986
 1115TIP3   OH227539   1.807   7.505  19.244 -0.1695 -0.2098  0.2198
 1115TIP3    H127540   1.800   7.601  19.243  0.5125 -0.1321  1.1433
 1115TIP3    H227541   1.842   7.483  19.158  0.0875  0.4183  0.1558
 1116TIP3   OH227542   5.100   6.019  17.081 -0.0770  0.1530  0.5541
 1116TIP3    H127543   5.014   6.055  17.060 -0.1909 -0.2621  0.3100
 1116TIP3    H227544   5.092   5.990  17.172 -0.6827 -1.2846  0.0783
 1117TIP3   OH227545   5.132   4.205  17.404  0.3388  0.2613  0.0556
 1117TIP3    H127546   5.112   4.123  17.450 -0.5841  0.3079 -0.2508
 1117TIP3    H227547   5.135   4.181  17.312 -0.1388  0.6078 -0.0523
 1118TIP3   OH227548   1.388   7.672  18.463 -0.2932 -0.4375 -0.1234
 1118TIP3    H127549   1.353   7.678  18.551  1.2777  0.0311  0.4951
 1118TIP3    H227550   1.376   7.760  18.426 -1.5792 -0.8126 -0.6513
 1119TIP3   OH227551   0.536   4.488  18.005 -0.1361  0.0141  0.0046
 1119TIP3    H127552   0.549   4.429  18.079  2.3900 -0.3269 -0.6444
 1119TIP3    H227553   0.540   4.432  17.927 -2.1432  0.4563 -0.4809
 1120TIP3   OH227554   0.859   7.310  17.818 -0.0519  0.0041 -1.0721
 1120TIP3    H127555   0.935   7.365  17.832  1.4562 -2.4000  1.3456
 1120TIP3    H227556   0.797   7.338  17.885  0.5381 -0.8598 -0.1332
 1121TIP3   OH227557   1.036   5.740  17.549  0.4745  0.0103  0.4559
 1121TIP3    H127558   0.974   5.668  17.544 -0.9440  1.1487  0.7103
 1121TIP3    H227559   1.008   5.801  17.481  1.1093  0.7098  0.7960
 1122TIP3   OH227560   2.942   4.557  18.827  0.4345  0.3532 -0.2031
 1122TIP3    H127561   2.929   4.619  18.756  0.1533 -0.2498 -0.6929
 1122TIP3    H227562   3.035   4.564  18.848  0.4322  0.8364 -0.3454
 1123TIP3   OH227563   7.006   4.702  19.013  0.3332 -0.3905 -0.2587
 1123TIP3    H127564   7.033   4.685  18.923 -0.4276 -0.4425 -0.4865
 1123TIP3    H227565   6.971   4.619  19.044  0.4292 -0.3259  0.0262
 1124TIP3   OH227566   1.273   6.143  18.194 -0.1233  0.1421 -0.2799
 1124TIP3    H127567   1.268   6.195  18.114 -0.5146 -1.6154 -1.4555
 1124TIP3    H227568   1.253   6.054  18.167 -0.5243 -0.4862  1.8434
 1125TIP3   OH227569   2.409   5.371  18.551  0.3127 -0.2284  0.3494
 1125TIP3    H127570   2.502   5.395  18.544  0.3679  0.1015  1.8429
 1125TIP3    H227571   2.372   5.436  18.611 -0.8414 -0.4987 -0.0483
 1126TIP3   OH227572   4.544   2.522  18.484  0.1181  0.0029 -0.2894
 1126TIP3    H127573   4.580   2.443  18.444  2.5321 -0.1620  1.9135
 1126TIP3    H227574   4.474   2.489  18.541 -1.8127  0.0177 -2.5005
 1127TIP3   OH227575   2.265   5.424  18.062 -0.0531 -0.5438 -0.1846
 1127TIP3    H127576   2.339   5.410  18.121 -0.7216 -0.0862  0.7812
 1127TIP3    H227577   2.200   5.360  18.090 -0.1401 -0.7438 -0.8389
 1128TIP3   OH227578   7.549   4.457  17.964 -0.3482 -0.6478  0.1555
 1128TIP3    H127579   7.566   4.388  17.901  1.5477 -0.2364  0.1643
 1128TIP3    H227580   7.454   4.459  17.972 -0.6011 -1.2275 -2.0851
 1129TIP3   OH227581   5.360   5.742  18.064  0.1947  0.2868 -0.2037
 1129TIP3    H127582   5.308   5.803  18.012 -0.1755 -0.0367 -0.2150
 1129TIP3    H227583   5.308   5.726  18.142  0.3876  0.1543 -0.1019
 1130TIP3   OH227584   3.055   6.768  18.692 -0.3418 -0.4887  0.1803
 1130TIP3    H127585   2.992   6.697  18.685  0.0287 -0.6800 -1.6000
 1130TIP3    H227586   3.122   6.748  18.628  1.0152  0.2526  1.3127
 1131TIP3   OH227587   6.840   5.052  17.933  0.0494  0.2210 -0.0659
 1131TIP3    H127588   6.894   5.059  18.011  0.1395 -1.8436  0.1169
 1131TIP3    H227589   6.903   5.059  17.860  0.3704 -0.6913  0.1158
 1132TIP3   OH227590   0.720   4.110  19.507 -0.1787 -0.3550 -0.1335
 1132TIP3    H127591   0.640   4.078  19.547  0.0957 -1.1609 -0.2247
 1132TIP3    H227592   0.707   4.099  19.413 -0.8133  1.5150 -0.3198
 1133TIP3   OH227593   0.740   5.028  19.394  0.1064  0.0593 -0.1191
 1133TIP3    H127594   0.818   5.057  19.441 -1.9196  2.1019  2.2802
 1133TIP3    H227595   0.726   5.096  19.328 -0.0943  0.1455  0.0109
 1134TIP3   OH227596   2.703   3.043  18.265 -0.2651 -0.1049 -0.1241
 1134TIP3    H127597   2.728   2.964  18.312 -0.1890 -0.4463 -0.7342
 1134TIP3    H227598   2.623   3.019  18.218  0.0909 -0.0039 -0.7844
 1135TIP3   OH227599   2.412   7.458  17.520  0.3374 -0.3336 -0.2239
 1135TIP3    H127600   2.491   7.505  17.491  1.3225 -0.9410  1.3495
 1135TIP3    H227601   2.387   7.405  17.444  1.1487  0.2436 -0.9152
 1136TIP3   OH227602   5.214   2.027  19.686  0.2568  0.1153  0.7212
 1136TIP3    H127603   5.283   2.001  19.747 -0.0007 -0.9110  0.5887
 1136TIP3    H227604   5.139   1.974  19.710  0.9689 -2.5391 -2.2580
 1137TIP3   OH227605   5.167   5.308  17.045  0.4844  0.3175  0.3178
 1137TIP3    H127606   5.136   5.339  17.130 -0.8875 -1.2764  0.4363
 1137TIP3    H227607   5.161   5.385  16.988 -1.3773  0.7004  0.9601
 1138TIP3   OH227608   5.731   1.513  18.742 -0.0884 -0.1577 -1.1422
 1138TIP3    H127609   5.673   1.447  18.703 -0.2629 -0.9581  0.3779
 1138TIP3    H227610   5.674   1.587  18.761 -0.3946 -0.5189 -0.6431
 1139TIP3   OH227611   4.379   0.382  16.790 -0.0175  0.4669 -0.7533
 1139TIP3    H127612   4.365   0.294  16.753 -1.0382  0.2482  0.0967
 1139TIP3    H227613   4.473   0.397  16.782  0.0016 -0.1981 -2.0194
 1140TIP3   OH227614   0.044   1.979  17.609 -0.4737  0.2247 -0.0198
 1140TIP3    H127615  -0.039   2.005  17.568 -0.4592  0.7357  0.2718
 1140TIP3    H227616   0.104   2.052  17.591  0.0510 -0.3451 -0.6298
 1141TIP3   OH227617   4.677   3.246  18.985  0.3709 -0.5075 -0.4346
 1141TIP3    H127618   4.715   3.161  19.008  1.0864 -0.0122  0.2502
 1141TIP3    H227619   4.601   3.224  18.930  0.5042 -1.5879 -0.2105
 1142TIP3   OH227620   3.061   6.559  17.122  0.0923  0.1604 -0.3828
 1142TIP3    H127621   3.113   6.540  17.043  0.8797 -0.2558  0.2276
 1142TIP3    H227622   3.116   6.618  17.174 -0.8435  1.2505 -0.5876
 1143TIP3   OH227623   3.572   4.558  18.368 -0.1669 -0.2573  0.2986
 1143TIP3    H127624   3.605   4.480  18.411 -0.3005 -0.2549  0.4036
 1143TIP3    H227625   3.477   4.554  18.379 -0.1514  0.0691  0.5595
 1144TIP3   OH227626   1.358   0.066  17.566  0.2512  0.1263 -0.5664
 1144TIP3    H127627   1.307  -0.008  17.533 -0.1454 -0.0504  0.3913
 1144TIP3    H227628   1.449   0.038  17.557  0.1009 -0.6853  0.1897
 1145TIP3   OH227629   3.321   3.660  19.225  0.7642 -0.8369 -0.3846
 1145TIP3    H127630   3.313   3.603  19.148 -1.3965  1.4236 -2.0227
 1145TIP3    H227631   3.245   3.638  19.279  1.3391 -1.2466  0.2652
 1146TIP3   OH227632   5.169   4.988  18.254 -0.3564 -0.0265  0.2763
 1146TIP3    H127633   5.207   5.000  18.168 -1.7635 -0.6431 -0.4732
 1146TIP3    H227634   5.149   4.894  18.259  0.3575 -0.1360  1.5673
 1147TIP3   OH227635   5.153   3.347  19.170 -0.5461  0.5043  0.2597
 1147TIP3    H127636   5.117   3.328  19.256 -0.8115  1.2286  0.3118
 1147TIP3    H227637   5.078   3.348  19.111 -0.5702  1.6130  0.2997
 1148TIP3   OH227638   6.908   4.204  17.745 -0.3061  0.2645 -0.2391
 1148TIP3    H127639   6.949   4.214  17.831 -1.4650  0.7832  0.2787
 1148TIP3    H227640   6.980   4.182  17.686  0.4135 -0.7116  0.9684
 1149TIP3   OH227641   2.897   7.576  19.622  0.0747  0.0016  0.5569
 1149TIP3    H127642   2.880   7.547  19.711  0.7571  2.1483  1.4445
 1149TIP3    H227643   2.823   7.634  19.601 -0.1088 -0.5202 -0.3307
 1150TIP3   OH227644   4.487   3.196  17.894  0.0157  0.1990 -0.1421
 1150TIP3    H127645   4.405   3.237  17.867 -0.2847 -0.3856 -0.1397
 1150TIP3    H227646   4.473   3.102  17.879  0.7103  0.0982 -0.2099
 1151TIP3   OH227647   3.206   0.631  19.561  0.6296  0.4729 -0.2863
 1151TIP3    H127648   3.204   0.655  19.654  0.5224  1.4699 -0.5363
 1151TIP3    H227649   3.212   0.714  19.515 -1.1047  0.1271 -1.2413
 1152TIP3   OH227650   2.410   6.248  19.425 -0.3097  0.3718  0.2548
 1152TIP3    H127651   2.474   6.310  19.391 -1.7330  1.0768 -1.3232
 1152TIP3    H227652   2.328   6.271  19.380 -1.4414 -1.1276  1.4160
 1153TIP3   OH227653   3.413   3.576  18.884 -0.2008 -0.2464  0.5777
 1153TIP3    H127654   3.494   3.609  18.922 -0.2691  0.8789 -0.2317
 1153TIP3    H227655   3.437   3.492  18.844  0.3967 -0.2504  0.9397
 1154TIP3   OH227656   3.519   7.526  17.854 -0.0470  0.0100  0.2244
 1154TIP3    H127657   3.543   7.600  17.910  0.3572 -0.0763  0.1684
 1154TIP3    H227658   3.439   7.555  17.809  0.3918  0.6158 -0.1793
 1155TIP3   OH227659   1.938   4.159  17.103  0.2760  0.2000  0.3240
 1155TIP3    H127660   1.921   4.170  17.010  1.9986 -0.5199 -0.1070
 1155TIP3    H227661   1.996   4.232  17.125  1.1254 -0.5159  0.4729
 1156TIP3   OH227662   7.009   4.298  17.257 -0.4981  0.5403 -0.0456
 1156TIP3    H127663   7.063   4.357  17.204 -2.8491  1.1624 -1.9626
 1156TIP3    H227664   6.960   4.246  17.192 -0.8074 -1.3301  1.5909
 1157TIP3   OH227665   2.977   3.833  18.230 -0.0273 -0.4026  0.4140
 1157TIP3    H127666   3.070   3.842  18.249  0.5880 -0.6611 -2.1211
 1157TIP3    H227667   2.956   3.907  18.174 -1.5092 -0.0575  1.3694
 1158TIP3   OH227668   0.076   2.525  16.569 -0.6315  0.3139  0.1780
 1158TIP3    H127669  -0.005   2.568  16.540 -0.4044  0.4005 -0.3458
 1158TIP3    H227670   0.146   2.582  16.537 -0.3782  0.8037  1.5474
 1159TIP3   OH227671   5.567   4.861  18.404 -0.2291 -0.2170  0.4607
 1159TIP3    H127672   5.507   4.792  18.431  0.5114 -1.4891 -0.9691
 1159TIP3    H227673   5.515   4.941  18.407 -2.1725 -1.3089 -1.1349
 1160TIP3   OH227674   4.431   6.937  17.518  0.0344  0.0183  0.1189
 1160TIP3    H127675   4.510   6.918  17.569  0.6157  1.7245 -0.0654
 1160TIP3    H227676   4.391   7.011  17.563 -1.7817 -1.1419  0.4987
 1161TIP3   OH227677   0.757   3.013  18.792 -0.2885 -0.1858  0.2005
 1161TIP3    H127678   0.752   2.956  18.869 -0.4319  0.9441  1.0485
 1161TIP3    H227679   0.839   3.060  18.803 -0.2385 -0.1282 -0.4252
 1162TIP3   OH227680   2.765   0.662  19.170  0.3238  0.0111 -0.2290
 1162TIP3    H127681   2.727   0.665  19.257 -0.4190 -1.8958 -0.4494
 1162TIP3    H227682   2.730   0.582  19.131 -1.3431  2.0009 -3.2045
 1163TIP3   OH227683   2.612   6.894  18.392  0.4539 -0.0910  0.2097
 1163TIP3    H127684   2.683   6.890  18.456 -0.1970  0.4940  0.9994
 1163TIP3    H227685   2.543   6.840  18.430 -0.3562  1.1518  0.5655
 1164TIP3   OH227686   1.150   0.967  17.635 -0.6334 -0.6843  0.6960
 1164TIP3    H127687   1.187   0.933  17.553  0.9584 -0.8353  1.4287
 1164TIP3    H227688   1.147   0.892  17.693 -1.5817 -0.5380  0.8432
 1165TIP3   OH227689   5.518   0.630  18.592 -0.2715 -0.4807  0.2164
 1165TIP3    H127690   5.599   0.680  18.601 -0.6422  0.5933 -1.8236
 1165TIP3    H227691   5.543   0.551  18.544 -0.3167 -0.4811  0.1940
 1166TIP3   OH227692   5.447   0.955  19.254  0.0198 -0.4698  0.1735
 1166TIP3    H127693   5.390   0.878  19.245  2.0189 -1.8911 -1.1125
 1166TIP3    H227694   5.535   0.919  19.265  1.1518  1.6291 -1.3113
 1167TIP3   OH227695   4.980   2.737  18.235  0.0424  0.0235  0.1436
 1167TIP3    H127696   5.072   2.710  18.234  0.2493  0.7219 -0.7345
 1167TIP3    H227697   4.934   2.668  18.187  0.7238  1.6318 -3.0850
 1168TIP3   OH227698   5.671   7.041  18.885 -0.1405 -0.8469 -0.2193
 1168TIP3    H127699   5.581   7.070  18.900  0.4985  1.1622  0.0483
 1168TIP3    H227700   5.665   6.978  18.814 -1.6485  0.0888 -0.9585
 1169TIP3   OH227701   0.535   5.903  17.308 -0.1706 -0.3270 -0.2946
 1169TIP3    H127702   0.533   5.807  17.313  2.0032 -0.6427 -3.1052
 1169TIP3    H227703   0.596   5.930  17.377  1.3466 -1.2532 -1.2202
 1170TIP3   OH227704   5.476   6.822  18.862 -0.3703  0.4434 -0.1751
 1170TIP3    H127705   5.396   6.872  18.851 -0.5372  0.3975  0.8185
 1170TIP3    H227706   5.459   6.763  18.935  0.0474 -0.6221 -0.9050
 1171TIP3   OH227707   6.814   5.892  17.302 -0.4962  0.3228  0.1449
 1171TIP3    H127708   6.753   5.931  17.365 -0.2962 -0.1373  0.6378
 1171TIP3    H227709   6.773   5.904  17.217 -1.2631  0.0388  0.4648
 1172TIP3   OH227710   7.354   6.739  18.060  0.0307  0.5155  0.0420
 1172TIP3    H127711   7.303   6.799  18.007  0.8859  1.2535  0.0388
 1172TIP3    H227712   7.355   6.657  18.010 -1.4370  0.3702  0.2147
 1173TIP3   OH227713   0.856   6.918  18.622  0.0776 -0.0732 -0.2254
 1173TIP3    H127714   0.766   6.950  18.627  0.3449  0.6886 -0.0647
 1173TIP3    H227715   0.849   6.823  18.624 -0.7023 -0.0104  0.1010
 1174TIP3   OH227716   6.359   5.487  19.352  0.3540 -0.5761  0.6279
 1174TIP3    H127717   6.429   5.428  19.381  0.4484 -0.2807  1.0051
 1174TIP3    H227718   6.382   5.508  19.262  0.2729 -1.1866  0.4572
 1175TIP3   OH227719   6.420   7.503  18.644  0.5285 -0.2975  0.1092
 1175TIP3    H127720   6.473   7.427  18.669 -0.1335 -0.6209  0.5498
 1175TIP3    H227721   6.351   7.467  18.590  0.8199  0.1421 -0.5627
 1176TIP3   OH227722   1.194   7.167  18.855  0.4324 -0.2193 -0.3408
 1176TIP3    H127723   1.237   7.081  18.854  1.5090  0.2995 -1.7443
 1176TIP3    H227724   1.198   7.197  18.764  0.3243  1.4345  0.1695
 1177TIP3   OH227725   7.286   7.578  18.658  0.3416  0.0222 -0.0767
 1177TIP3    H127726   7.374   7.561  18.691  0.0931  1.0781  1.2330
 1177TIP3    H227727   7.236   7.499  18.681  0.4055  0.3497  1.3095
 1178TIP3   OH227728   7.298   4.650  17.244  0.0889  0.3381 -0.0024
 1178TIP3    H127729   7.309   4.729  17.192 -0.5586  1.0537  0.9050
 1178TIP3    H227730   7.332   4.674  17.331 -0.7742 -0.1406  0.4786
 1179TIP3   OH227731   5.445   5.291  17.148 -0.0881  0.1126 -0.2669
 1179TIP3    H127732   5.377   5.232  17.115 -0.3513 -0.7728  1.7327
 1179TIP3    H227733   5.397   5.363  17.189  0.2158  0.2301 -0.1128
 1180TIP3   OH227734   5.561   0.635  19.101 -0.4935  0.5142  0.0136
 1180TIP3    H127735   5.631   0.612  19.040  0.2826  0.9594  0.7243
 1180TIP3    H227736   5.605   0.679  19.174 -1.2316 -1.0882  1.5100
 1181TIP3   OH227737   0.218   2.834  18.252 -0.1703  0.4913  0.0804
 1181TIP3    H127738   0.138   2.816  18.302 -0.5063  1.2261 -0.1746
 1181TIP3    H227739   0.247   2.919  18.284 -1.0309  1.5222 -1.7568
 1182TIP3   OH227740   4.131   0.302  19.101 -0.3047  0.4774  0.2007
 1182TIP3    H127741   4.219   0.287  19.066  0.1008  0.4045  1.2090
 1182TIP3    H227742   4.145   0.313  19.195 -1.4293  0.0195  0.4313
 1183TIP3   OH227743   0.192   6.106  18.200 -0.4089 -0.5914 -0.0225
 1183TIP3    H127744   0.256   6.039  18.220 -1.0551 -1.6359 -1.3214
 1183TIP3    H227745   0.138   6.068  18.131  0.6279  2.0929 -2.5309
 1184TIP3   OH227746   3.941   2.287  16.839  0.1748 -0.2386 -0.2777
 1184TIP3    H127747   3.972   2.305  16.751 -1.7093 -0.0657 -0.9574
 1184TIP3    H227748   3.958   2.369  16.887 -1.0850  0.6098 -1.2011
 1185TIP3   OH227749   6.351   1.568  19.010  0.2132 -0.0439  0.3021
 1185TIP3    H127750   6.276   1.600  19.060  1.5300  0.5471  2.0149
 1185TIP3    H227751   6.427   1.610  19.052  1.4530  0.0243 -1.8584
 1186TIP3   OH227752   6.991   0.306  18.882  0.3867 -0.2344  0.1075
 1186TIP3    H127753   7.061   0.291  18.819  0.0218  1.0534 -0.6461
 1186TIP3    H227754   6.943   0.223  18.885 -1.7356  0.5738 -4.0659
 1187TIP3   OH227755   3.385   0.243  18.994 -0.2238  0.4783 -0.1303
 1187TIP3    H127756   3.311   0.304  18.983  0.1161  1.2029  1.3597
 1187TIP3    H227757   3.436   0.281  19.066  1.8685  0.2437 -1.4260
 1188TIP3   OH227758   6.200   5.049  19.072 -0.3274  0.1354 -0.7794
 1188TIP3    H127759   6.111   5.069  19.041 -0.5337  0.2343 -0.1274
 1188TIP3    H227760   6.193   4.962  19.110 -0.5359  0.8061  0.7934
 1189TIP3   OH227761   4.632   7.586  19.546 -0.4716 -0.1382  0.4435
 1189TIP3    H127762   4.654   7.496  19.521 -0.4584 -0.0185  0.0251
 1189TIP3    H227763   4.568   7.615  19.480 -0.3094  0.2345  0.4476
 1190TIP3   OH227764   7.615   3.121  18.221 -0.1563  0.1925  0.0319
 1190TIP3    H127765   7.677   3.097  18.152  0.1422  0.8844  0.0523
 1190TIP3    H227766   7.608   3.042  18.275  1.3641  0.3611  0.5159
 1191TIP3   OH227767   2.811   0.509  17.133 -0.0707  0.3938 -0.2246
 1191TIP3    H127768   2.774   0.585  17.089  0.1910  0.7228  0.1153
 1191TIP3    H227769   2.786   0.435  17.078  0.5251  0.8251 -1.1067
 1192TIP3   OH227770   2.263   1.990  19.161  0.3598 -0.5330  0.6071
 1192TIP3    H127771   2.279   1.896  19.151 -0.5799 -0.9976  2.8278
 1192TIP3    H227772   2.177   1.995  19.201  0.8568  1.2180  1.5519
 1193TIP3   OH227773   7.049   5.064  18.086  0.4711 -0.2908 -0.1276
 1193TIP3    H127774   7.083   5.100  18.168 -0.2015 -1.1631  0.5644
 1193TIP3    H227775   7.093   4.979  18.077  1.0304  0.0875 -1.0223
 1194TIP3   OH227776   1.720   5.216  19.415  0.0041 -0.3933 -0.3598
 1194TIP3    H127777   1.681   5.240  19.499  1.7313 -0.3571  0.4753
 1194TIP3    H227778   1.683   5.130  19.394 -0.8655 -0.1461  0.1415
 1195TIP3   OH227779   6.866   5.162  18.777  0.4843 -0.2110  0.2531
 1195TIP3    H127780   6.836   5.233  18.833  1.5979  0.8934 -0.5184
 1195TIP3    H227781   6.959   5.178  18.765  0.5601 -1.2630 -0.7176
 1196TIP3   OH227782   3.315   3.137  19.149  0.2632  0.3497  0.0622
 1196TIP3    H127783   3.243   3.184  19.190  0.0697 -0.5654  0.8099
 1196TIP3    H227784   3.286   3.046  19.147  0.5765  0.2527 -1.4667
 1197TIP3   OH227785   7.156   0.872  17.911 -0.0756 -0.1736 -0.7576
 1197TIP3    H127786   7.122   0.882  18.000 -1.7359 -1.1211 -1.2379
 1197TIP3    H227787   7.118   0.945  17.863  0.2337 -0.0716 -0.8455
 1198TIP3   OH227788   6.557   6.787  18.941  0.4616  0.0811 -0.5003
 1198TIP3    H127789   6.621   6.822  18.878 -0.2315 -0.0573 -1.2986
 1198TIP3    H227790   6.548   6.695  18.916  0.7558 -0.1702  0.3037
 1199TIP3   OH227791   3.188   1.340  19.114  0.4098  0.3276  0.1755
 1199TIP3    H127792   3.095   1.317  19.125  0.1261  1.3215 -0.0210
 1199TIP3    H227793   3.235   1.269  19.157 -0.4601  0.1017  0.7985
 1200TIP3   OH227794   2.299   2.167  18.948 -0.0131  0.0329 -0.3717
 1200TIP3    H127795   2.392   2.192  18.949  0.0256 -0.1232  0.5945
 1200TIP3    H227796   2.298   2.081  18.990 -0.4166 -0.6316 -1.7110
 1201TIP3   OH227797   0.290   2.663  19.385  0.1300 -0.2715 -0.0230
 1201TIP3    H127798   0.226   2.676  19.316 -0.9670  2.4737  1.3467
 1201TIP3    H227799   0.355   2.732  19.372  2.3281 -2.3163 -0.7192
 1202TIP3   OH227800   4.839   6.968  17.768 -0.2577 -0.8749  0.5405
 1202TIP3    H127801   4.891   6.985  17.690  0.8798 -4.3351  0.3810
 1202TIP3    H227802   4.902   6.963  17.839 -0.9078 -0.9083  1.1295
 1203TIP3   OH227803   5.200   1.087  18.735 -0.1772  0.7308  0.4215
 1203TIP3    H127804   5.244   1.070  18.818 -1.3687  0.7534  1.0858
 1203TIP3    H227805   5.240   1.025  18.674  0.2374  0.2333  1.1781
 1204TIP3   OH227806   2.341   6.129  18.437 -0.2402 -0.0106  0.2616
 1204TIP3    H127807   2.375   6.127  18.348 -1.7925 -0.1941 -0.3683
 1204TIP3    H227808   2.410   6.171  18.488  0.5559  0.3791 -1.0775
 1205TIP3   OH227809   2.841   3.727  19.363 -0.5009  0.0363  0.1107
 1205TIP3    H127810   2.861   3.678  19.282  1.8033 -1.2367  1.3484
 1205TIP3    H227811   2.781   3.669  19.411 -0.2105 -0.1731  0.2236
 1206TIP3   OH227812   4.465   6.087  17.774  0.1240  0.4225 -0.4578
 1206TIP3    H127813   4.555   6.091  17.804 -0.5326 -0.7783  1.9152
 1206TIP3    H227814   4.463   6.014  17.713  0.7680  0.5360 -0.6204
 1207TIP3   OH227815   7.268   3.652  18.176 -0.2522  0.4546 -0.1340
 1207TIP3    H127816   7.325   3.727  18.160 -0.1902  0.6188  0.7621
 1207TIP3    H227817   7.181   3.690  18.188  0.0168  0.5741  1.7934
 1208TIP3   OH227818   7.471   4.739  17.480  0.3380 -0.4923  0.3479
 1208TIP3    H127819   7.553   4.720  17.436 -0.6205  2.7382 -3.4664
 1208TIP3    H227820   7.483   4.827  17.516 -1.5898  0.4023 -1.0230
 1209TIP3   OH227821   5.774   0.998  18.971  0.3284 -0.3415  0.1819
 1209TIP3    H127822   5.848   1.013  18.912  0.6649  1.0314  0.9065
 1209TIP3    H227823   5.814   0.975  19.054 -0.1419 -2.1727 -0.0508
 1210TIP3   OH227824   1.261   3.363  19.066 -0.3791 -0.0893  0.3804
 1210TIP3    H127825   1.216   3.441  19.031 -2.5414 -0.8447  1.3216
 1210TIP3    H227826   1.338   3.398  19.110  0.3886  1.2134 -1.8321
 1211TIP3   OH227827   3.499   5.256  18.115  0.3406  0.4512  0.1266
 1211TIP3    H127828   3.545   5.286  18.036  0.7813 -1.2206 -0.2971
 1211TIP3    H227829   3.498   5.161  18.107 -1.4118  0.3376  1.1528
 1212TIP3   OH227830   2.932   1.602  18.434  0.2423  0.3873  0.8759
 1212TIP3    H127831   2.895   1.641  18.355  0.4257 -0.5363  0.3191
 1212TIP3    H227832   2.943   1.675  18.495 -1.2271  0.8866  0.5629
 1213TIP3   OH227833   3.983   5.775  17.185 -0.6154  0.0536 -0.0486
 1213TIP3    H127834   4.062   5.829  17.178 -0.1548 -0.6682 -0.5387
 1213TIP3    H227835   3.914   5.829  17.146 -0.6515  1.2090  1.5248
 1214TIP3   OH227836   2.771   3.041  18.603  0.0717 -0.5445  0.0030
 1214TIP3    H127837   2.717   3.071  18.676 -0.3315 -1.0798 -0.0633
 1214TIP3    H227838   2.744   3.095  18.529 -0.1741 -0.6174  0.0380
 1215TIP3   OH227839   1.872   5.092  17.003  0.6348  0.4083 -0.4611
 1215TIP3    H127840   1.872   5.176  16.957  3.4284 -0.1960 -1.8310
 1215TIP3    H227841   1.900   5.029  16.937  0.1754 -1.3442  0.9455
 1216TIP3   OH227842   6.932   6.895  18.569 -0.6764 -0.1538 -0.3709
 1216TIP3    H127843   6.894   6.925  18.487 -0.8397  1.2110  0.1791
 1216TIP3    H227844   7.026   6.902  18.556 -0.6934 -0.2104 -0.5325
 1217TIP3   OH227845   1.738   7.034  17.106  0.0862  0.5752  0.3214
 1217TIP3    H127846   1.670   6.990  17.054  1.4421 -2.4983  0.8874
 1217TIP3    H227847   1.811   7.045  17.046  0.9331 -1.1392  0.9588
 1218TIP3   OH227848   5.889   4.184  16.805  0.0186 -0.6422  0.3213
 1218TIP3    H127849   5.933   4.201  16.722 -1.9046  0.1368 -0.5959
 1218TIP3    H227850   5.796   4.200  16.788 -0.6806 -2.1681  2.1647
 1219TIP3   OH227851   4.511   1.871  19.150  0.0721 -0.6233 -0.1945
 1219TIP3    H127852   4.473   1.812  19.215  0.3279  0.9652  1.4932
 1219TIP3    H227853   4.446   1.941  19.140  1.1769  0.5562  0.4716
 1220TIP3   OH227854   0.196   2.616  18.646  0.1996  0.1819 -0.6220
 1220TIP3    H127855   0.266   2.644  18.587  0.0435  0.0855 -0.8583
 1220TIP3    H227856   0.130   2.578  18.588  0.6797 -1.2464 -0.2745
 1221TIP3   OH227857   0.471   4.285  18.465 -0.5549 -0.1819 -0.1936
 1221TIP3    H127858   0.385   4.323  18.485 -1.1439 -1.3327 -0.4149
 1221TIP3    H227859   0.456   4.191  18.468  0.9390 -0.4219  0.7094
 1222TIP3   OH227860   6.532   2.645  18.048  0.1761 -0.0039  0.5061
 1222TIP3    H127861   6.483   2.564  18.063 -0.3698  0.6037  2.2320
 1222TIP3    H227862   6.465   2.714  18.047  0.6236  0.4509 -1.0488
 1223TIP3   OH227863   5.878   5.527  19.397  0.5763  0.1873  0.6878
 1223TIP3    H127864   5.927   5.446  19.410 -0.9068 -1.1518 -1.2862
 1223TIP3    H227865   5.940   5.597  19.414  2.3134 -1.3854  1.0711
 1224TIP3   OH227866   1.272   4.253  18.513 -0.0943  0.0098  0.0201
 1224TIP3    H127867   1.204   4.204  18.467  0.3332  0.7624 -1.4901
 1224TIP3    H227868   1.232   4.338  18.532  0.3051  0.3487 -0.6110
 1225TIP3   OH227869   4.906   6.513  18.667 -0.3939  0.0201  0.0962
 1225TIP3    H127870   4.948   6.483  18.747 -0.1639  0.0666 -0.0046
 1225TIP3    H227871   4.897   6.607  18.678  0.5137  0.1697 -0.3236
 1226TIP3   OH227872   2.019   2.363  18.549 -0.1851  0.2067  0.1298
 1226TIP3    H127873   2.098   2.309  18.555  0.0472  0.6992  2.2854
 1226TIP3    H227874   2.019   2.414  18.629 -2.1411  1.0308 -0.3419
 1227TIP3   OH227875   2.038   6.151  18.332  0.2832  0.3667 -0.0634
 1227TIP3    H127876   2.071   6.063  18.347  0.9972  0.3096 -1.7392
 1227TIP3    H227877   2.116   6.207  18.334 -0.1747  0.9938  1.0947
 1228TIP3   OH227878   3.432   0.575  18.724 -0.3825 -0.5697 -0.0456
 1228TIP3    H127879   3.438   0.545  18.814  0.5868 -0.2931 -0.0030
 1228TIP3    H227880   3.375   0.652  18.728  0.2891 -0.0807  0.4710
 1229TIP3   OH227881   3.351   3.641  19.574 -0.3876  0.1956  0.1684
 1229TIP3    H127882   3.428   3.584  19.580 -1.2218 -1.3435 -2.1977
 1229TIP3    H227883   3.290   3.593  19.518 -1.9294  2.6139 -0.3727
 1230TIP3   OH227884   4.031   7.608  18.582  0.7645  0.5841  0.2731
 1230TIP3    H127885   4.067   7.600  18.671  0.3339 -1.9698  0.2974
 1230TIP3    H227886   3.942   7.574  18.590  0.6137  0.6213 -1.0853
 1231TIP3   OH227887   6.111   1.641  19.426  0.9354  0.3508 -0.3413
 1231TIP3    H127888   6.030   1.614  19.470  0.8053  3.1030  1.3493
 1231TIP3    H227889   6.181   1.612  19.485  1.0496  0.2410 -0.5267
 1232TIP3   OH227890   4.322   5.489  17.741  0.2685  0.1096  0.4560
 1232TIP3    H127891   4.234   5.490  17.705  0.0847 -1.3044  0.7846
 1232TIP3    H227892   4.341   5.580  17.764 -1.1324  0.4114  0.4507
 1233TIP3   OH227893   3.494   0.344  17.436 -0.2505  0.2341  0.1375
 1233TIP3    H127894   3.470   0.416  17.377 -0.1304  0.1193 -0.0546
 1233TIP3    H227895   3.413   0.296  17.450 -0.1294 -0.1951 -0.5690
 1234TIP3   OH227896   3.473   0.892  18.811 -0.1130  0.3645 -0.2658
 1234TIP3    H127897   3.387   0.862  18.780 -0.0068 -2.1357  1.5291
 1234TIP3    H227898   3.451   0.959  18.876 -0.9406 -1.4387  1.4555
 1235TIP3   OH227899   2.659   5.270  18.055  0.0678  0.0703 -0.1509
 1235TIP3    H127900   2.663   5.347  17.998 -1.0341  1.1065  1.1145
 1235TIP3    H227901   2.578   5.227  18.031 -0.6179  0.7432  0.8739
 1236TIP3   OH227902   4.016   6.378  17.734 -0.5235 -0.3450 -0.3464
 1236TIP3    H127903   4.004   6.321  17.658  0.4718  1.8064 -2.2695
 1236TIP3    H227904   3.946   6.354  17.794 -1.1902 -2.3454 -1.8205
 1237TIP3   OH227905   2.467   3.404  19.188  0.2210  0.3644 -0.8368
 1237TIP3    H127906   2.392   3.461  19.204  0.8293  1.2368 -1.0337
 1237TIP3    H227907   2.431   3.332  19.135 -0.4298  0.8963 -1.1401
 1238TIP3   OH227908   2.923   1.373  19.383 -0.1198 -0.4736 -0.2743
 1238TIP3    H127909   2.892   1.286  19.409  0.0942 -0.5949 -0.4299
 1238TIP3    H227910   2.926   1.370  19.287  0.8630 -0.6244 -0.2395
 1239TIP3   OH227911   1.417   5.377  17.998 -0.0896  0.0837  0.4073
 1239TIP3    H127912   1.348   5.336  18.049 -1.6738  0.9955 -0.8998
 1239TIP3    H227913   1.382   5.381  17.909  2.9318 -2.4001 -1.0840
 1240TIP3   OH227914   4.850   4.948  18.594 -0.1926  0.4684  0.1085
 1240TIP3    H127915   4.765   4.990  18.604 -0.9347 -1.0313  0.4056
 1240TIP3    H227916   4.880   4.975  18.507 -0.5875  1.6609  0.3332
 1241TIP3   OH227917   0.332   0.576  19.402 -0.0265  0.2737 -0.2908
 1241TIP3    H127918   0.362   0.488  19.383  0.8627  0.5015  0.0271
 1241TIP3    H227919   0.291   0.606  19.320 -3.2610 -1.5610  0.4518
 1242TIP3   OH227920   6.118   5.252  17.682 -0.3941 -0.1466 -0.5997
 1242TIP3    H127921   6.032   5.241  17.722  0.2972  0.7341  1.2245
 1242TIP3    H227922   6.119   5.343  17.653  0.8170  0.6845  1.7985
 1243TIP3   OH227923   0.514   7.609  18.527 -0.0135  1.0928 -0.3126
 1243TIP3    H127924   0.464   7.540  18.569  0.9632  0.2238 -0.5472
 1243TIP3    H227925   0.447   7.671  18.495 -0.8704  0.4981  0.2891
 1244TIP3   OH227926   4.942   3.544  18.799 -0.1537 -0.2797  0.3474
 1244TIP3    H127927   4.959   3.629  18.758 -2.1484  0.6183  1.2387
 1244TIP3    H227928   4.847   3.535  18.796 -0.0758 -1.8513  1.5228
 1245TIP3   OH227929   5.073   6.679  18.903  0.6869  0.1095 -0.6986
 1245TIP3    H127930   5.068   6.632  18.986  1.2515 -1.1343 -1.3310
 1245TIP3    H227931   4.985   6.713  18.888  0.7759  1.0915  0.7961
 1246TIP3   OH227932   5.622   1.754  18.097 -0.3005  0.6782 -0.5148
 1246TIP3    H127933   5.653   1.673  18.139 -0.0177  0.4873 -1.0847
 1246TIP3    H227934   5.528   1.739  18.083 -0.1310  0.2021 -1.1704
 1247TIP3   OH227935   4.644   7.338  17.061  0.6767 -0.0486 -0.5897
 1247TIP3    H127936   4.627   7.253  17.021  4.2128 -0.9939 -0.4007
 1247TIP3    H227937   4.656   7.397  16.986  0.1052 -0.1235 -0.7496
 1248TIP3   OH227938   3.639   4.353  19.263 -0.0058 -0.5458  0.1091
 1248TIP3    H127939   3.695   4.414  19.311 -0.4221 -1.5559  1.9813
 1248TIP3    H227940   3.676   4.267  19.281 -1.0352 -1.0686 -0.1610
 1249TIP3   OH227941   7.274   4.962  19.012 -0.6984 -0.1022  0.3684
 1249TIP3    H127942   7.335   4.897  18.978 -0.0943  1.2886 -1.3709
 1249TIP3    H227943   7.193   4.947  18.964 -0.8272 -0.1419  0.5991
 1250TIP3   OH227944   2.573   4.968  19.137  0.4827  0.0239  0.4116
 1250TIP3    H127945   2.504   4.902  19.124  0.1546  0.7143 -1.6859
 1250TIP3    H227946   2.651   4.917  19.159  0.1414 -1.0600 -0.7779
 1251TIP3   OH227947   6.019   7.531  18.444 -0.1692  0.8290 -0.1091
 1251TIP3    H127948   5.981   7.483  18.370 -0.3367  1.6486 -0.5600
 1251TIP3    H227949   6.062   7.463  18.497 -0.8080  0.1228 -0.4854
 1252TIP3   OH227950   4.889   0.781  18.176 -0.1153 -0.2584 -0.1717
 1252TIP3    H127951   4.868   0.688  18.183 -2.1158  0.2087  0.7378
 1252TIP3    H227952   4.978   0.783  18.141  0.1711 -2.5152  0.2755
 1253TIP3   OH227953   6.197   5.735  18.982 -0.4521 -0.0282 -0.4114
 1253TIP3    H127954   6.231   5.802  18.923 -0.1480 -1.5169 -2.0103
 1253TIP3    H227955   6.248   5.656  18.961 -3.5713 -1.8855 -1.6281
 1254TIP3   OH227956   5.169   1.277  19.433  0.1940  0.3723  0.4273
 1254TIP3    H127957   5.203   1.359  19.397  1.9267 -0.5131 -0.0519
 1254TIP3    H227958   5.186   1.212  19.365  0.0458 -0.6271  1.3215
 1255TIP3   OH227959   2.930   4.634  19.186 -0.5148  0.6281  0.6559
 1255TIP3    H127960   2.996   4.700  19.166  0.7711 -1.0604 -1.1224
 1255TIP3    H227961   2.981   4.555  19.206 -1.9799 -0.4555  0.2704
 1256TIP3   OH227962   5.931   3.727  21.542  0.0041  0.6054 -0.2933
 1256TIP3    H127963   5.938   3.665  21.614  0.3559  0.0179 -0.8185
 1256TIP3    H227964   5.838   3.727  21.519  0.3805 -1.9763 -2.1839
 1257TIP3   OH227965   2.308   1.019  17.769 -0.6065 -0.3589 -0.3315
 1257TIP3    H127966   2.304   0.974  17.853  0.8489  0.2232  0.0840
 1257TIP3    H227967   2.297   1.112  17.791 -0.2774 -0.2081 -0.7829
 1258TIP3   OH227968   0.648   3.252  17.771  0.3088 -0.2440  0.3963
 1258TIP3    H127969   0.679   3.286  17.687 -0.2513  0.1993  0.3667
 1258TIP3    H227970   0.722   3.266  17.831  1.2142 -1.7422 -0.2949
 1259TIP3   OH227971   0.401   3.189  17.905 -0.3080  0.2356 -0.0764
 1259TIP3    H127972   0.391   3.269  17.957 -1.4957  0.0314  0.0334
 1259TIP3    H227973   0.474   3.208  17.847  0.5779  0.7480  1.1467
 1260TIP3   OH227974   7.093   5.830  18.236  0.1995  0.0420 -0.5248
 1260TIP3    H127975   7.096   5.755  18.176  0.1790 -0.7602  0.4362
 1260TIP3    H227976   7.176   5.876  18.221  0.2042 -0.1658 -1.1479
 1261TIP3   OH227977   3.136   7.216  19.342 -0.0132  0.0246 -0.2457
 1261TIP3    H127978   3.164   7.125  19.332  1.9105  0.1855  2.3874
 1261TIP3    H227979   3.177   7.262  19.269  1.1804 -0.8549 -0.1653
 1262TIP3   OH227980   1.773   6.170  17.079  0.3067  0.1429 -0.2036
 1262TIP3    H127981   1.732   6.130  17.156  0.4366 -2.0940 -1.2157
 1262TIP3    H227982   1.700   6.213  17.033 -0.2468 -0.6751 -0.1158
 1263TIP3   OH227983   3.647   4.084  19.392 -0.3939 -0.0972  0.6245
 1263TIP3    H127984   3.687   4.014  19.444 -0.1996 -0.7857 -0.4178
 1263TIP3    H227985   3.554   4.079  19.413 -0.1771  0.3616  1.7338
 1264TIP3   OH227986   3.992   3.964  17.641  0.5922  0.2326  0.0540
 1264TIP3    H127987   3.997   4.022  17.717  1.1642 -1.0800  1.0747
 1264TIP3    H227988   4.055   3.894  17.661 -1.3092 -1.6641 -0.3057
 1265TIP3   OH227989   7.147   0.377  17.563  0.1726  0.3723 -0.5046
 1265TIP3    H127990   7.101   0.391  17.481  2.3327  0.0557 -1.8647
 1265TIP3    H227991   7.106   0.299  17.601 -1.2854  0.9143 -0.9249
 1266TIP3   OH227992   3.637   4.448  18.752  0.1538  0.3604 -0.4305
 1266TIP3    H127993   3.597   4.416  18.832 -0.5619  0.6871 -0.6534
 1266TIP3    H227994   3.690   4.374  18.720  0.6278  0.3094  0.4532
 1267TIP3   OH227995   2.866   4.267  19.220 -0.0731  0.1110  0.1172
 1267TIP3    H127996   2.792   4.327  19.231  0.0306 -0.0138  1.7092
 1267TIP3    H227997   2.839   4.188  19.266  0.6240 -0.3271 -0.2148
 1268TIP3   OH227998   5.133   7.259  18.129  0.0925 -0.4663 -0.4702
 1268TIP3    H127999   5.198   7.329  18.119  0.6025 -1.1179 -2.0070
 1268TIP3    H228000   5.050   7.305  18.144  0.4798  0.4483 -1.0415
 1269TIP3   OH228001   3.481   5.165  17.195 -0.0207 -0.2453  0.1791
 1269TIP3    H128002   3.391   5.132  17.201  0.1178 -1.4489 -2.8463
 1269TIP3    H228003   3.483   5.213  17.112  2.0783  0.0554  0.3581
 1270TIP3   OH228004   5.063   3.486  19.512  0.1887  0.0404  0.6554
 1270TIP3    H128005   5.057   3.554  19.580 -0.1779  0.5692  0.1042
 1270TIP3    H228006   4.999   3.513  19.446 -0.0103 -0.8890  0.4650
 1271TIP3   OH228007   6.807   5.156  17.422  0.4339 -0.1028 -0.1273
 1271TIP3    H128008   6.860   5.076  17.424  1.7774  0.7575  1.9500
 1271TIP3    H228009   6.716   5.125  17.419  0.9523 -1.6804 -0.2835
 1272TIP3   OH228010   1.602   5.485  17.551 -0.2012 -0.6788  0.1925
 1272TIP3    H128011   1.597   5.443  17.465 -0.2933  1.1546 -0.7508
 1272TIP3    H228012   1.686   5.457  17.586  0.2026 -0.8304 -0.8529
 1273TIP3   OH228013   0.003   1.342  17.695  0.5290  0.0924  0.3776
 1273TIP3    H128014  -0.043   1.317  17.615 -2.1003  0.6486  1.6000
 1273TIP3    H228015   0.095   1.325  17.676 -0.2478 -2.5203 -1.7349
 1274TIP3   OH228016   6.522   0.859  18.927  0.1174 -0.0030  0.0540
 1274TIP3    H128017   6.596   0.918  18.912  0.4019 -0.6377 -1.1375
 1274TIP3    H228018   6.561   0.782  18.969  0.0804 -0.2004 -0.2722
 1275TIP3   OH228019   4.041   0.739  16.889 -1.4192  0.2250  0.5346
 1275TIP3    H128020   3.952   0.735  16.853 -0.2242 -0.9049 -2.6133
 1275TIP3    H228021   4.059   0.833  16.897 -2.7270  0.4717  0.8594
 1276TIP3   OH228022   5.912   5.563  18.201 -0.0270 -0.7860  0.4429
 1276TIP3    H128023   5.928   5.521  18.117  1.4346  0.6514 -0.0449
 1276TIP3    H228024   5.825   5.533  18.227 -1.3663  0.1691 -2.4783
 1277TIP3   OH228025   1.344   5.616  19.457 -0.0185  0.0724 -0.1185
 1277TIP3    H128026   1.417   5.571  19.415 -0.1290 -0.3182  0.1136
 1277TIP3    H228027   1.276   5.550  19.466  0.1742  0.0311  1.1195
 1278TIP3   OH228028   0.278   0.105  18.135 -0.1041  0.0987  0.0252
 1278TIP3    H128029   0.261   0.199  18.142 -1.2820 -0.0701 -0.3338
 1278TIP3    H228030   0.349   0.098  18.072 -0.6269  0.7057 -0.6414
 1279TIP3   OH228031   5.007   2.617  19.201 -0.2055  0.3001 -0.1750
 1279TIP3    H128032   4.966   2.641  19.284  1.8128  1.2920  0.6192
 1279TIP3    H228033   5.053   2.535  19.220  0.2191  0.5019 -0.3100
 1280TIP3   OH228034   0.569   2.070  18.603 -0.6693  0.3026 -0.3592
 1280TIP3    H128035   0.555   1.980  18.575 -0.4893 -0.0927  0.7592
 1280TIP3    H228036   0.664   2.084  18.594 -0.6576  0.2826 -0.2711
 1281TIP3   OH228037   7.006   4.518  18.385  0.3566  0.0946  0.3282
 1281TIP3    H128038   6.991   4.519  18.290  0.9924  0.2553  0.2219
 1281TIP3    H228039   7.012   4.610  18.409  2.0225  0.0510  0.2039
 1282TIP3   OH228040   0.039   1.881  17.951  0.6573 -0.2926 -0.2626
 1282TIP3    H128041   0.041   1.904  17.858 -3.0464  0.4192 -0.3098
 1282TIP3    H228042   0.010   1.960  17.996 -0.1110 -1.3300  1.1782
 1283TIP3   OH228043   3.578   0.134  17.921  0.7310  0.2120  0.2173
 1283TIP3    H128044   3.569   0.182  17.838  1.7944 -0.3478 -0.2391
 1283TIP3    H228045   3.669   0.148  17.947  0.7622 -0.6997  0.6235
 1284TIP3   OH228046   2.398   4.184  19.513  0.2651 -0.0407 -0.1946
 1284TIP3    H128047   2.477   4.136  19.535 -0.6817 -1.1189  1.0462
 1284TIP3    H228048   2.413   4.219  19.426  2.3418  0.3265  0.2711
 1285TIP3   OH228049   1.147   5.009  19.384  0.2762 -0.2359 -0.1857
 1285TIP3    H128050   1.113   5.052  19.462 -0.0077  0.1419 -0.5158
 1285TIP3    H228051   1.220   5.064  19.355  0.7786 -0.7055  0.1597
 1286TIP3   OH228052   7.149   3.409  18.051 -0.0516 -0.1914 -0.2280
 1286TIP3    H128053   7.169   3.490  18.004  0.3104 -0.2342 -0.1512
 1286TIP3    H228054   7.103   3.438  18.130 -0.8516 -0.1337 -0.7023
 1287TIP3   OH228055   1.262   6.655  18.547  0.1928 -0.0450  0.1360
 1287TIP3    H128056   1.334   6.690  18.600  0.8435 -1.6535  0.3668
 1287TIP3    H228057   1.184   6.697  18.583  0.9422  1.2500  0.3046
 1288TIP3   OH228058   4.157   1.576  18.749  0.1446  0.5823  0.2481
 1288TIP3    H128059   4.078   1.526  18.769  0.7766 -0.4656  0.1866
 1288TIP3    H228060   4.189   1.605  18.835  1.0456 -1.1211  0.5310
 1289TIP3   OH228061   0.181   7.074  18.847  0.8759 -0.2813  0.1316
 1289TIP3    H128062   0.264   7.111  18.877  0.1647 -0.5235  2.6961
 1289TIP3    H228063   0.119   7.147  18.855  0.4037 -0.7199  0.5618
 1290TIP3   OH228064   1.026   1.667  19.093  1.0386  0.0326  0.6507
 1290TIP3    H128065   0.960   1.712  19.041  1.1406 -0.1089  0.4015
 1290TIP3    H228066   0.976   1.616  19.156  0.8633 -1.3353 -0.5609
 1291TIP3   OH228067   0.752   3.289  17.515  0.1302 -0.5140  0.5284
 1291TIP3    H128068   0.710   3.275  17.430 -0.3805  0.9861  0.5090
 1291TIP3    H228069   0.845   3.269  17.499  0.7085  2.8373 -1.3296
 1292TIP3   OH228070   5.957   0.325  18.844 -0.2188  0.2268 -0.2061
 1292TIP3    H128071   5.975   0.284  18.759  0.6767 -0.0210  0.0951
 1292TIP3    H228072   6.020   0.397  18.850  0.1901 -0.1866  0.5451
 1293TIP3   OH228073   0.610   0.518  17.467 -0.2779 -0.4024  0.1052
 1293TIP3    H128074   0.600   0.485  17.556 -2.2982 -1.4145 -0.4377
 1293TIP3    H228075   0.555   0.596  17.464  0.3241  0.0217 -0.0798
 1294TIP3   OH228076   1.908   3.508  19.193 -0.1058  0.0458 -1.0076
 1294TIP3    H128077   1.910   3.589  19.143 -0.5769  0.3411 -0.5662
 1294TIP3    H228078   1.816   3.480  19.189 -0.0840 -0.0981 -0.5922
 1295TIP3   OH228079   3.303   6.613  18.359  0.2757 -0.6123  0.1962
 1295TIP3    H128080   3.254   6.536  18.388  0.3635 -0.1906  1.5310
 1295TIP3    H228081   3.247   6.687  18.383  0.9369 -0.1945  0.4898
 1296TIP3   OH228082   5.693   4.604  17.100  0.1402  0.1642 -0.2372
 1296TIP3    H128083   5.746   4.648  17.034  0.8269 -1.0060 -0.4894
 1296TIP3    H228084   5.667   4.674  17.160  2.0671  0.7916 -0.0411
 1297TIP3   OH228085   6.804   2.650  19.089  0.6495 -0.2880  0.1647
 1297TIP3    H128086   6.847   2.566  19.073  1.8468  0.4967 -0.8973
 1297TIP3    H228087   6.790   2.687  19.002 -0.5722  0.2894  0.5829
 1298TIP3   OH228088   7.340   5.686  18.506 -0.3153 -0.6737 -0.1649
 1298TIP3    H128089   7.381   5.768  18.535 -0.0713 -0.6014 -0.7090
 1298TIP3    H228090   7.411   5.637  18.466 -0.3170 -1.4345  0.7230
 1299TIP3   OH228091   1.698   2.213  16.893 -0.0517 -0.0872  0.3106
 1299TIP3    H128092   1.673   2.302  16.867 -2.3381 -0.4073  1.1922
 1299TIP3    H228093   1.705   2.217  16.988  0.5107 -0.7060  0.3011
 1300TIP3   OH228094   5.481   3.126  18.874  0.1925 -0.2458  0.1428
 1300TIP3    H128095   5.539   3.196  18.905  1.6324 -0.3764 -2.1023
 1300TIP3    H228096   5.539   3.052  18.858 -0.9952 -1.2423  0.2919
 1301TIP3   OH228097   7.589   0.125  18.637  0.6613  0.3303  0.0765
 1301TIP3    H128098   7.666   0.176  18.612  0.6800  1.0237  1.5048
 1301TIP3    H228099   7.527   0.189  18.671 -0.0966 -0.3696  0.0538
 1302TIP3   OH228100   3.895   4.583  17.698 -0.1882  0.3056 -0.3217
 1302TIP3    H128101   3.946   4.660  17.671  1.3384  0.9062  3.6031
 1302TIP3    H228102   3.918   4.571  17.790 -3.1575 -2.7395  0.1873
 1303TIP3   OH228103   3.730   7.034  18.004 -0.4886  0.4878 -0.2388
 1303TIP3    H128104   3.697   6.944  17.999  1.5008 -0.2862 -0.3205
 1303TIP3    H228105   3.740   7.061  17.912 -0.4997  0.5612 -0.2177
 1304TIP3   OH228106   1.604   4.857  17.315  0.3552  0.0359 -0.2954
 1304TIP3    H128107   1.591   4.889  17.226 -0.3902  1.6070  0.3417
 1304TIP3    H228108   1.518   4.865  17.356  0.8163 -0.1145  0.7446
 1305TIP3   OH228109   7.508   2.402  18.731  0.1018 -0.5579  0.8965
 1305TIP3    H128110   7.599   2.378  18.749  0.5515 -2.5829 -2.9227
 1305TIP3    H228111   7.509   2.497  18.721  1.6446 -0.4791  1.6341
 1306TIP3   OH228112   3.870   3.600  17.894  0.2124 -0.2292  0.1680
 1306TIP3    H128113   3.794   3.657  17.910 -0.1804 -0.5651 -0.4356
 1306TIP3    H228114   3.897   3.572  17.981  0.6215  1.1264  0.5098
 1307TIP3   OH228115   1.723   7.538  17.733 -0.7716 -0.2814 -0.0406
 1307TIP3    H128116   1.800   7.482  17.741  0.1182  0.6715 -1.4854
 1307TIP3    H228117   1.703   7.566  17.823  0.9571 -0.0225  0.2828
 1308TIP3   OH228118   1.128   6.280  19.033  0.1204  0.5147 -0.6166
 1308TIP3    H128119   1.036   6.253  19.041 -0.0649  0.9264 -1.2700
 1308TIP3    H228120   1.129   6.338  18.957  1.1268 -0.3530 -1.2854
 1309TIP3   OH228121   4.646   1.780  18.258 -0.4622  0.5016  0.0561
 1309TIP3    H128122   4.599   1.709  18.301  0.2118  0.8978  1.5260
 1309TIP3    H228123   4.580   1.846  18.242 -0.9916 -0.2245 -0.8311
 1310TIP3   OH228124   2.026   7.134  18.914  0.2211 -0.2286 -0.1957
 1310TIP3    H128125   2.086   7.074  18.958  0.0989 -0.9152 -0.9428
 1310TIP3    H228126   2.046   7.220  18.951  2.3213 -0.2783 -1.1158
 1311TIP3   OH228127   4.386   0.321  18.499  0.0494 -0.2182 -1.2852
 1311TIP3    H128128   4.332   0.400  18.487 -0.2509 -0.2022  0.0355
 1311TIP3    H228129   4.334   0.265  18.557  0.1645 -1.4997 -2.3761
 1312TIP3   OH228130   0.065   2.167  18.602 -0.3491 -0.3731  0.0122
 1312TIP3    H128131   0.098   2.080  18.579  1.5709  1.1036 -3.6662
 1312TIP3    H228132   0.136   2.207  18.654 -0.7741 -0.5804  0.7734
 1313TIP3   OH228133   5.912   5.016  18.988 -0.2186  0.3562  0.1362
 1313TIP3    H128134   5.932   5.054  18.902 -1.7583  0.2336 -0.2928
 1313TIP3    H228135   5.855   5.080  19.029  0.0527  0.1431  0.8551
 1314TIP3   OH228136   7.488   6.871  17.359  0.4503  0.2952 -0.0692
 1314TIP3    H128137   7.556   6.872  17.291  0.2312 -2.6796 -0.4719
 1314TIP3    H228138   7.409   6.843  17.313  0.3312 -1.9644  1.3402
 1315TIP3   OH228139   5.804   1.130  17.914  0.5434  0.1498 -0.0994
 1315TIP3    H128140   5.817   1.223  17.893 -0.1587  0.1975 -0.3425
 1315TIP3    H228141   5.888   1.089  17.894 -0.0053  0.2052 -2.8934
 1316TIP3   OH228142   5.303   0.615  17.808 -0.3436  0.2680  0.3500
 1316TIP3    H128143   5.363   0.649  17.741 -0.7141  0.9379  0.3491
 1316TIP3    H228144   5.332   0.657  17.889 -0.5972  0.3419  0.4058
 1317TIP3   OH228145   4.305   6.787  17.013  0.4679  0.4126  0.1965
 1317TIP3    H128146   4.210   6.781  17.003  0.6154 -0.2962 -1.0084
 1317TIP3    H228147   4.328   6.868  16.966  0.5316  0.2034 -0.1364
 1318TIP3   OH228148   2.236   6.625  19.224 -0.3655  0.1396 -0.0837
 1318TIP3    H128149   2.159   6.571  19.243 -1.3556  1.6614  0.3416
 1318TIP3    H228150   2.308   6.561  19.218 -1.2570 -1.1327  1.6410
 1319TIP3   OH228151   5.396   5.708  17.405  0.4495  0.2762  0.1066
 1319TIP3    H128152   5.431   5.757  17.480 -0.2389  0.1192  0.5465
 1319TIP3    H228153   5.363   5.776  17.346 -2.1550  0.4005  1.5287
 1320TIP3   OH228154   4.826   2.600  18.630 -0.5181 -0.3937 -0.2140
 1320TIP3    H128155   4.862   2.687  18.611 -0.0289 -0.9293 -1.8180
 1320TIP3    H228156   4.786   2.572  18.548 -2.3181 -0.9374  0.7839
 1321TIP3   OH228157   0.961   3.995  18.772  0.5725 -0.1324  0.1750
 1321TIP3    H128158   0.974   4.045  18.852 -3.0957  0.3075  0.6729
 1321TIP3    H228159   0.925   4.059  18.710  2.2837 -0.7191 -1.5007
 1322TIP3   OH228160   5.331   1.664  18.565 -0.2294 -0.1273 -0.0960
 1322TIP3    H128161   5.261   1.621  18.516 -0.0120 -0.5857 -0.0170
 1322TIP3    H228162   5.381   1.592  18.603 -0.2077  0.2148  0.5417
 1323TIP3   OH228163   3.156   6.650  17.505  0.2605  0.4478  0.0312
 1323TIP3    H128164   3.147   6.734  17.550 -0.5581  1.1809 -1.4305
 1323TIP3    H228165   3.093   6.593  17.549 -0.0448  0.9473  0.2572
 1324TIP3   OH228166   7.498   5.075  18.478  0.3808 -0.9849  0.0343
 1324TIP3    H128167   7.588   5.069  18.444  0.1101 -2.7894 -0.4535
 1324TIP3    H228168   7.499   5.024  18.558  0.5364  1.7145  1.8944
 1325TIP3   OH228169   7.147   3.623  17.882 -0.0418 -0.1409 -0.5068
 1325TIP3    H128170   7.208   3.667  17.823  0.0242 -1.7332 -1.6899
 1325TIP3    H228171   7.067   3.676  17.876  0.4512  0.5947 -0.8201
 1326TIP3   OH228172   2.364   6.728  16.844 -0.0423 -0.0697  0.4374
 1326TIP3    H128173   2.384   6.736  16.938 -0.8513  0.3251  0.5827
 1326TIP3    H228174   2.301   6.656  16.840 -1.2689  0.9758  0.3966
 1327TIP3   OH228175   4.156   7.629  17.815  0.1362  0.1565  0.1363
 1327TIP3    H128176   4.162   7.697  17.882  1.2200 -0.1106  0.3226
 1327TIP3    H228177   4.238   7.636  17.766 -1.1124  1.1579 -1.9751
 1328TIP3   OH228178   2.874   1.117  18.680  0.2776 -0.3327 -0.2466
 1328TIP3    H128179   2.870   1.210  18.655 -0.3099 -0.5359 -0.9176
 1328TIP3    H228180   2.783   1.093  18.697  0.4506 -0.7412  0.1301
 1329TIP3   OH228181   6.196   2.001  17.984 -0.4726  0.2561 -0.4572
 1329TIP3    H128182   6.179   1.949  18.063 -0.4971  0.6220 -0.2187
 1329TIP3    H228183   6.214   1.936  17.916  2.7565 -0.1110  0.5419
 1330TIP3   OH228184   2.603   6.862  17.602  0.3329 -0.0594  0.3595
 1330TIP3    H128185   2.517   6.892  17.572 -0.1252 -1.5011  0.1627
 1330TIP3    H228186   2.658   6.940  17.597 -0.8573  0.7934  0.0916
 1331TIP3   OH228187   5.901   7.396  19.136  0.3793  0.3447 -0.4279
 1331TIP3    H128188   5.884   7.468  19.075  0.7462 -0.0730 -1.0355
 1331TIP3    H228189   5.921   7.321  19.080 -1.5005 -0.6452  0.1424
 1332TIP3   OH228190   0.222   7.653  17.283  0.1340 -0.2942  0.4926
 1332TIP3    H128191   0.275   7.700  17.218 -0.7111  0.5113  0.3621
 1332TIP3    H228192   0.286   7.616  17.343  0.9078 -0.5493 -0.4527
 1333TIP3   OH228193   3.979   1.068  19.247 -0.0507  0.4800  0.6302
 1333TIP3    H128194   3.929   1.101  19.321 -1.5718  1.1129 -0.6070
 1333TIP3    H228195   3.946   1.118  19.172 -0.1615 -1.6476 -0.8279
 1334TIP3   OH228196   1.522   3.363  19.452  0.3004 -0.5262 -0.0648
 1334TIP3    H128197   1.427   3.374  19.448 -0.0453 -2.9312 -0.3327
 1334TIP3    H228198   1.552   3.432  19.510 -1.1573  2.3702 -2.4953
 1335TIP3   OH228199   4.672   4.525  19.125 -0.2399 -0.2899 -0.0813
 1335TIP3    H128200   4.598   4.550  19.180  0.5120  0.5597  0.5767
 1335TIP3    H228201   4.641   4.540  19.035 -0.7932  0.2642  0.1940
 1336TIP3   OH228202   4.361   5.868  18.151 -0.2133 -0.1357 -0.2671
 1336TIP3    H128203   4.426   5.834  18.090 -0.8386 -0.8989 -0.5308
 1336TIP3    H228204   4.373   5.817  18.230 -0.4523 -0.2441 -0.2989
 1337TIP3   OH228205   4.550   3.662  17.623  0.0035 -0.0455 -0.3112
 1337TIP3    H128206   4.597   3.743  17.606  0.7036 -0.6001 -1.0920
 1337TIP3    H228207   4.574   3.604  17.551 -0.7885 -0.8209  0.0223
 1338TIP3   OH228208   1.659   6.688  18.027 -0.1910  0.1968  0.1973
 1338TIP3    H128209   1.688   6.770  17.987 -0.7577  0.6951  0.7756
 1338TIP3    H228210   1.607   6.645  17.959 -1.8718  1.4380  0.6366
 1339TIP3   OH228211   5.882   2.799  18.854  0.0482 -0.1620  0.0243
 1339TIP3    H128212   5.881   2.801  18.758  0.9213  0.3590  0.0192
 1339TIP3    H228213   5.790   2.812  18.878 -0.3076 -1.0962 -0.7436
 1340TIP3   OH228214   4.484   2.811  18.102 -0.0187 -0.2949  0.1191
 1340TIP3    H128215   4.556   2.797  18.040  0.1060 -1.3964  0.4958
 1340TIP3    H228216   4.513   2.767  18.182 -0.4941  0.4986  0.7398
 1341TIP3   OH228217   5.386   7.034  19.090 -0.2544 -0.6991  0.4870
 1341TIP3    H128218   5.452   7.087  19.134  1.2148 -1.6900 -0.4119
 1341TIP3    H228219   5.305   7.081  19.102  1.0116  1.9343 -0.5131
 1342TIP3   OH228220   4.214   7.102  17.285 -0.6609 -0.0429 -0.0944
 1342TIP3    H128221   4.158   7.103  17.208  0.8397  0.5476 -1.2164
 1342TIP3    H228222   4.160   7.062  17.353 -2.4519  0.5522 -1.1002
 1343TIP3   OH228223   5.419   5.325  18.267  0.6365  0.4580 -0.4246
 1343TIP3    H128224   5.458   5.389  18.326  0.2883  0.0208  0.2884
 1343TIP3    H228225   5.463   5.340  18.183  1.5817  0.6664  0.0980
 1344TIP3   OH228226   6.187   2.367  18.676 -0.9358  0.4814 -0.1915
 1344TIP3    H128227   6.158   2.430  18.611 -0.7717 -1.0995 -1.8669
 1344TIP3    H228228   6.147   2.284  18.649  0.7838 -0.6456  0.5494
 1345TIP3   OH228229   0.063   3.974  16.793 -0.2280  0.6068 -0.0291
 1345TIP3    H128230   0.031   3.937  16.710  0.6069  1.8833 -0.9658
 1345TIP3    H228231   0.098   3.899  16.841  1.0265  0.0752 -1.6776
 1346TIP3   OH228232   3.089   5.285  17.784 -0.0219 -0.2940 -0.0698
 1346TIP3    H128233   3.065   5.194  17.765 -2.4269  0.0969  0.8326
 1346TIP3    H228234   3.033   5.311  17.856  0.4284  2.0125 -0.4588
 1347TIP3   OH228235   3.149   3.232  16.808 -0.0363  0.1057  0.0432
 1347TIP3    H128236   3.128   3.325  16.818  2.1298  0.6862 -0.2023
 1347TIP3    H228237   3.081   3.199  16.749 -2.6881  0.7198  2.5025
 1348TIP3   OH228238   6.216   7.206  18.808 -0.3414 -0.7685 -0.4649
 1348TIP3    H128239   6.234   7.135  18.746 -0.8237 -1.3760  0.0812
 1348TIP3    H228240   6.302   7.245  18.825 -0.2779 -0.1424 -2.0331
 1349TIP3   OH228241   6.354   6.452  18.439  0.2158 -0.4269  0.1725
 1349TIP3    H128242   6.264   6.445  18.471  0.8215  0.6073  2.3071
 1349TIP3    H228243   6.406   6.470  18.518  1.9749  1.3948 -1.2959
 1350TIP3   OH228244   1.851   1.854  17.627  0.4382 -0.2641  0.0240
 1350TIP3    H128245   1.909   1.923  17.597 -0.1673 -0.6741 -2.2936
 1350TIP3    H228246   1.764   1.894  17.628  0.3178 -0.5274  0.3245
 1351TIP3   OH228247   0.468   4.530  17.381  0.0954  0.0484 -0.8312
 1351TIP3    H128248   0.493   4.438  17.389 -0.2922 -0.0380 -0.5789
 1351TIP3    H228249   0.372   4.529  17.376 -0.3356  0.6934  3.6621
 1352TIP3   OH228250   2.970   0.682  18.736  0.3454  0.2063 -0.0096
 1352TIP3    H128251   2.983   0.687  18.641  1.3601  0.8414  0.1426
 1352TIP3    H228252   2.912   0.755  18.756  0.0378  0.0025 -0.1558
 1353TIP3   OH228253   4.666   2.156  18.205 -0.2148  0.0748  0.1963
 1353TIP3    H128254   4.648   2.123  18.117 -0.4460 -1.1216  0.6791
 1353TIP3    H228255   4.581   2.152  18.250 -0.3543  1.7516  0.1604
 1354TIP3   OH228256   1.928   5.415  18.260  0.0181 -0.2544 -0.0428
 1354TIP3    H128257   2.020   5.411  18.287 -0.3573  0.0736  1.3718
 1354TIP3    H228258   1.894   5.493  18.303 -1.1935 -0.9825  0.3664
 1355TIP3   OH228259   2.163   3.819  18.204  0.4666 -0.5606 -0.6060
 1355TIP3    H128260   2.123   3.843  18.288  0.5550 -0.1177 -0.6871
 1355TIP3    H228261   2.090   3.822  18.141  0.4157 -0.8145 -0.5587
 1356TIP3   OH228262   1.446   2.957  18.807  0.0959  0.4489 -0.0522
 1356TIP3    H128263   1.380   2.999  18.862 -1.1923 -0.2026 -1.0556
 1356TIP3    H228264   1.447   3.009  18.727  1.3338  0.8678  0.2114
 1357TIP3   OH228265   2.670   2.489  18.943 -0.0196  0.5369 -0.2619
 1357TIP3    H128266   2.660   2.574  18.900  1.7729  1.1429  0.4186
 1357TIP3    H228267   2.740   2.446  18.894 -0.1758 -0.0971  0.0722
 1358TIP3   OH228268   5.513   1.471  17.819  0.6292 -0.0549 -0.1674
 1358TIP3    H128269   5.510   1.407  17.889  0.0638 -1.3502 -1.3366
 1358TIP3    H228270   5.454   1.541  17.847  1.9025  0.4254  1.5112
 1359TIP3   OH228271   0.904   2.647  18.832 -0.3665  0.1901  0.1621
 1359TIP3    H128272   0.985   2.690  18.803 -0.6304  1.6881  1.5137
 1359TIP3    H228273   0.848   2.646  18.754 -0.1437  1.8596 -0.0652
 1360TIP3   OH228274   3.304   6.704  17.291  0.3212 -0.1945 -0.1959
 1360TIP3    H128275   3.368   6.633  17.289  1.3159  0.6446  0.6357
 1360TIP3    H228276   3.240   6.677  17.356  1.2294  0.0679  0.8501
 1361TIP3   OH228277   0.139   4.263  18.773 -0.3328 -0.0722  0.4632
 1361TIP3    H128278   0.188   4.183  18.794  0.3030  0.2807  0.3632
 1361TIP3    H228279   0.116   4.301  18.858  0.1704  0.1183  0.5154
 1362TIP3   OH228280   1.054   7.425  16.821  0.0315  0.0277 -0.0636
 1362TIP3    H128281   1.115   7.496  16.805 -0.9789  1.2324  1.2004
 1362TIP3    H228282   1.059   7.370  16.742  0.4547  1.7485 -1.2797
 1363TIP3   OH228283   2.127   2.997  18.041  0.7273  0.1607 -0.1126
 1363TIP3    H128284   2.174   3.073  18.006  1.6191  0.2663  1.2005
 1363TIP3    H228285   2.189   2.957  18.102 -0.8602  0.2964  1.7108
 1364TIP3   OH228286   5.287   2.951  18.109 -0.1947 -0.3735 -0.2493
 1364TIP3    H128287   5.263   2.858  18.114  0.1338 -0.4185  0.4532
 1364TIP3    H228288   5.300   2.978  18.199  2.1546 -0.2748 -0.5520
 1365TIP3   OH228289   5.609   2.328  18.948  0.0983 -0.2647 -0.0689
 1365TIP3    H128290   5.521   2.297  18.925 -0.7295  2.3494 -0.8295
 1365TIP3    H228291   5.660   2.318  18.868 -0.8257  2.3132 -1.0773
 1366TIP3   OH228292   4.313   2.438  19.362 -0.2612  0.1913  0.1648
 1366TIP3    H128293   4.400   2.474  19.347  0.0328 -0.6305 -0.2054
 1366TIP3    H228294   4.322   2.345  19.341 -1.2452  0.1080  0.0538
 1367TIP3   OH228295   1.370   4.502  18.683 -0.3368  0.3345 -0.2843
 1367TIP3    H128296   1.362   4.560  18.608 -2.0903  1.0126  0.3791
 1367TIP3    H228297   1.400   4.418  18.646  0.7527  1.1929 -1.4340
 1368TIP3   OH228298   4.714   6.068  17.868 -0.1195 -0.2321 -0.0176
 1368TIP3    H128299   4.746   6.145  17.915 -0.3242 -0.6727  0.8742
 1368TIP3    H228300   4.789   6.009  17.864 -0.3220 -0.5291  0.4852
 1369TIP3   OH228301   2.100   4.481  17.392 -0.1951  0.0585 -0.2847
 1369TIP3    H128302   2.176   4.514  17.441  0.6882 -0.6442 -1.1522
 1369TIP3    H228303   2.030   4.478  17.457  1.1359 -1.5780  1.1845
 1370TIP3   OH228304   6.783   7.477  18.352  0.1084  0.6334  0.2290
 1370TIP3    H128305   6.726   7.405  18.382  0.3568  0.2520 -0.2035
 1370TIP3    H228306   6.744   7.506  18.270 -0.1858  1.2288  0.5749
 1371TIP3   OH228307   0.156   5.513  18.920 -0.4639 -0.4659  0.2337
 1371TIP3    H128308   0.110   5.582  18.870 -0.2252  0.1648  0.8744
 1371TIP3    H228309   0.194   5.559  18.994  1.1341 -1.0025 -0.2274
 1372TIP3   OH228310   7.208   4.445  17.102  0.2370  0.6296  0.6491
 1372TIP3    H128311   7.255   4.506  17.158  0.3480  1.2395 -0.1000
 1372TIP3    H228312   7.153   4.500  17.047  1.0521  0.1312 -0.7031
 1373TIP3   OH228313   6.781   7.285  17.344 -0.1750 -0.0362  0.8610
 1373TIP3    H128314   6.794   7.226  17.419  1.9180  0.4470  0.9326
 1373TIP3    H228315   6.842   7.253  17.278 -1.3808  0.0904 -0.3444
 1374TIP3   OH228316   1.656   3.210  18.123 -0.6009  0.1271  0.3137
 1374TIP3    H128317   1.742   3.251  18.131 -0.5256  0.0276 -0.0151
 1374TIP3    H228318   1.618   3.247  18.044 -0.0488 -1.3313 -0.6642
 1375TIP3   OH228319   6.152   2.665  17.670 -0.3445 -0.3691 -0.1324
 1375TIP3    H128320   6.192   2.752  17.676 -0.3144 -0.4459  1.0088
 1375TIP3    H228321   6.140   2.638  17.761 -0.4984 -1.4994 -0.4743
 1376TIP3   OH228322   1.147   2.053  17.984 -0.3737  0.2113 -0.0454
 1376TIP3    H128323   1.185   2.102  18.057 -0.2760 -0.0546  0.0811
 1376TIP3    H228324   1.125   1.968  18.020 -0.3084  0.0708 -0.3311
 1377TIP3   OH228325   1.607   4.931  17.657  0.0353  0.4226 -0.1612
 1377TIP3    H128326   1.673   4.999  17.650  0.0143  0.4935  0.3048
 1377TIP3    H228327   1.566   4.945  17.742  0.8457 -0.8946  0.4813
 1378TIP3   OH228328   4.819   0.610  18.803  0.3487 -0.5874  0.2639
 1378TIP3    H128329   4.812   0.519  18.774 -2.2806 -0.5284  0.5202
 1378TIP3    H228330   4.733   0.631  18.840  2.4989  0.1950  5.7956
 1379TIP3   OH228331   4.636   6.725  18.843  0.3073  0.2764 -0.8041
 1379TIP3    H128332   4.556   6.770  18.868 -0.4681 -1.4915  0.1392
 1379TIP3    H228333   4.644   6.654  18.907  1.7356 -0.5920 -1.8829
 1380TIP3   OH228334   1.829   2.729  19.022  0.1923 -0.1958  0.4366
 1380TIP3    H128335   1.863   2.665  19.085  1.1978 -1.3261 -1.1792
 1380TIP3    H228336   1.893   2.800  19.023 -0.2671  0.2203  1.3188
 1381TIP3   OH228337   0.172   1.021  18.520  0.1500 -0.2620 -0.4448
 1381TIP3    H128338   0.144   1.095  18.574 -1.5813 -1.8186  0.9122
 1381TIP3    H228339   0.099   0.959  18.523  1.9017 -2.4855 -0.7070
 1382TIP3   OH228340   1.318   3.877  19.106 -0.0374  0.4255 -0.3628
 1382TIP3    H128341   1.379   3.916  19.043  0.7452 -1.1974 -0.6733
 1382TIP3    H228342   1.256   3.828  19.052  0.0966 -0.2399  0.0728
 1383TIP3   OH228343   6.539   7.353  17.844 -0.4499 -0.2243  0.3850
 1383TIP3    H128344   6.550   7.291  17.916 -1.1770 -1.3645 -0.4688
 1383TIP3    H228345   6.477   7.418  17.878  1.4395  0.9578  1.8236
 1384TIP3   OH228346   2.633   1.449  18.870 -0.1821  0.0043 -0.0968
 1384TIP3    H128347   2.563   1.467  18.933 -1.3578 -1.2766 -1.0007
 1384TIP3    H228348   2.667   1.363  18.896  0.0148 -0.0717 -0.5998
 1385TIP3   OH228349   4.429   4.885  17.508 -0.1166 -0.5358  0.3292
 1385TIP3    H128350   4.406   4.808  17.559  1.4125 -0.5413  1.0691
 1385TIP3    H228351   4.522   4.898  17.524 -0.2019  1.1191 -0.2550
 1386TIP3   OH228352   5.333   7.007  18.106 -0.4721 -0.1870  0.0916
 1386TIP3    H128353   5.427   7.006  18.124 -0.6223  1.5012  1.2160
 1386TIP3    H228354   5.296   7.059  18.177 -1.8761  1.7512 -1.9450
 1387TIP3   OH228355   7.480   0.926  18.405 -0.4114  0.1972  0.2942
 1387TIP3    H128356   7.481   1.012  18.446 -0.3814  0.7927 -0.9196
 1387TIP3    H228357   7.452   0.942  18.314 -0.5567 -1.0829  0.0858
 1388TIP3   OH228358   7.101   2.167  17.198 -0.0400 -0.1426  0.3128
 1388TIP3    H128359   7.096   2.239  17.261  2.2995 -0.4590  0.9428
 1388TIP3    H228360   7.107   2.088  17.252 -0.6871 -0.6703 -0.3593
 1389TIP3   OH228361   4.639   3.793  17.349 -0.1508 -0.3413 -0.7696
 1389TIP3    H128362   4.720   3.744  17.337 -0.2658 -0.9124  0.6032
 1389TIP3    H228363   4.624   3.836  17.265  1.8972  0.2826 -0.8769
 1390TIP3   OH228364   7.182   2.722  16.837  0.2292  0.5963  0.3404
 1390TIP3    H128365   7.241   2.797  16.850  1.8698 -1.0970  3.8779
 1390TIP3    H228366   7.096   2.762  16.823  1.3485  3.1201  0.0572
 1391TIP3   OH228367   0.522   6.321  17.970 -0.2040 -0.3720 -0.2317
 1391TIP3    H128368   0.470   6.261  17.916  0.7365 -0.8539 -0.6213
 1391TIP3    H228369   0.527   6.402  17.919  0.1146 -0.5985 -0.5588
 1392TIP3   OH228370   2.866   4.784  18.667 -0.6348  0.2908 -0.4695
 1392TIP3    H128371   2.858   4.837  18.747  0.3861  2.7183 -1.8502
 1392TIP3    H228372   2.812   4.830  18.602  0.5359 -0.1685 -1.8273
 1393TIP3   OH228373   6.625   5.724  19.516 -0.3803 -0.0587 -0.3442
 1393TIP3    H128374   6.651   5.726  19.608 -1.3519  1.7840 -0.0568
 1393TIP3    H228375   6.529   5.722  19.519 -0.5068  2.3238 -1.2675
 1394TIP3   OH228376   7.091   4.871  17.128  0.6096  0.8172  0.1615
 1394TIP3    H128377   7.052   4.954  17.151 -0.0125  0.3007  1.0139
 1394TIP3    H228378   7.185   4.889  17.121  0.7374  1.1995  2.2855
 1395TIP3   OH228379   3.551   6.075  18.555 -0.0993 -0.4432 -0.1625
 1395TIP3    H128380   3.620   6.119  18.604 -0.2214 -0.0620 -0.3316
 1395TIP3    H228381   3.470   6.116  18.586 -0.0845  0.9034 -1.7859
 1396TIP3   OH228382   4.602   4.871  17.202 -0.0424 -0.5129 -0.3320
 1396TIP3    H128383   4.671   4.824  17.156  0.0162 -0.9596  0.2169
 1396TIP3    H228384   4.645   4.913  17.276  0.1136  1.2780 -1.3539
 1397TIP3   OH228385   2.075   2.038  18.874  0.1378 -0.3161 -0.0180
 1397TIP3    H128386   2.137   2.100  18.912 -0.1259 -0.2358  0.2861
 1397TIP3    H228387   2.111   2.017  18.788  0.4806 -0.1153  0.0776
 1398TIP3   OH228388   1.639   4.958  19.387 -0.0840  0.3837 -0.5085
 1398TIP3    H128389   1.725   4.943  19.348 -0.1204 -0.4504 -0.2941
 1398TIP3    H228390   1.599   4.871  19.391  0.0909  0.3581  1.7615
 1399TIP3   OH228391   0.760   1.481  17.268  0.1706  0.2097 -0.0227
 1399TIP3    H128392   0.827   1.510  17.330  0.3687 -1.8496  0.7929
 1399TIP3    H228393   0.810   1.458  17.189  0.3434 -0.5498  0.3017
 1400TIP3   OH228394   5.062   1.576  19.713 -0.5355 -0.7980 -0.3878
 1400TIP3    H128395   5.071   1.486  19.744 -1.8211 -0.2213  1.9104
 1400TIP3    H228396   5.142   1.593  19.664  1.5120 -2.0157  2.2856
 1401TIP3   OH228397   3.219   6.076  18.540  0.0187 -0.1934  0.3910
 1401TIP3    H128398   3.163   6.098  18.466  0.3712 -1.0643 -0.1482
 1401TIP3    H228399   3.206   5.982  18.553 -0.0222 -0.0628  1.4301
 1402TIP3   OH228400   6.088   6.397  19.133  0.4170  0.0956  0.7504
 1402TIP3    H128401   6.156   6.464  19.123 -1.1812  2.2134  2.9986
 1402TIP3    H228402   6.137   6.315  19.143  2.4917  1.0734 -0.6303
 1403TIP3   OH228403   2.609   5.535  17.990 -0.3838 -0.6868 -0.1907
 1403TIP3    H128404   2.660   5.616  18.002  0.5130 -1.1519 -0.7927
 1403TIP3    H228405   2.550   5.555  17.918  1.1633 -1.1645 -1.6478
 1404TIP3   OH228406   4.788   3.307  19.592  0.4575 -0.2857 -0.1244
 1404TIP3    H128407   4.747   3.364  19.657 -0.5988  0.3214 -1.2754
 1404TIP3    H228408   4.873   3.347  19.574 -0.4953  1.3197 -1.3384
 1405TIP3   OH228409   0.210   5.224  18.040  0.1730  0.5130  0.4249
 1405TIP3    H128410   0.203   5.312  18.001 -0.5593  0.3785  0.2247
 1405TIP3    H228411   0.290   5.188  18.005  0.4320  1.0686  0.4308
 1406TIP3   OH228412   4.509   1.460  19.335  0.0893 -0.1875 -0.3099
 1406TIP3    H128413   4.424   1.435  19.371  0.4320  1.5684  1.9684
 1406TIP3    H228414   4.488   1.507  19.254 -1.1425  0.4546  0.3605
 1407TIP3   OH228415   3.620   5.206  18.489  0.0297 -0.0966 -0.3637
 1407TIP3    H128416   3.529   5.232  18.502  0.3821  0.2853  1.6428
 1407TIP3    H228417   3.665   5.234  18.569  1.4798 -2.2294 -0.3503
 1408TIP3   OH228418   1.870   2.268  19.053 -0.3028  0.3564  0.1591
 1408TIP3    H128419   1.955   2.306  19.031  0.1492  0.0177  1.2595
 1408TIP3    H228420   1.882   2.231  19.140 -1.2305 -0.7790 -0.1715
 1409TIP3   OH228421   0.965   3.888  17.395  0.8360 -0.1537 -0.0933
 1409TIP3    H128422   0.995   3.965  17.443  2.1598 -0.0466 -1.0209
 1409TIP3    H228423   0.978   3.911  17.303 -2.5632  0.0248 -0.6352
 1410TIP3   OH228424   1.317   1.771  17.815 -0.3737  0.2654 -0.4705
 1410TIP3    H128425   1.229   1.747  17.843 -0.0921 -3.3947 -2.0664
 1410TIP3    H228426   1.372   1.754  17.892 -0.7576 -0.1531 -0.2812
 1411TIP3   OH228427   6.051   1.909  17.345  0.1354 -0.4803 -0.1801
 1411TIP3    H128428   5.994   1.893  17.421  0.8122 -0.5088  0.3275
 1411TIP3    H228429   5.992   1.902  17.270 -1.0421  1.7852  0.4384
 1412TIP3   OH228430   7.020   6.352  18.615  0.4670  0.1604 -0.0918
 1412TIP3    H128431   7.039   6.446  18.606  0.1682  0.2314  0.0020
 1412TIP3    H228432   6.974   6.329  18.535  1.0179 -0.0326 -0.3588
 1413TIP3   OH228433   3.322   7.252  18.806 -0.2820 -0.2986 -0.3314
 1413TIP3    H128434   3.389   7.244  18.738  1.2403  0.0717  1.0634
 1413TIP3    H228435   3.275   7.169  18.804 -0.6942 -0.0621 -2.2321
 1414TIP3   OH228436   7.646   7.110  19.147  0.0138 -0.7170 -0.4845
 1414TIP3    H128437   7.700   7.170  19.095 -0.7454  0.0984 -0.3638
 1414TIP3    H228438   7.699   7.090  19.224 -0.3496  1.1833  0.3250
 1415TIP3   OH228439   7.336   2.903  18.055  0.3083  0.4789 -0.4933
 1415TIP3    H128440   7.407   2.941  18.003  1.2717 -1.5577 -0.7826
 1415TIP3    H228441   7.268   2.882  17.990 -0.7100  2.5991 -0.1929
 1416TIP3   OH228442   7.451   0.598  17.993 -0.7305  0.0914  0.2148
 1416TIP3    H128443   7.441   0.692  17.973 -4.1505  0.1104  1.3654
 1416TIP3    H228444   7.469   0.596  18.087 -1.1687 -0.4100  0.2888
 1417TIP3   OH228445   6.889   7.624  18.089 -0.2119  0.0678 -0.0149
 1417TIP3    H128446   6.983   7.611  18.103 -0.2277 -0.1237 -0.0801
 1417TIP3    H228447   6.874   7.716  18.110  0.1493  0.3279 -0.8516
 1418TIP3   OH228448   3.030   0.264  18.810  0.0572 -0.0680 -0.1933
 1418TIP3    H128449   3.097   0.318  18.852  0.3435  0.0354 -0.7734
 1418TIP3    H228450   2.947   0.309  18.828  0.1559 -0.1244  0.4115
 1419TIP3   OH228451   2.667   7.672  19.547 -0.0442  0.1009 -0.6187
 1419TIP3    H128452   2.671   7.728  19.470  0.1076  0.6937 -0.1878
 1419TIP3    H228453   2.595   7.611  19.529  1.5160 -1.3909 -2.2889
 1420TIP3   OH228454   3.009   6.882  19.297  0.2674  0.1782  0.3299
 1420TIP3    H128455   3.012   6.804  19.352 -1.1057  0.5807  1.0351
 1420TIP3    H228456   3.100   6.908  19.286  0.7254 -1.3290  0.3430
 1421TIP3   OH228457   4.068   3.886  16.758 -0.4214 -0.0712 -0.4749
 1421TIP3    H128458   4.101   3.953  16.818 -0.6714 -0.0763 -0.3321
 1421TIP3    H228459   4.121   3.809  16.778 -1.8670 -0.6942  1.1852
 1422TIP3   OH228460   4.231   7.352  19.016 -0.5462 -0.0799 -0.2172
 1422TIP3    H128461   4.220   7.300  19.095 -0.7516  2.5420  1.6198
 1422TIP3    H228462   4.239   7.442  19.048 -0.7252  1.1055 -3.2047
 1423TIP3   OH228463   4.088   0.415  17.161  0.8954  0.7637  0.3683
 1423TIP3    H128464   4.029   0.356  17.115  0.4507  1.5995 -0.1508
 1423TIP3    H228465   4.138   0.458  17.091  0.7622  1.4689  0.7035
 1424TIP3   OH228466   2.360   3.598  19.455  0.7033 -0.3035  0.0307
 1424TIP3    H128467   2.305   3.662  19.500  0.6942 -1.3851  1.6656
 1424TIP3    H228468   2.301   3.555  19.393  0.5030  0.6379 -0.4578
 1425TIP3   OH228469   6.923   3.410  17.663 -0.1133  0.4837 -0.2385
 1425TIP3    H128470   6.962   3.470  17.600  0.5831 -1.8370 -2.1827
 1425TIP3    H228471   6.998   3.377  17.714  0.0134 -0.9864 -1.2960
 1426TIP3   OH228472   5.560   3.331  17.449  0.3817  0.0386 -0.0815
 1426TIP3    H128473   5.551   3.419  17.414  0.4094  0.2250  0.3752
 1426TIP3    H228474   5.652   3.325  17.475 -0.0208  0.5371  1.6102
 1427TIP3   OH228475   5.872   1.478  16.942  0.3786  0.1427  0.2609
 1427TIP3    H128476   5.830   1.479  16.855  0.0304  0.8486  0.4243
 1427TIP3    H228477   5.889   1.386  16.959  2.1954  0.1063 -1.3802
 1428TIP3   OH228478   1.347   3.834  17.478  0.1337  0.3491 -0.3546
 1428TIP3    H128479   1.288   3.761  17.455 -0.7940  1.4235 -1.5563
 1428TIP3    H228480   1.435   3.798  17.468 -0.3111 -0.7660 -0.3722
 1429TIP3   OH228481   6.217   4.388  18.139 -0.3693  0.0945 -0.6151
 1429TIP3    H128482   6.127   4.399  18.109 -0.4392  0.7518 -0.1955
 1429TIP3    H228483   6.270   4.423  18.068 -0.4356 -0.3588 -0.8944
 1430TIP3   OH228484   4.789   4.911  19.209 -0.1057 -0.5382 -0.0877
 1430TIP3    H128485   4.863   4.964  19.182  0.7758 -1.0108  1.2809
 1430TIP3    H228486   4.809   4.823  19.177 -0.4007 -0.5388 -0.2765
 1431TIP3   OH228487   0.284   3.365  16.704 -0.3402 -0.2861 -0.3328
 1431TIP3    H128488   0.258   3.442  16.755 -1.0911  0.1491 -1.3396
 1431TIP3    H228489   0.363   3.392  16.658  0.6586 -0.8616  0.9863
 1432TIP3   OH228490   0.748   0.434  18.912  0.5978 -0.0766  0.3869
 1432TIP3    H128491   0.784   0.391  18.835 -0.1370 -1.7440  0.9409
 1432TIP3    H228492   0.813   0.419  18.981  0.6785  0.3518  0.4095
 1433TIP3   OH228493   0.819   3.099  19.285 -0.4136 -0.2337  0.1585
 1433TIP3    H128494   0.881   3.093  19.213  0.2412 -2.0838  0.8054
 1433TIP3    H228495   0.764   3.021  19.276 -1.4801  0.4263  0.6541
 1434TIP3   OH228496   4.304   1.709  18.341  0.3164  0.0978  0.0111
 1434TIP3    H128497   4.278   1.630  18.389 -0.1736 -0.1085 -0.5790
 1434TIP3    H228498   4.268   1.697  18.254  1.0428  0.5515 -0.3631
 1435TIP3   OH228499   6.139   2.523  17.910 -0.1127  0.2994 -0.4840
 1435TIP3    H128500   6.109   2.433  17.920  2.6374 -0.6906 -0.4102
 1435TIP3    H228501   6.222   2.527  17.959  0.9049  2.2604 -2.2035
 1436TIP3   OH228502   4.895   4.147  17.713 -0.6051 -0.0237  0.3372
 1436TIP3    H128503   4.853   4.179  17.792  0.2916  0.1237  0.7640
 1436TIP3    H228504   4.884   4.217  17.649 -2.1837 -0.5306  0.0029
 1437TIP3   OH228505   0.969   3.417  17.884  0.4535  0.0412  0.9303
 1437TIP3    H128506   0.940   3.326  17.893  2.0206 -0.5008  0.7723
 1437TIP3    H228507   0.888   3.468  17.889 -0.3902 -1.3004  1.7394
 1438TIP3   OH228508   3.769   0.336  17.312 -0.2611  0.3219  0.3046
 1438TIP3    H128509   3.709   0.284  17.365 -0.6665  2.3103  1.8927
 1438TIP3    H228510   3.731   0.334  17.224 -2.0283  0.5505  1.0233
 1439TIP3   OH228511   0.158   0.747  17.518  0.1454 -0.5731  0.4099
 1439TIP3    H128512   0.078   0.735  17.569  0.7697  0.1351  1.5983
 1439TIP3    H228513   0.226   0.703  17.570  1.1689  1.8384  1.2616
 1440TIP3   OH228514   5.779   5.867  16.669 -0.0454 -0.3716 -0.0248
 1440TIP3    H128515   5.698   5.916  16.657  0.3344 -0.4619 -4.4312
 1440TIP3    H228516   5.847   5.921  16.629  2.0285 -0.7133  2.7192
 1441TIP3   OH228517   6.710   0.982  18.291 -0.4719  0.9011  0.0141
 1441TIP3    H128518   6.789   0.997  18.238  1.6442 -1.6604  2.1748
 1441TIP3    H228519   6.727   1.028  18.373 -1.1405  0.1844  0.5698
 1442TIP3   OH228520   2.223   4.413  18.088  0.1746  0.3710  0.2024
 1442TIP3    H128521   2.261   4.477  18.148  0.7149  0.2663 -0.0134
 1442TIP3    H228522   2.189   4.344  18.145  1.7118 -0.2912  0.3907
 1443TIP3   OH228523   4.032   7.026  17.472  0.4954 -0.2207  0.3866
 1443TIP3    H128524   4.073   6.987  17.550  0.0208 -0.2791  0.6083
 1443TIP3    H228525   3.973   7.093  17.507  1.0213  0.4512  0.0242
 1444TIP3   OH228526   5.258   2.061  19.115 -0.2210 -0.1057 -0.1325
 1444TIP3    H128527   5.194   2.044  19.184  0.5352 -1.8666  0.1896
 1444TIP3    H228528   5.333   2.099  19.161  0.3161 -1.3581  0.0712
 1445TIP3   OH228529   1.934   1.034  18.853  0.3077  0.3780 -0.4385
 1445TIP3    H128530   1.990   1.050  18.777  1.3506 -1.2465 -0.0492
 1445TIP3    H228531   1.878   0.961  18.826  0.6000 -0.1254  0.3165
 1446TIP3   OH228532   1.207   7.129  19.143 -0.0687  0.1348 -0.3613
 1446TIP3    H128533   1.156   7.155  19.066  1.3424  0.5505 -1.1914
 1446TIP3    H228534   1.295   7.163  19.126  0.7212 -1.3262  0.6230
 1447TIP3   OH228535   5.716   3.927  18.738  0.7061 -0.2876 -0.3494
 1447TIP3    H128536   5.800   3.948  18.698  0.7020  0.2380 -0.0853
 1447TIP3    H228537   5.701   3.996  18.801  0.3872 -0.7462  0.0858
 1448TIP3   OH228538   5.545   0.374  17.531  0.2821  0.0739 -0.2118
 1448TIP3    H128539   5.475   0.341  17.475 -0.3690  1.2152 -0.0990
 1448TIP3    H228540   5.624   0.333  17.497 -0.3837 -0.9786 -0.5545
 1449TIP3   OH228541   5.017   4.471  18.619 -0.0702 -0.1757  0.1734
 1449TIP3    H128542   5.021   4.554  18.666 -1.5470 -0.0214  0.0716
 1449TIP3    H228543   4.972   4.493  18.537 -0.5101 -1.0784  0.1693
 1450TIP3   OH228544   2.258   2.724  18.195  0.3186  0.6035 -0.8875
 1450TIP3    H128545   2.244   2.735  18.289 -1.5470  0.1855 -1.0726
 1450TIP3    H228546   2.312   2.799  18.170 -0.5083  1.6291  0.2561
 1451TIP3   OH228547   6.787   3.092  19.204  0.2062 -0.1322  0.4803
 1451TIP3    H128548   6.728   3.042  19.260  0.0229  0.2996  0.6801
 1451TIP3    H228549   6.734   3.166  19.174  0.3251 -0.3158 -0.2019
 1452TIP3   OH228550   1.065   4.124  18.373  0.4849  0.0961  0.4159
 1452TIP3    H128551   1.034   4.205  18.333  0.0669 -0.3721 -0.2269
 1452TIP3    H228552   1.036   4.055  18.314  0.9735 -0.5170  0.8731
 1453TIP3   OH228553   6.434   0.497  16.946 -0.2156  0.0181 -0.1542
 1453TIP3    H128554   6.414   0.404  16.951  1.0345 -0.2267  1.1067
 1453TIP3    H228555   6.393   0.535  17.023 -1.2143  0.6425 -0.9681
 1454TIP3   OH228556   1.805   3.772  16.986 -0.1723 -0.1925  0.0060
 1454TIP3    H128557   1.886   3.821  17.001 -1.2310  1.6338  0.0890
 1454TIP3    H228558   1.805   3.705  17.054  1.7016 -0.8659 -0.5857
 1455TIP3   OH228559   7.659   2.804  18.404  0.0147  0.5599 -0.3273
 1455TIP3    H128560   7.613   2.730  18.444  1.1105 -0.5984 -1.1525
 1455TIP3    H228561   7.658   2.871  18.472 -1.5438  0.0465  0.2177
 1456TIP3   OH228562   5.409   5.984  17.875  0.1494 -0.2634 -0.5060
 1456TIP3    H128563   5.434   6.067  17.917  0.1628  0.5165 -1.9826
 1456TIP3    H228564   5.322   5.965  17.909  0.7490 -0.4671  1.0096
 1457TIP3   OH228565   0.202   3.288  18.174 -0.6286 -0.0967 -0.1380
 1457TIP3    H128566   0.199   3.199  18.137  0.1090  0.1976 -0.9487
 1457TIP3    H228567   0.281   3.327  18.135  0.2405  0.2179  1.7987
 1458TIP3   OH228568   7.238   0.718  18.995  0.2551  0.0768  0.0220
 1458TIP3    H128569   7.281   0.636  18.972 -0.1918 -0.1473 -0.0103
 1458TIP3    H228570   7.204   0.705  19.083 -1.5408 -0.4794 -0.7244
 1459TIP3   OH228571   5.958   4.293  17.044  0.3442 -0.4043  0.1272
 1459TIP3    H128572   5.956   4.249  16.959  1.6283 -0.5621  0.1586
 1459TIP3    H228573   5.897   4.366  17.034 -0.6118 -1.2458 -0.4443
 1460TIP3   OH228574   5.776   5.285  17.503  0.4463 -0.1384  0.0137
 1460TIP3    H128575   5.727   5.236  17.437  2.9206 -1.5073 -0.9356
 1460TIP3    H228576   5.866   5.252  17.496  1.4756  1.9832  1.8791
 1461TIP3   OH228577   6.595   2.370  19.595  0.1780  0.9119  0.0733
 1461TIP3    H128578   6.644   2.414  19.664  2.2147  0.0822 -0.7558
 1461TIP3    H228579   6.659   2.357  19.525 -0.7898 -1.6864 -0.4477
 1462TIP3   OH228580   2.597   5.917  17.468  0.1654 -0.4679  0.5257
 1462TIP3    H128581   2.598   5.875  17.554  0.5486 -1.5421  0.0252
 1462TIP3    H228582   2.515   5.887  17.428  0.0524 -0.0776  0.4646
 1463TIP3   OH228583   5.961   6.286  17.502 -0.7549  0.3432  0.1303
 1463TIP3    H128584   5.954   6.344  17.578  0.6401 -1.0856  1.4383
 1463TIP3    H228585   5.971   6.198  17.540  1.0306 -0.3137 -1.6657
 1464TIP3   OH228586   3.821   2.953  19.082 -0.0085 -0.3940  0.2676
 1464TIP3    H128587   3.776   2.921  19.160  0.6444  1.1169  1.3230
 1464TIP3    H228588   3.829   2.877  19.025 -2.4546 -1.0569  0.7088
 1465TIP3   OH228589   5.874   1.787  18.009  0.2335 -0.4612 -0.5791
 1465TIP3    H128590   5.886   1.859  17.946  1.2181  0.1544  0.2982
 1465TIP3    H228591   5.779   1.786  18.024 -0.0615 -0.7369 -2.1811
 1466TIP3   OH228592   5.877   0.061  18.089 -0.1930 -0.6728  0.0446
 1466TIP3    H128593   5.856   0.150  18.060  0.8261 -0.6659 -0.7271
 1466TIP3    H228594   5.972   0.054  18.081 -0.2976 -1.9948 -0.4119
 1467TIP3   OH228595   3.029   3.796  17.729  0.2414  0.2313  0.1093
 1467TIP3    H128596   3.010   3.730  17.795 -1.8188 -0.0093 -0.6484
 1467TIP3    H228597   3.061   3.871  17.778 -0.7574 -0.1226  1.3525
 1468TIP3   OH228598   6.609   1.329  17.304 -0.0796 -0.7289 -0.1620
 1468TIP3    H128599   6.580   1.242  17.277 -1.1720 -0.9737  1.5870
 1468TIP3    H228600   6.699   1.336  17.272 -0.8105 -1.4525 -2.5517
 1469TIP3   OH228601   0.809   4.415  18.378 -0.0878 -0.2511 -0.2725
 1469TIP3    H128602   0.768   4.415  18.464  0.0577 -2.3777 -0.1637
 1469TIP3    H228603   0.903   4.405  18.395  0.0327  0.1681 -0.6622
 1470TIP3   OH228604   5.079   7.039  19.134 -0.7339 -0.1818  0.1940
 1470TIP3    H128605   5.025   7.073  19.063  1.4335  0.1073 -1.4235
 1470TIP3    H228606   5.116   7.117  19.176  0.4969 -0.3878 -0.4585
 1471TIP3   OH228607   6.093   1.621  19.103  0.4529 -0.0220 -0.2225
 1471TIP3    H128608   6.046   1.679  19.044 -1.2349 -1.2633 -0.2003
 1471TIP3    H228609   6.080   1.660  19.190  3.2066  1.9762 -0.6039
 1472TIP3   OH228610   3.061   0.349  18.537  0.0020  0.0554 -0.6850
 1472TIP3    H128611   3.023   0.300  18.610  0.0060 -0.0932 -0.7820
 1472TIP3    H228612   2.986   0.393  18.496  0.0050  0.1683 -0.5668
 1473TIP3   OH228613   4.784   6.207  19.047 -0.1301  0.4470 -0.1184
 1473TIP3    H128614   4.762   6.123  19.087 -0.7846  1.1184  0.9849
 1473TIP3    H228615   4.708   6.229  18.993 -0.4875  0.8877  0.5502
 1474TIP3   OH228616   4.492   3.860  19.354 -0.0969  0.6919  0.8435
 1474TIP3    H128617   4.549   3.830  19.283 -1.2183  1.3950 -0.3974
 1474TIP3    H228618   4.532   3.942  19.383 -0.0952  0.8295  0.4554
 1475TIP3   OH228619   2.724   6.023  17.079 -0.6077 -0.6423 -0.3574
 1475TIP3    H128620   2.638   5.983  17.084 -0.9837 -0.1488 -2.2073
 1475TIP3    H228621   2.739   6.038  16.986  1.1051  0.0985 -0.0135
 1476TIP3   OH228622   5.394   4.146  19.651 -0.1119 -0.6855 -0.3983
 1476TIP3    H128623   5.401   4.178  19.561  0.0018  0.5835  0.0418
 1476TIP3    H228624   5.300   4.142  19.667 -0.1646  1.5615  0.2267
 1477TIP3   OH228625   3.775   4.800  19.113 -0.3162  0.1219  0.2574
 1477TIP3    H128626   3.826   4.720  19.127 -0.1963  0.2758  0.6944
 1477TIP3    H228627   3.801   4.830  19.026 -0.0635 -0.0939  0.2590
 1478TIP3   OH228628   1.081   0.234  19.248  0.1043  0.3736 -0.1093
 1478TIP3    H128629   1.126   0.152  19.268 -0.5129 -0.0615 -0.4911
 1478TIP3    H228630   1.034   0.217  19.166 -1.1220  0.6718  0.5110
 1479TIP3   OH228631   2.847   4.934  18.906  0.1107  0.6462 -0.3394
 1479TIP3    H128632   2.805   4.858  18.947  2.4968 -0.9693 -0.6945
 1479TIP3    H228633   2.831   5.006  18.967 -1.2267 -0.3770  0.5843
 1480TIP3   OH228634   0.396   4.282  18.979 -0.6857 -0.5295  0.0531
 1480TIP3    H128635   0.430   4.255  18.894  1.8525  1.9466  0.1189
 1480TIP3    H228636   0.397   4.202  19.032  1.4953 -1.3898 -1.1642
 1481TIP3   OH228637   4.761   2.953  18.792  0.1362  0.2509  0.3917
 1481TIP3    H128638   4.824   2.900  18.743 -0.9147 -1.7289  1.1079
 1481TIP3    H228639   4.698   2.982  18.727  0.1501 -0.2314  0.1614
 1482TIP3   OH228640   2.595   2.364  17.381 -0.6146 -0.3474  0.5967
 1482TIP3    H128641   2.608   2.280  17.425 -1.1450 -0.3784  0.6965
 1482TIP3    H228642   2.534   2.344  17.310  0.3682 -0.3338 -0.2752
 1483TIP3   OH228643   5.576   7.610  19.575 -0.4069  0.1008  0.3643
 1483TIP3    H128644   5.509   7.577  19.635  0.3842 -0.4718  0.9436
 1483TIP3    H228645   5.607   7.533  19.528 -0.0838  0.3489  0.1603
 1484TIP3   OH228646   3.715   1.903  19.043  0.3247 -0.8241 -0.3642
 1484TIP3    H128647   3.649   1.872  19.105 -0.4241  1.1668 -0.0983
 1484TIP3    H228648   3.688   1.865  18.959  1.0943 -3.1751  0.3611
 1485TIP3   OH228649   2.337   1.030  19.151 -0.8564  0.0305  0.3438
 1485TIP3    H128650   2.266   1.019  19.087 -0.1632 -0.0866 -0.4185
 1485TIP3    H228651   2.308   0.979  19.227 -1.1823 -0.7875 -0.3078
 1486TIP3   OH228652   6.356   1.381  18.812  0.0996  0.1269  0.5415
 1486TIP3    H128653   6.385   1.439  18.742 -0.4455  1.0238  1.0414
 1486TIP3    H228654   6.355   1.437  18.890  0.0454 -0.6845  1.1322
 1487TIP3   OH228655   6.234   6.778  18.920 -0.6197  0.0872 -0.1282
 1487TIP3    H128656   6.258   6.870  18.936  0.8800 -0.0393 -1.3779
 1487TIP3    H228657   6.244   6.735  19.005  0.8553  0.6561  0.0182
 1488TIP3   OH228658   1.109   0.985  18.383  0.0749  0.1397  0.2694
 1488TIP3    H128659   1.198   0.991  18.420  0.7518  0.0335 -1.2790
 1488TIP3    H228660   1.104   1.058  18.322 -0.8535  0.0254  0.2083
 1489TIP3   OH228661   3.336   7.526  18.802 -0.1876  0.5240 -0.0346
 1489TIP3    H128662   3.336   7.549  18.709 -2.0404  0.7355 -0.0186
 1489TIP3    H228663   3.353   7.432  18.804 -0.6292  0.4262 -0.6257
 1490TIP3   OH228664   6.627   4.965  19.246  0.3365  0.1107  0.2795
 1490TIP3    H128665   6.650   4.919  19.165  2.4211 -0.5230  1.1790
 1490TIP3    H228666   6.634   5.058  19.224  1.4392 -0.0618 -0.1354
 1491TIP3   OH228667   5.435   7.499  18.181  0.1691 -0.8293 -0.5658
 1491TIP3    H128668   5.468   7.564  18.243  2.0317 -0.5340 -1.7630
 1491TIP3    H228669   5.373   7.546  18.126 -0.7197 -0.8416  0.4046
 1492TIP3   OH228670   5.236   1.330  18.571  0.1136  0.0439 -0.4650
 1492TIP3    H128671   5.260   1.275  18.646 -0.6914 -0.9118 -0.8730
 1492TIP3    H228672   5.203   1.268  18.506 -0.3751  0.9738 -1.1325
 1493TIP3   OH228673   7.363   6.039  19.335  0.0411 -0.2127  0.1050
 1493TIP3    H128674   7.406   5.980  19.397  1.0249  1.3709  1.0199
 1493TIP3    H228675   7.403   6.019  19.251  2.3706  0.8920  0.8577
 1494TIP3   OH228676   1.167   7.437  19.110  0.0730 -0.2240  0.1497
 1494TIP3    H128677   1.156   7.350  19.148  1.4907  0.0980  1.4110
 1494TIP3    H228678   1.085   7.454  19.064  0.0392 -2.4934 -0.7130
 1495TIP3   OH228679   3.559   0.203  18.685 -0.8344 -0.1122 -0.7405
 1495TIP3    H128680   3.505   0.268  18.640  1.6332  3.0857  0.5315
 1495TIP3    H228681   3.528   0.205  18.776 -1.0098 -1.1075 -0.7668
 1496TIP3   OH228682   6.509   5.778  18.970  0.2443  0.8878  0.3527
 1496TIP3    H128683   6.528   5.777  18.876  0.7977  1.3355  0.4512
 1496TIP3    H228684   6.470   5.693  18.988  1.0212  0.4182 -0.1100
 1497TIP3   OH228685   0.637   1.743  19.408  0.3363  0.3206 -0.1541
 1497TIP3    H128686   0.619   1.830  19.373  0.3891  0.7505  0.8349
 1497TIP3    H228687   0.564   1.726  19.468  0.7525  0.0380  0.2783
 1498TIP3   OH228688   7.444   0.498  16.802 -0.0152 -0.4967  0.0695
 1498TIP3    H128689   7.388   0.421  16.812 -0.9171  0.1977  0.5202
 1498TIP3    H228690   7.533   0.463  16.798 -0.2907 -1.4900  1.6529
 1499TIP3   OH228691   6.691   2.679  18.316 -0.4613  0.1016 -0.0962
 1499TIP3    H128692   6.630   2.632  18.372 -1.7121  1.5388 -0.1820
 1499TIP3    H228693   6.639   2.704  18.240  0.3614  0.9123 -0.4157
 1500TIP3   OH228694   2.134   3.046  18.763 -0.5851  0.5954  0.2684
 1500TIP3    H128695   2.156   3.087  18.679  2.8013  1.9666  1.6495
 1500TIP3    H228696   2.072   3.106  18.804 -0.0307  1.4158 -0.0739
 1501TIP3   OH228697   6.918   1.589  18.000  0.3468 -0.3081  0.2193
 1501TIP3    H128698   6.933   1.611  18.092 -1.8067  0.8915  0.3471
 1501TIP3    H228699   6.876   1.667  17.964  1.5676 -0.5778 -1.9420
 1502TIP3   OH228700   5.898   1.176  19.206  0.3152  0.3966  0.0099
 1502TIP3    H128701   5.815   1.155  19.163 -0.4970  0.6493  1.3931
 1502TIP3    H228702   5.924   1.259  19.168  2.5497 -1.8831 -4.0676
 1503TIP3   OH228703   7.434   6.763  18.459  0.3120 -0.1932  0.1905
 1503TIP3    H128704   7.393   6.822  18.522 -0.4596  0.5728 -0.9677
 1503TIP3    H228705   7.375   6.687  18.455  1.5453 -1.3122  2.0198
 1504TIP3   OH228706   2.260   4.668  16.783  0.8454  0.4702 -0.1227
 1504TIP3    H128707   2.207   4.588  16.778  0.6701  0.5655  0.1748
 1504TIP3    H228708   2.222   4.726  16.716 -1.4547  1.7131  2.0815
 1505TIP3   OH228709   6.686   5.990  19.076 -0.3583  0.3405 -0.1554
 1505TIP3    H128710   6.614   5.932  19.054  0.9516 -0.6983 -1.9393
 1505TIP3    H228711   6.711   5.966  19.165 -0.9325 -0.6452 -0.2553
 1506TIP3   OH228712   5.092   0.905  17.522  0.2332  0.5268  0.5853
 1506TIP3    H128713   5.154   0.859  17.465 -0.8099  1.4863 -1.4348
 1506TIP3    H228714   5.145   0.934  17.597  1.5275 -1.2921  0.4500
 1507TIP3   OH228715   1.954   7.252  19.283 -0.3478 -0.8961  0.4231
 1507TIP3    H128716   2.044   7.220  19.276  0.3313  0.3174  2.7206
 1507TIP3    H228717   1.962   7.347  19.283 -1.7984 -0.7390 -0.5802
 1508TIP3   OH228718   4.895   7.013  18.297  0.0901 -0.3215  0.5515
 1508TIP3    H128719   4.967   7.030  18.358 -0.0968 -0.9966  0.9735
 1508TIP3    H228720   4.888   6.918  18.294  0.2734 -0.3152 -0.7493
 1509TIP3   OH228721   3.216   4.655  17.666  0.1146  0.0949  0.3991
 1509TIP3    H128722   3.157   4.659  17.590 -0.8211 -0.8573  1.0448
 1509TIP3    H228723   3.260   4.570  17.657 -0.2488 -0.1731  1.0814
 1510TIP3   OH228724   0.046   0.486  19.095 -0.0700  0.0067 -0.5151
 1510TIP3    H128725   0.116   0.551  19.105  0.9796 -1.0204 -0.9020
 1510TIP3    H228726  -0.035   0.537  19.096  0.6876  1.2357 -0.1051
 1511TIP3   OH228727   0.592   3.011  17.634 -0.8517  0.3732 -0.4336
 1511TIP3    H128728   0.661   3.055  17.684  0.6161 -1.3968 -0.7576
 1511TIP3    H228729   0.540   2.964  17.699  1.4548 -2.4744 -0.4223
 1512TIP3   OH228730   0.989   1.648  17.333  0.6688 -0.0370  0.1152
 1512TIP3    H128731   1.047   1.721  17.353  0.6466  0.6035 -1.8971
 1512TIP3    H228732   1.044   1.586  17.286 -0.1671  0.4604 -1.5879
 1513TIP3   OH228733   6.930   2.929  17.532  0.5818  0.2287 -0.3592
 1513TIP3    H128734   6.980   2.863  17.579 -2.3099 -2.4547 -0.6724
 1513TIP3    H228735   6.976   2.941  17.449  2.5996  0.6963  0.7699
 1514TIP3   OH228736   6.046   6.296  16.862  0.1872  0.2022  0.0699
 1514TIP3    H128737   6.065   6.214  16.818  1.2986  0.5534 -0.1313
 1514TIP3    H228738   5.959   6.321  16.831  0.8340  0.3109 -1.7476
 1515TIP3   OH228739   2.290   0.155  19.149 -0.6546 -0.3799  0.4340
 1515TIP3    H128740   2.340   0.083  19.187  0.6195  0.6659  0.8087
 1515TIP3    H228741   2.347   0.231  19.159 -1.5848  0.5092 -0.7883
 1516TIP3   OH228742   7.039   0.456  16.840 -0.5108  0.0124 -0.0931
 1516TIP3    H128743   6.976   0.388  16.865 -0.7559  0.6944  1.1974
 1516TIP3    H228744   7.107   0.408  16.793  0.0770 -1.3930  2.0262
 1517TIP3   OH228745   0.307   1.763  19.037 -0.1510  0.5595  0.3928
 1517TIP3    H128746   0.239   1.707  19.073  0.1864  1.0007  1.7457
 1517TIP3    H228747   0.320   1.831  19.102  1.4581  0.5918  0.0757
 1518TIP3   OH228748   1.440   2.917  17.092 -0.0286  0.1802  0.0499
 1518TIP3    H128749   1.356   2.962  17.079 -0.6826 -1.3922 -1.7107
 1518TIP3    H228750   1.416   2.825  17.101  1.4251 -0.1067  1.1686
 1519TIP3   OH228751   6.711   3.054  17.072  0.4776  0.1503  0.0445
 1519TIP3    H128752   6.656   2.989  17.029 -0.5425 -0.5255  2.2285
 1519TIP3    H228753   6.663   3.136  17.065 -0.6981 -0.3593  1.5937
 1520TIP3   OH228754   7.644   7.406  19.067  0.1396 -0.4333 -0.0760
 1520TIP3    H128755   7.685   7.471  19.123  0.6069 -1.2429  0.5468
 1520TIP3    H228756   7.672   7.428  18.978  0.2009  0.2697  0.1155
 1521TIP3   OH228757   7.446   1.008  18.140  0.0620  0.4474  0.4288
 1521TIP3    H128758   7.523   0.975  18.093 -1.9474 -0.3876 -2.5572
 1521TIP3    H228759   7.463   1.102  18.149  1.7102  0.1822  0.4863
 1522TIP3   OH228760   2.191   0.841  19.322  0.2977 -0.1254  0.5956
 1522TIP3    H128761   2.188   0.746  19.320 -0.3545 -0.1165 -1.4856
 1522TIP3    H228762   2.161   0.865  19.409 -1.3791 -1.7824  0.5184
 1523TIP3   OH228763   6.491   6.457  18.684 -0.1023 -0.3373  0.5929
 1523TIP3    H128764   6.497   6.472  18.778 -0.2436  1.7198  0.3287
 1523TIP3    H228765   6.576   6.418  18.661 -0.6670 -2.4085  1.7622
 1524TIP3   OH228766   7.199   2.581  19.604  0.0024 -0.4455 -0.2271
 1524TIP3    H128767   7.135   2.514  19.631  2.3691 -2.1352  1.5888
 1524TIP3    H228768   7.195   2.647  19.673  2.3236 -2.1684  1.7627
 1525TIP3   OH228769   0.907   3.847  19.123  0.0485 -0.2127 -0.2091
 1525TIP3    H128770   0.862   3.764  19.138  3.1178 -1.9848  0.0979
 1525TIP3    H228771   0.944   3.869  19.209 -0.4403  1.3375 -0.3716
 1526TIP3   OH228772   6.987   5.820  18.491  0.3723  0.2062  0.3931
 1526TIP3    H128773   7.048   5.825  18.418 -0.1933  1.3462 -0.0167
 1526TIP3    H228774   6.910   5.776  18.455 -0.2619  1.5622  0.0177
 1527TIP3   OH228775   6.891   6.011  18.272  0.2474 -0.0009  0.1378
 1527TIP3    H128776   6.937   6.091  18.297  0.7901 -0.3280  0.1883
 1527TIP3    H228777   6.959   5.944  18.268 -0.0634 -0.2782 -0.7464
 1528TIP3   OH228778   0.880   1.489  18.720  0.3134 -0.2094  0.3613
 1528TIP3    H128779   0.907   1.398  18.733  0.3087 -0.0443  1.7297
 1528TIP3    H228780   0.842   1.515  18.804 -2.0254  0.2872 -0.7639
 1529TIP3   OH228781   5.531   3.146  19.311  0.6807 -0.1764  0.0339
 1529TIP3    H128782   5.578   3.082  19.259  1.1192  1.2104 -1.3403
 1529TIP3    H228783   5.460   3.176  19.255  1.9957  2.3800 -0.4584
 1530TIP3   OH228784   3.971   5.655  18.954  0.6302  0.1864  1.1158
 1530TIP3    H128785   3.973   5.672  18.860 -1.4374 -1.1373  0.7641
 1530TIP3    H228786   3.957   5.741  18.994 -3.1282  0.3190 -0.1356
 1531TIP3   OH228787   0.833   2.083  18.518 -0.2506  0.1591 -0.0858
 1531TIP3    H128788   0.911   2.139  18.509  0.2655 -0.6085 -0.5031
 1531TIP3    H228789   0.847   2.013  18.455 -1.1437 -0.1576  0.0600
 1532TIP3   OH228790   7.372   0.333  17.905  0.1374  0.2003  0.2830
 1532TIP3    H128791   7.392   0.427  17.907  1.1417  0.0563 -1.1717
 1532TIP3    H228792   7.393   0.303  17.993  0.7390  1.1739  0.4969
 1533TIP3   OH228793   6.159   0.595  18.019 -0.2606 -0.1142 -0.4499
 1533TIP3    H128794   6.100   0.544  17.964 -1.3317  0.2240  0.3637
 1533TIP3    H228795   6.204   0.654  17.957 -0.4774 -0.6428 -1.1235
 1534TIP3   OH228796   3.310   3.943  19.241  0.0830  0.4347 -0.3055
 1534TIP3    H128797   3.280   3.980  19.324 -0.2853 -0.8140  0.1346
 1534TIP3    H228798   3.313   3.849  19.256 -0.7487  0.1071 -1.9471
 1535TIP3   OH228799   2.127   2.844  19.206  0.4334  0.3332 -0.7708
 1535TIP3    H128800   2.222   2.854  19.204  0.3800  1.2551  0.4470
 1535TIP3    H228801   2.113   2.756  19.241  0.8385  0.4396 -0.3369
 1536TIP3   OH228802   4.897   7.384  17.809  0.1819 -0.1367  0.3627
 1536TIP3    H128803   4.909   7.478  17.792 -0.6062 -0.2802 -1.0908
 1536TIP3    H228804   4.852   7.381  17.894  2.8902  0.6493  1.9672
 1537TIP3   OH228805   4.288   5.624  18.598  0.1266 -0.2528  0.2027
 1537TIP3    H128806   4.298   5.673  18.516  1.4582  0.4747  0.7593
 1537TIP3    H228807   4.320   5.536  18.578  2.2765  0.4173  0.3581
 1538TIP3   OH228808   4.459   1.047  19.680 -0.1063 -0.0606  0.0927
 1538TIP3    H128809   4.387   1.040  19.742  0.9700  1.5197  1.6338
 1538TIP3    H228810   4.478   1.141  19.676  1.5334 -0.3847 -0.6539
 1539TIP3   OH228811   7.189   0.968  17.456  0.5496 -0.2765 -0.1249
 1539TIP3    H128812   7.144   1.029  17.397  0.4003 -0.2942 -0.0309
 1539TIP3    H228813   7.145   0.978  17.540  1.5736  0.6626  0.3253
 1540TIP3   OH228814   6.988   4.643  17.255 -0.4525  0.1263  0.4573
 1540TIP3    H128815   6.991   4.733  17.222  0.8852 -0.3792 -0.9411
 1540TIP3    H228816   7.076   4.629  17.290 -0.7941 -0.4949  1.0614
 1541TIP3   OH228817   1.482   2.075  18.817 -0.5820  0.0012  0.2155
 1541TIP3    H128818   1.411   2.014  18.840  0.8616 -1.6929  0.4531
 1541TIP3    H228819   1.552   2.018  18.786 -0.1943  1.8028 -2.4905
 1542TIP3   OH228820   0.181   3.562  17.852  0.3375 -0.2852  0.0584
 1542TIP3    H128821   0.120   3.635  17.842 -1.8170 -2.2221 -2.4661
 1542TIP3    H228822   0.267   3.604  17.860 -0.9588  2.5147  0.6469
 1543TIP3   OH228823   1.737   5.176  17.719 -0.4634  0.0579  0.0206
 1543TIP3    H128824   1.732   5.167  17.814  0.6096  0.8090  0.1699
 1543TIP3    H228825   1.785   5.258  17.705  0.7169 -0.7822 -1.1604
 1544TIP3   OH228826   6.058   7.402  16.590  0.0594 -0.1561 -0.2681
 1544TIP3    H128827   6.134   7.411  16.648  0.8444  0.8525 -1.3988
 1544TIP3    H228828   6.001   7.475  16.613  0.4077  0.2905 -0.7957
 1545TIP3   OH228829   3.270   1.877  18.708 -0.8194  0.1372  0.3862
 1545TIP3    H128830   3.288   1.898  18.799 -0.4245  1.4369  0.0215
 1545TIP3    H228831   3.221   1.952  18.674 -0.2808  0.0349 -0.6708
 1546TIP3   OH228832   0.933   4.654  19.096 -0.6585  0.0350  0.0118
 1546TIP3    H128833   0.906   4.731  19.145 -0.2942 -0.0016  0.2723
 1546TIP3    H228834   1.028   4.656  19.098 -0.6034  0.6512 -1.6757
 1547TIP3   OH228835   5.471   3.898  18.026  0.4467 -0.3988 -0.2559
 1547TIP3    H128836   5.514   3.817  18.054 -1.6557 -1.2168  0.8296
 1547TIP3    H228837   5.476   3.955  18.103 -2.1853 -1.3166  0.7076
 1548TIP3   OH228838   4.063   5.243  17.682 -0.5059 -0.0264 -0.2202
 1548TIP3    H128839   4.145   5.194  17.685 -0.8527 -0.7196 -1.5864
 1548TIP3    H228840   4.017   5.218  17.763 -0.2295 -1.1724 -0.3978
 1549TIP3   OH228841   5.481   6.272  19.422 -0.0321 -0.1493  0.0703
 1549TIP3    H128842   5.435   6.345  19.381  0.0743 -1.1116 -1.9286
 1549TIP3    H228843   5.482   6.204  19.354  0.5851 -1.7104  1.5608
 1550TIP3   OH228844   1.995   6.532  17.311 -0.1953  0.0762  0.3463
 1550TIP3    H128845   2.017   6.610  17.362  3.0404  0.2208 -1.0392
 1550TIP3    H228846   1.915   6.555  17.265 -0.4583  1.7793  1.5429
 1551TIP3   OH228847   6.645   3.347  17.615 -0.7518  0.0928 -0.3152
 1551TIP3    H128848   6.640   3.253  17.629 -2.5671  0.5619  3.4418
 1551TIP3    H228849   6.739   3.366  17.612 -0.2932 -1.6143  1.3023
 1552TIP3   OH228850   3.486   1.908  19.188  0.0161 -0.5213  0.1057
 1552TIP3    H128851   3.538   1.985  19.211 -1.5432  0.5369  0.2451
 1552TIP3    H228852   3.401   1.925  19.227 -0.7963 -1.6385 -1.1253
 1553TIP3   OH228853   4.511   3.031  16.931  0.6502  0.0949  0.0063
 1553TIP3    H128854   4.508   2.956  16.990  1.8638  0.0826  0.0699
 1553TIP3    H228855   4.482   2.997  16.846 -1.6141  0.2263  0.6536
 1554TIP3   OH228856   5.353   1.671  17.975  0.3134  0.1495 -0.0764
 1554TIP3    H128857   5.320   1.634  17.893 -1.3338  0.3682  0.4440
 1554TIP3    H228858   5.291   1.640  18.042  0.2820  1.8145  0.7275
 1555TIP3   OH228859   2.164   5.158  19.150 -0.1679  0.4131 -0.2147
 1555TIP3    H128860   2.223   5.225  19.186 -2.2640  2.8040 -0.9106
 1555TIP3    H228861   2.140   5.192  19.064 -1.6288 -1.0723 -0.4195
 1556TIP3   OH228862   7.197   3.234  17.243 -0.0932 -0.1122 -0.5478
 1556TIP3    H128863   7.162   3.212  17.156 -1.8208 -0.6803  0.2462
 1556TIP3    H228864   7.240   3.154  17.272  0.9951  0.2536 -1.0776
 1557TIP3   OH228865   2.425   6.938  17.938  0.6631  0.3386 -0.4882
 1557TIP3    H128866   2.358   6.879  17.903  1.1047 -0.4116 -0.1001
 1557TIP3    H228867   2.418   6.928  18.033  0.9202  0.7116 -0.4287
 1558TIP3   OH228868   7.117   4.825  18.764 -0.2279 -0.5292  0.3111
 1558TIP3    H128869   7.086   4.741  18.730 -3.0909  0.7945 -0.6799
 1558TIP3    H228870   7.037   4.874  18.784  1.3351  1.4795  2.1868
 1559TIP3   OH228871   2.273   5.272  18.878  0.3779 -0.4126 -0.2981
 1559TIP3    H128872   2.364   5.246  18.892  1.5035  2.2705 -1.8194
 1559TIP3    H228873   2.256   5.251  18.786 -0.7207 -1.2814  0.0804
 1560TIP3   OH228874   6.861   1.484  17.649 -0.2201  0.4665  0.0150
 1560TIP3    H128875   6.814   1.519  17.573  0.5956 -0.5291 -0.9969
 1560TIP3    H228876   6.795   1.436  17.699 -0.6033  0.3991 -0.5508
 1561TIP3   OH228877   2.713   2.812  17.610  0.3562 -0.5215  0.2744
 1561TIP3    H128878   2.631   2.808  17.659  0.3633  0.4643  0.3890
 1561TIP3    H228879   2.732   2.721  17.586 -0.7942 -0.7523  0.2020
 1562TIP3   OH228880   5.917   6.763  17.334  0.0767 -0.0750  0.0505
 1562TIP3    H128881   5.873   6.726  17.410 -0.3095 -0.0075 -0.1418
 1562TIP3    H228882   6.005   6.724  17.336  0.3187  0.4805  0.9475
 1563TIP3   OH228883   7.633   4.463  17.173 -0.1732  0.3783  0.3299
 1563TIP3    H128884   7.606   4.436  17.086  0.8353 -2.1635  0.7001
 1563TIP3    H228885   7.727   4.480  17.166 -0.1524  0.5178  0.8403
 1564TIP3   OH228886   7.386   1.592  19.156  0.0177 -0.1515 -0.9295
 1564TIP3    H128887   7.355   1.636  19.076  0.1326 -0.4038 -1.1155
 1564TIP3    H228888   7.436   1.517  19.123  1.6101  0.7463 -0.6441
 1565TIP3   OH228889   3.559   3.222  19.282 -0.2238  0.5916 -0.3635
 1565TIP3    H128890   3.485   3.212  19.223  0.6438 -0.8999 -1.2662
 1565TIP3    H228891   3.603   3.302  19.252 -0.5011  0.5409 -0.9177
 1566TIP3   OH228892   0.958   2.494  17.492  0.3413 -0.0845 -1.0990
 1566TIP3    H128893   1.047   2.528  17.484  1.1886 -2.2097 -1.4207
 1566TIP3    H228894   0.935   2.507  17.584  0.9041  0.6265 -1.0465
 1567TIP3   OH228895   4.924   7.598  16.931  0.5205  0.2542  0.6794
 1567TIP3    H128896   4.931   7.580  17.025 -0.9564  2.4300  1.2711
 1567TIP3    H228897   4.999   7.553  16.893  0.5993 -1.5428  2.7530
 1568TIP3   OH228898   5.326   1.094  17.648  0.5664  0.2304  0.1688
 1568TIP3    H128899   5.381   1.172  17.640 -0.0309  0.6974  0.5278
 1568TIP3    H228900   5.387   1.024  17.672  0.7294  1.2146  2.9658
 1569TIP3   OH228901   4.281   3.404  18.019  0.0010  0.2173 -0.2611
 1569TIP3    H128902   4.291   3.460  17.942  1.1024  0.1647 -0.1698
 1569TIP3    H228903   4.349   3.435  18.080  0.2088 -0.8057  0.0375
 1570TIP3   OH228904   6.592   3.295  17.118  0.0614  0.0764 -0.5343
 1570TIP3    H128905   6.503   3.317  17.092  0.2232  0.0716 -1.1019
 1570TIP3    H228906   6.637   3.379  17.123 -0.0884  0.1214  0.2071
 1571TIP3   OH228907   7.023   0.147  17.643 -0.4080  0.6187  0.0283
 1571TIP3    H128908   6.965   0.102  17.705  0.7660 -0.4266  0.4006
 1571TIP3    H228909   7.016   0.097  17.562  0.4745  0.0831  0.2762
 1572TIP3   OH228910   1.751   6.365  19.112  0.4691  0.5534  0.3043
 1572TIP3    H128911   1.741   6.418  19.192  1.3431 -1.0968  1.5795
 1572TIP3    H228912   1.839   6.383  19.082 -0.0451  1.5845 -0.6313
 1573TIP3   OH228913   0.825   5.173  18.495 -0.3762  0.0342  0.0917
 1573TIP3    H128914   0.915   5.206  18.493 -0.3865  0.0659  0.1421
 1573TIP3    H228915   0.771   5.252  18.503 -0.3968 -0.0024  0.3053
 1574TIP3   OH228916   3.975   6.590  19.232  0.0866 -0.3095  0.2723
 1574TIP3    H128917   4.003   6.654  19.297  1.5095 -0.5490 -0.0646
 1574TIP3    H228918   3.887   6.563  19.260  0.4139  0.0502  1.7290
 1575TIP3   OH228919   5.765   5.648  17.302 -0.0782  0.4522 -0.4201
 1575TIP3    H128920   5.729   5.613  17.220  0.6824  0.5981 -0.8221
 1575TIP3    H228921   5.728   5.736  17.309 -0.4547  0.2948 -0.4030
 1576TIP3   OH228922   2.979   7.264  18.722 -0.3557  0.2859  0.2444
 1576TIP3    H128923   3.045   7.318  18.766  0.3044  0.8768 -1.4176
 1576TIP3    H228924   2.997   7.175  18.753  1.9465  0.2668 -0.9505
 1577TIP3   OH228925   7.326   3.354  18.764 -0.6007  0.2952 -0.7432
 1577TIP3    H128926   7.257   3.346  18.699  0.2341  1.7167 -1.8815
 1577TIP3    H228927   7.396   3.403  18.719  1.3837 -1.5462  0.1629
 1578TIP3   OH228928   1.414   2.055  16.826  0.8418 -0.0001 -0.1550
 1578TIP3    H128929   1.457   2.128  16.783  2.0895 -0.8429 -0.4040
 1578TIP3    H228930   1.321   2.077  16.826  1.4075  3.1700  2.8119
 1579TIP3   OH228931   5.243   7.496  19.562 -0.2711  0.1658 -0.5880
 1579TIP3    H128932   5.203   7.581  19.579 -0.4093 -0.0865  0.3959
 1579TIP3    H228933   5.175   7.445  19.518 -0.5300  0.2308 -0.2640
 1580TIP3   OH228934   3.358   3.134  18.202 -0.1426  0.4795 -0.4062
 1580TIP3    H128935   3.420   3.063  18.217 -2.0711 -1.0387  1.0183
 1580TIP3    H228936   3.272   3.093  18.215 -1.3440  3.1539  0.8394
 1581TIP3   OH228937   6.872   6.384  17.997  0.2633  0.1121 -0.0955
 1581TIP3    H128938   6.934   6.366  18.068  1.5691 -0.6915 -1.3819
 1581TIP3    H228939   6.788   6.399  18.041  0.8831 -1.0596  1.5645
 1582TIP3   OH228940   0.214   0.437  17.594  0.5696  0.5524 -0.1583
 1582TIP3    H128941   0.146   0.369  17.601  1.6347 -0.4287  1.1683
 1582TIP3    H228942   0.289   0.401  17.642  0.8374  3.0897  1.5139
 1583TIP3   OH228943   0.140   2.291  17.906  0.4951  0.3883  0.4496
 1583TIP3    H128944   0.054   2.259  17.877  0.1205  0.5976  1.3172
 1583TIP3    H228945   0.159   2.364  17.848  0.1555  0.2510  0.1578
 1584TIP3   OH228946   7.456   0.844  17.117  0.0341 -0.0607  0.1557
 1584TIP3    H128947   7.411   0.784  17.176  0.2081 -0.3946 -0.0491
 1584TIP3    H228948   7.457   0.799  17.032  1.0452 -0.2026  0.2317
 1585TIP3   OH228949   4.803   1.527  17.538 -0.0404 -0.6145 -0.2158
 1585TIP3    H128950   4.793   1.464  17.467 -1.0542  1.4559 -2.0258
 1585TIP3    H228951   4.721   1.521  17.587 -1.3786  1.0921 -2.0490
 1586TIP3   OH228952   0.889   0.748  18.221  0.0514 -0.1815  0.0536
 1586TIP3    H128953   0.915   0.809  18.153 -0.9099 -0.7632 -0.8672
 1586TIP3    H228954   0.805   0.781  18.253  0.6653  0.2960  1.2444
 1587TIP3   OH228955   6.989   3.421  19.105  0.6325 -0.0152 -0.3698
 1587TIP3    H128956   6.986   3.437  19.010  0.6627  0.7399 -0.2469
 1587TIP3    H228957   6.987   3.325  19.113 -1.8078 -0.0971 -1.0560
 1588TIP3   OH228958   5.196   2.620  18.983  0.7365 -0.0289 -0.1942
 1588TIP3    H128959   5.127   2.577  19.032 -0.4753 -0.9819 -2.5672
 1588TIP3    H228960   5.183   2.713  19.000 -1.3387 -0.1613 -0.7764
 1589TIP3   OH228961   7.030   1.159  19.537  0.0264 -0.3159  0.1555
 1589TIP3    H128962   7.122   1.182  19.550  0.2406  1.4648 -3.4603
 1589TIP3    H228963   6.987   1.242  19.517 -1.6077 -1.5407 -1.7634
 1590TIP3   OH228964   5.168   3.229  17.776  0.3455 -0.3188 -0.0031
 1590TIP3    H128965   5.160   3.208  17.869 -1.4162  1.4631  0.3174
 1590TIP3    H228966   5.166   3.144  17.732 -0.3163 -1.1281  1.5052
 1591TIP3   OH228967   5.475   3.680  19.567 -0.0268  0.1510  0.8522
 1591TIP3    H128968   5.498   3.769  19.593 -1.8749  0.2403  2.3947
 1591TIP3    H228969   5.379   3.680  19.566 -0.0964 -0.9486 -2.3646
 1592TIP3   OH228970   0.027   4.437  18.177  0.0821  0.6447 -0.2820
 1592TIP3    H128971   0.003   4.507  18.238  0.7663  1.2961 -0.7329
 1592TIP3    H228972  -0.033   4.448  18.103  0.4735  1.0527 -0.5500
 1593TIP3   OH228973   4.474   3.123  18.164 -0.3065  0.0604  0.3091
 1593TIP3    H128974   4.469   3.140  18.070 -0.9636  0.8260  0.4724
 1593TIP3    H228975   4.505   3.032  18.170  2.6240  0.8962 -0.6209
 1594TIP3   OH228976   1.181   5.425  17.500 -0.0775 -0.5072  0.7230
 1594TIP3    H128977   1.099   5.474  17.507  0.7171  1.0685 -0.3525
 1594TIP3    H228978   1.201   5.426  17.407  2.1213  0.8385  1.1454
 1595TIP3   OH228979   5.867   0.731  19.560  0.5783 -0.3562  0.4530
 1595TIP3    H128980   5.950   0.683  19.555 -0.0592 -1.3903 -0.5431
 1595TIP3    H228981   5.818   0.687  19.630 -0.0070 -1.1750 -0.4604
 1596TIP3   OH228982   6.302   2.678  19.769  0.3906 -0.0029  0.5177
 1596TIP3    H128983   6.242   2.613  19.732  1.5901 -1.6438  1.3465
 1596TIP3    H228984   6.245   2.749  19.799 -0.8418  0.0244 -1.7009
 1597TIP3   OH228985   7.470   1.024  19.144  0.2898 -0.3300  0.2876
 1597TIP3    H128986   7.514   0.974  19.212  0.7314  0.7974  0.8627
 1597TIP3    H228987   7.377   1.007  19.159  0.2152  1.4757  2.5561
 1598TIP3   OH228988   0.469   3.773  17.675 -0.7069 -0.1896 -0.8853
 1598TIP3    H128989   0.523   3.779  17.753  0.5151 -0.1527 -1.6975
 1598TIP3    H228990   0.386   3.814  17.699 -0.1699  0.2758  0.2193
 1599TIP3   OH228991   2.637   5.771  17.687 -0.0346 -0.1485  0.4374
 1599TIP3    H128992   2.611   5.679  17.691 -0.6472 -0.0065 -0.0820
 1599TIP3    H228993   2.601   5.811  17.766  0.0085 -0.3038  0.5341
 1600TIP3   OH228994   1.495   1.111  18.988 -0.2677 -0.2797 -0.4564
 1600TIP3    H128995   1.416   1.150  19.024 -0.3217  0.6948 -1.5923
 1600TIP3    H228996   1.543   1.080  19.065 -1.7086 -0.8435  0.2568
 1601TIP3   OH228997   0.522   6.813  17.428  0.1602  0.0264  0.1065
 1601TIP3    H128998   0.566   6.895  17.453  0.7981  0.3317 -1.8710
 1601TIP3    H228999   0.455   6.801  17.495  1.2063  1.2208  1.4430
 1602TIP3   OH229000   2.997   5.440  16.760 -0.0455  0.4419 -0.1890
 1602TIP3    H129001   3.040   5.364  16.722  0.4623  0.7795 -0.2998
 1602TIP3    H229002   3.065   5.507  16.764 -0.4147  0.8072  0.1570
 1603TIP3   OH229003   2.443   0.178  16.561  0.2957  0.0127 -0.1168
 1603TIP3    H129004   2.490   0.227  16.494  0.1035 -0.5517 -0.6661
 1603TIP3    H229005   2.492   0.097  16.571  0.1136 -0.0668  0.1617
 1604TIP3   OH229006   1.712   4.628  18.904  0.1024 -0.0162  0.1854
 1604TIP3    H129007   1.676   4.685  18.836 -0.8142  0.2073  0.8283
 1604TIP3    H229008   1.706   4.680  18.984  2.0386  0.0720  0.2987
 1605TIP3   OH229009   4.889   3.573  19.339 -0.5507  0.8365  0.3574
 1605TIP3    H129010   4.837   3.566  19.259 -0.6894  1.8838  0.3428
 1605TIP3    H229011   4.940   3.654  19.327 -0.9930  1.3096  1.5648
 1606TIP3   OH229012   7.041   4.461  17.502  0.0608 -0.2716  0.1058
 1606TIP3    H129013   7.002   4.423  17.423  0.6850  0.2857 -0.4768
 1606TIP3    H229014   6.976   4.524  17.532 -0.0686 -0.2964 -0.1162
 1607TIP3   OH229015   1.686   1.949  16.897  0.2439  0.6111 -0.3955
 1607TIP3    H129016   1.695   2.044  16.907 -4.1597  1.1158  0.8220
 1607TIP3    H229017   1.610   1.938  16.840  0.8211 -2.2681 -0.7752
 1608TIP3   OH229018   3.781   3.434  18.773 -0.3956  0.1042  0.0866
 1608TIP3    H129019   3.782   3.382  18.693 -2.0865  1.4812 -0.9103
 1608TIP3    H229020   3.859   3.408  18.821 -0.0429 -1.7049 -1.3989
 1609TIP3   OH229021   6.282   4.223  16.663 -0.2804 -0.2875 -0.2321
 1609TIP3    H129022   6.291   4.259  16.752  0.4318 -0.8485 -0.0711
 1609TIP3    H229023   6.351   4.156  16.657 -0.2219 -0.1430 -1.2668
 1610TIP3   OH229024   4.013   5.081  17.354 -0.0491  0.3360  0.0718
 1610TIP3    H129025   4.063   5.024  17.295 -0.5504  0.2978 -0.3205
 1610TIP3    H229026   4.064   5.161  17.359  1.0799 -0.4126  1.2513
 1611TIP3   OH229027   5.910   2.840  19.527  0.2826  0.1865 -0.6197
 1611TIP3    H129028   5.931   2.874  19.614  0.9044 -0.3914 -0.5346
 1611TIP3    H229029   5.991   2.853  19.476 -0.7055  2.4482 -1.7545
 1612TIP3   OH229030   2.516   0.313  18.873  0.2707  0.8747  0.2373
 1612TIP3    H129031   2.435   0.361  18.854  0.2959  1.6215  1.8680
 1612TIP3    H229032   2.533   0.263  18.793 -2.5615 -0.4323  0.3288
 1613TIP3   OH229033   5.869   3.845  18.043  0.1185 -0.0870  0.4500
 1613TIP3    H129034   5.961   3.844  18.017  0.3537 -0.0120  1.2403
 1613TIP3    H229035   5.821   3.837  17.961  0.7913  1.7139 -0.1641
 1614TIP3   OH229036   2.077   0.490  18.069 -0.2851  0.2239 -0.2242
 1614TIP3    H129037   2.015   0.476  18.140  0.7792 -1.2545  0.4499
 1614TIP3    H229038   2.068   0.413  18.013  0.6473  0.1916 -0.3453
 1615TIP3   OH229039   0.627   1.810  18.506  0.1583 -0.4794  0.0429
 1615TIP3    H129040   0.629   1.723  18.545  1.0078 -0.3398  0.3226
 1615TIP3    H229041   0.688   1.804  18.432  0.3289 -0.0729  0.1538
 1616TIP3   OH229042   5.008   0.523  18.488  0.0808 -0.8781  0.2517
 1616TIP3    H129043   5.092   0.546  18.446  0.0255 -0.9564  0.0971
 1616TIP3    H229044   5.004   0.579  18.565 -0.6792  0.6171 -0.8398
 1617TIP3   OH229045   1.234   0.438  17.768 -0.2073 -0.2225 -0.8669
 1617TIP3    H129046   1.312   0.397  17.806 -0.6608  0.8307  1.3203
 1617TIP3    H229047   1.184   0.470  17.843 -1.9191  0.6555 -2.3017
 1618TIP3   OH229048   2.778   5.098  19.579  0.3929  0.1994 -0.4483
 1618TIP3    H129049   2.754   5.009  19.553 -0.8623  0.7177 -1.1287
 1618TIP3    H229050   2.696   5.139  19.606  1.0413  0.9946  0.4018
 1619TIP3   OH229051   1.217   6.688  19.147 -0.0337  0.1620  0.2733
 1619TIP3    H129052   1.203   6.609  19.200  0.5225 -0.9042 -1.1157
 1619TIP3    H229053   1.246   6.754  19.210  0.3829 -0.9930  1.3298
 1620TIP3   OH229054   0.756   4.374  19.113  0.0360 -0.1457  0.0736
 1620TIP3    H129055   0.843   4.409  19.130 -0.4525  1.1256  0.0863
 1620TIP3    H229056   0.751   4.366  19.018  0.0699  0.0468  0.0562
 1621TIP3   OH229057   3.441   0.744  17.303 -0.4750  0.1176 -0.1104
 1621TIP3    H129058   3.411   0.666  17.256 -0.1528  0.5037 -0.9746
 1621TIP3    H229059   3.488   0.795  17.237 -0.5796  0.9891  0.4752
 1622TIP3   OH229060   6.096   3.024  18.437 -0.4306 -0.1087  0.1348
 1622TIP3    H129061   6.086   3.119  18.441 -0.4909 -0.1318  0.5199
 1622TIP3    H229062   6.020   2.994  18.388 -2.0662 -0.2413  2.6309
 1623TIP3   OH229063   0.760   1.521  18.954  0.4027  0.0665 -0.0751
 1623TIP3    H129064   0.689   1.561  19.005  0.6946  0.3792  0.0949
 1623TIP3    H229065   0.765   1.431  18.985 -1.5572 -0.7315 -1.8190
 1624TIP3   OH229066   2.532   1.018  17.620 -0.1280  0.4772  0.2477
 1624TIP3    H129067   2.458   1.041  17.677 -0.1740 -0.5854  0.6490
 1624TIP3    H229068   2.491   0.972  17.547 -0.1164  2.2377 -0.9205
 1625TIP3   OH229069   7.071   2.790  18.561  0.0437  0.2514 -0.1286
 1625TIP3    H129070   7.150   2.742  18.584 -0.5622 -0.0204  1.5457
 1625TIP3    H229071   7.102   2.872  18.523  1.0984 -1.0023 -2.2041
 1626TIP3   OH229072   7.227   2.014  18.139 -0.2838 -0.0560  1.1634
 1626TIP3    H129073   7.250   1.987  18.228  0.3785 -0.5308  0.8499
 1626TIP3    H229074   7.211   1.932  18.092 -2.5341  0.2309  1.3264
 1627TIP3   OH229075   6.171   2.503  16.887  0.8001  0.1522 -0.3317
 1627TIP3    H129076   6.116   2.550  16.950 -0.8896 -0.7893 -1.0356
 1627TIP3    H229077   6.221   2.571  16.842  0.4199  1.0122  0.5194
 1628TIP3   OH229078   2.705   7.304  18.733  0.3804 -0.4850 -0.3434
 1628TIP3    H129079   2.786   7.274  18.693  1.1922 -1.0424  1.6462
 1628TIP3    H229080   2.732   7.360  18.805 -1.0682  1.6079 -1.3062
 1629TIP3   OH229081   1.286   1.203  18.728  0.1417  0.3488 -0.1731
 1629TIP3    H129082   1.222   1.234  18.665  0.9727  1.0480 -0.6914
 1629TIP3    H229083   1.250   1.227  18.813  0.9363  3.2588 -0.5426
 1630TIP3   OH229084   0.384   2.163  17.755  0.2735  0.0060  0.1787
 1630TIP3    H129085   0.408   2.176  17.846  0.4753  0.8314  0.0116
 1630TIP3    H229086   0.385   2.250  17.716 -1.3139 -0.1270 -0.2599
 1631TIP3   OH229087   4.520   5.377  18.273  0.2148 -0.4734 -0.6322
 1631TIP3    H129088   4.460   5.305  18.292 -0.2747  0.0918  0.0225
 1631TIP3    H229089   4.479   5.423  18.200  0.4375 -0.7531 -0.9352
 1632TIP3   OH229090   3.276   7.521  18.309  0.3719 -0.0992  0.0402
 1632TIP3    H129091   3.320   7.587  18.362 -1.4156  1.7762 -0.6967
 1632TIP3    H229092   3.326   7.441  18.325  2.5197  1.3419  1.1199
 1633TIP3   OH229093   0.287   4.636  19.377  0.1020  0.1619 -0.3490
 1633TIP3    H129094   0.274   4.709  19.438  1.4539 -0.6829  1.0152
 1633TIP3    H229095   0.206   4.585  19.382 -0.4161  0.9486 -0.4798
 1634TIP3   OH229096   0.709   4.414  18.639 -0.1383 -0.5731  0.5389
 1634TIP3    H129097   0.739   4.429  18.728 -1.0088  3.0625  0.3650
 1634TIP3    H229098   0.619   4.447  18.637 -0.6549 -1.8690 -1.3786
 1635TIP3   OH229099   1.074   4.416  19.325  0.4071  0.5079 -0.0580
 1635TIP3    H129100   1.010   4.488  19.326 -2.5640 -1.9242 -0.6682
 1635TIP3    H229101   1.063   4.373  19.410  1.2928  0.0631 -0.1600
 1636TIP3   OH229102   5.299   2.272  19.559 -0.2009  0.3579 -0.9178
 1636TIP3    H129103   5.276   2.192  19.606 -2.3262  0.5698 -1.4944
 1636TIP3    H229104   5.368   2.312  19.612  2.4103 -2.7618 -1.6184
 1637TIP3   OH229105   4.917   3.177  19.258 -0.5329 -0.2986  0.1538
 1637TIP3    H129106   4.890   3.117  19.188  1.0887 -0.2147 -0.5944
 1637TIP3    H229107   4.937   3.120  19.332 -1.3758 -0.4617  0.2713
 1638TIP3   OH229108   3.102   3.827  19.493 -0.3891 -0.0046 -0.6187
 1638TIP3    H129109   3.028   3.801  19.438  0.4355 -0.7587 -1.3904
 1638TIP3    H229110   3.160   3.751  19.493 -0.1780  0.1245  0.9866
 1639TIP3   OH229111   1.908   0.381  17.355 -0.0059  0.1808 -0.0231
 1639TIP3    H129112   1.925   0.376  17.449 -2.6103  0.3033  0.5253
 1639TIP3    H229113   1.892   0.291  17.328  1.7302  0.0078 -0.6267
 1640TIP3   OH229114   1.968   6.741  17.500  0.2524  0.0848 -0.5573
 1640TIP3    H129115   1.964   6.808  17.568 -0.4328 -0.2473 -0.2672
 1640TIP3    H229116   1.888   6.689  17.512 -0.8775  1.1598 -2.7642
 1641TIP3   OH229117   3.417   1.536  19.071 -0.0193 -0.0729 -0.2170
 1641TIP3    H129118   3.341   1.526  19.015  0.2643  0.2247 -0.6617
 1641TIP3    H229119   3.484   1.481  19.031  1.5331  3.2616 -2.6520
 1642TIP3   OH229120   0.484   7.088  18.216  0.1236 -0.0459 -0.2921
 1642TIP3    H129121   0.423   7.053  18.150  1.5585 -2.6799 -0.3825
 1642TIP3    H229122   0.431   7.100  18.294 -0.6080 -2.2844 -0.3616
 1643TIP3   OH229123   6.405   0.116  18.750  0.0989  0.6747 -0.1538
 1643TIP3    H129124   6.449   0.038  18.782 -0.4770  0.8427  1.1371
 1643TIP3    H229125   6.329   0.083  18.702  0.1194  0.4314 -0.0212
 1644TIP3   OH229126   1.150   3.304  17.697 -0.3908  0.3617  0.3484
 1644TIP3    H129127   1.109   3.307  17.610 -1.5267  2.6850  0.8925
 1644TIP3    H229128   1.078   3.319  17.758  0.1411 -2.5463  1.8778
 1645TIP3   OH229129   6.402   6.092  18.128  0.5623  0.2506 -0.0326
 1645TIP3    H129130   6.487   6.057  18.155  0.0429 -0.9247  0.1252
 1645TIP3    H229131   6.357   6.111  18.210  0.0162 -0.7797 -0.0788
 1646TIP3   OH229132   2.113   2.350  17.392  0.7536  0.6152  0.2151
 1646TIP3    H129133   2.018   2.348  17.398  0.7706  0.5775  0.5352
 1646TIP3    H229134   2.134   2.306  17.310  0.5027  0.4523  0.2396
 1647TIP3   OH229135   6.475   4.138  17.518  0.3103 -0.6182  0.3391
 1647TIP3    H129136   6.506   4.074  17.454  0.1819 -0.1683 -0.1825
 1647TIP3    H229137   6.527   4.216  17.502  0.1099 -0.4227  0.6253
 1648TIP3   OH229138   0.925   7.506  19.094  0.0010 -0.3946 -0.2485
 1648TIP3    H129139   0.898   7.421  19.057 -0.2672 -0.8191  0.8744
 1648TIP3    H229140   0.843   7.556  19.101 -0.0881 -0.6399  0.5554
 1649TIP3   OH229141   5.532   4.913  18.797 -0.6398 -0.0684  0.0553
 1649TIP3    H129142   5.529   4.900  18.891 -1.9935 -0.3065 -0.0123
 1649TIP3    H229143   5.453   4.963  18.776  0.0928  0.7614 -0.8412
 1650TIP3   OH229144   1.609   0.659  18.211  0.4081 -0.0469  0.3534
 1650TIP3    H129145   1.552   0.647  18.288 -0.2526  1.0667  0.0635
 1650TIP3    H229146   1.572   0.601  18.145 -1.5249  1.8863 -0.4002
 1651TIP3   OH229147   6.183   0.132  19.123 -0.3660  0.1484  0.2274
 1651TIP3    H129148   6.205   0.139  19.216 -0.2406 -1.3522  0.3293
 1651TIP3    H229149   6.209   0.044  19.098 -1.7920 -0.0085 -0.8711
 1652TIP3   OH229150   0.601   1.252  18.174 -0.2079  0.2389  0.1596
 1652TIP3    H129151   0.664   1.193  18.215  0.4687 -0.3934 -1.6860
 1652TIP3    H229152   0.586   1.321  18.239 -1.0816 -1.9576  2.4265
 1653TIP3   OH229153   2.937   0.402  17.543 -0.2771 -0.5342 -0.3507
 1653TIP3    H129154   2.864   0.367  17.595 -0.3910  0.7244  0.3905
 1653TIP3    H229155   2.930   0.497  17.554  0.9790 -0.3570 -0.9639
 1654TIP3   OH229156   3.335   5.860  19.616 -0.0255  0.2915  0.5327
 1654TIP3    H129157   3.402   5.822  19.673 -0.0188  1.8612  1.6289
 1654TIP3    H229158   3.254   5.816  19.641  0.4099 -0.9703 -0.1774
 1655TIP3   OH229159   7.116   0.866  19.512  0.3322  0.5481  0.3267
 1655TIP3    H129160   7.077   0.954  19.517  0.7676  0.6956  1.5984
 1655TIP3    H229161   7.044   0.810  19.484  0.2295  1.4082 -1.2366
 1656TIP3   OH229162   5.867   6.105  18.125 -0.2813  0.8126  0.0820
 1656TIP3    H129163   5.804   6.141  18.186 -2.2485  1.1595 -2.0241
 1656TIP3    H229164   5.895   6.023  18.164 -1.2388  1.1663  1.5617
 1657TIP3   OH229165   3.133   1.846  18.220 -0.3631 -0.1664 -0.4737
 1657TIP3    H129166   3.182   1.789  18.161 -1.0779 -1.8093  0.4493
 1657TIP3    H229167   3.199   1.883  18.279 -0.0344 -1.1389 -0.2150
 1658TIP3   OH229168   0.459   5.815  17.755 -0.2604 -0.6206  0.4884
 1658TIP3    H129169   0.472   5.872  17.831 -0.6699  0.3687 -0.1719
 1658TIP3    H229170   0.364   5.808  17.746 -0.2501  0.7704 -1.0221
 1659TIP3   OH229171   4.292   4.086  17.576  0.2973 -0.1905 -0.0414
 1659TIP3    H129172   4.264   4.027  17.646 -0.3702 -0.3292 -0.4139
 1659TIP3    H229173   4.238   4.165  17.588  1.1242  0.3170  0.4040
 1660TIP3   OH229174   6.254   6.162  18.380 -0.2501 -0.6366 -0.1148
 1660TIP3    H129175   6.218   6.073  18.386  0.6152 -0.9677  0.2420
 1660TIP3    H229176   6.333   6.160  18.433 -0.9823  0.7490  1.1073
 1661TIP3   OH229177   5.196   1.156  17.920  0.1984  0.2712  0.3615
 1661TIP3    H129178   5.123   1.093  17.922  2.4024 -2.5049 -0.3488
 1661TIP3    H229179   5.202   1.183  17.829 -0.1390  0.7706  0.4837
 1662TIP3   OH229180   6.542   4.994  19.487  0.8835  0.6957 -0.3459
 1662TIP3    H129181   6.634   4.989  19.514  0.9819  0.5643 -0.7005
 1662TIP3    H229182   6.544   4.982  19.392  0.4460  0.0330 -0.2781
 1663TIP3   OH229183   3.923   5.835  19.320 -0.0808  1.0218 -0.3459
 1663TIP3    H129184   3.907   5.822  19.226  0.5281 -1.4767 -0.1773
 1663TIP3    H229185   3.866   5.772  19.363  2.6334 -0.9628  0.6819
 1664TIP3   OH229186   4.817   6.207  18.575  0.2580  0.4277  0.2764
 1664TIP3    H129187   4.743   6.157  18.610 -0.4224  0.9125 -0.4335
 1664TIP3    H229188   4.794   6.299  18.591  0.5610  0.5946 -0.2224
 1665TIP3   OH229189   5.750   4.462  19.742 -0.1096  0.3319  0.3284
 1665TIP3    H129190   5.790   4.509  19.815  0.2704  1.9139 -0.8481
 1665TIP3    H229191   5.681   4.410  19.782  0.3113  0.8938  1.8575
 1666TIP3   OH229192   1.820   0.544  18.813  0.3748  0.4545 -0.3221
 1666TIP3    H129193   1.843   0.451  18.818 -1.5795 -0.0019  2.7461
 1666TIP3    H229194   1.753   0.548  18.745  0.6966 -0.3125 -0.7034
 1667TIP3   OH229195   1.363   5.380  17.705 -0.3897 -0.7930  0.0169
 1667TIP3    H129196   1.446   5.410  17.668 -0.4525 -1.2594 -0.5020
 1667TIP3    H229197   1.299   5.395  17.636 -0.7004 -0.6582  0.3296
 1668TIP3   OH229198   7.617   4.269  17.777  0.4486  0.0792 -0.3581
 1668TIP3    H129199   7.682   4.297  17.713  1.6411 -0.6965  0.4777
 1668TIP3    H229200   7.641   4.179  17.799 -1.4208 -0.5474 -0.6518
 1669TIP3   OH229201   6.930   0.176  19.299  0.3401 -0.3485  0.7645
 1669TIP3    H129202   6.855   0.188  19.358 -0.7414 -0.1882 -0.5648
 1669TIP3    H229203   6.897   0.117  19.231  0.8300  1.0748 -0.7905
 1670TIP3   OH229204   7.472   1.288  16.759  0.0999  0.6126  0.3379
 1670TIP3    H129205   7.398   1.252  16.809  1.4922 -0.6825  1.5745
 1670TIP3    H229206   7.439   1.371  16.725 -2.1041 -0.1744  0.3592
 1671TIP3   OH229207   6.142   1.566  18.228  0.2182  0.1320 -0.3330
 1671TIP3    H129208   6.171   1.513  18.302 -1.0969  0.7992  0.7072
 1671TIP3    H229209   6.061   1.524  18.198  0.4367  0.1920 -1.0343
 1672TIP3   OH229210   2.015   1.395  18.315 -0.0308  0.2080  0.1960
 1672TIP3    H129211   2.066   1.335  18.369 -2.2100  1.5606  4.0961
 1672TIP3    H229212   1.939   1.344  18.287 -0.0548  0.1493  0.3690
 1673TIP3   OH229213   1.667   4.628  17.446  0.8373 -0.2734  0.4776
 1673TIP3    H129214   1.662   4.665  17.534  1.2898  1.5947 -0.2395
 1673TIP3    H229215   1.645   4.701  17.388  1.5225 -1.2067 -1.0140
 1674TIP3   OH229216   6.457   4.382  17.841 -0.6966 -0.1234 -0.7303
 1674TIP3    H129217   6.434   4.467  17.879 -0.6098 -0.4045 -0.0370
 1674TIP3    H229218   6.382   4.326  17.859  0.2185 -0.8702  0.9997
 1675TIP3   OH229219   3.990   2.078  18.928 -0.2843 -0.0018 -0.2963
 1675TIP3    H129220   3.931   2.041  18.863  0.1914 -0.6754 -0.3574
 1675TIP3    H229221   4.040   2.144  18.881 -1.0621  0.6497 -0.2163
 1676TIP3   OH229222   1.323   1.526  16.996 -0.4384 -0.2193 -0.1621
 1676TIP3    H129223   1.263   1.586  16.952 -0.3958 -0.2954 -0.3248
 1676TIP3    H229224   1.308   1.442  16.954  0.7394  0.0382 -1.1439
 1677TIP3   OH229225   1.841   1.116  17.841 -0.0362 -0.0843 -0.3568
 1677TIP3    H129226   1.797   1.138  17.759 -1.9467  0.4836  0.7485
 1677TIP3    H229227   1.902   1.188  17.856 -2.6098  2.0610  0.6921
 1678TIP3   OH229228   2.719   6.656  18.784 -0.7215  0.2530 -0.4691
 1678TIP3    H129229   2.753   6.745  18.793 -0.6885  0.1863  0.1034
 1678TIP3    H229230   2.774   6.615  18.717 -0.9204  0.7516 -0.9462
 1679TIP3   OH229231   5.919   0.027  17.404  0.3658  0.3164 -0.4183
 1679TIP3    H129232   5.921   0.054  17.496  3.7545  2.3105 -0.8872
 1679TIP3    H229233   5.969  -0.055  17.403 -2.4646 -1.5204 -0.1619
 1680TIP3   OH229234   0.441   7.152  17.855  0.2922  0.1038  0.0966
 1680TIP3    H129235   0.467   7.235  17.813  0.5705  0.5257  1.0840
 1680TIP3    H229236   0.383   7.178  17.926  1.0715 -0.4785  0.9622
 1681TIP3   OH229237   5.335   5.489  18.927 -0.0388  0.1620 -0.0249
 1681TIP3    H129238   5.261   5.521  18.978 -0.1581  0.2156 -0.2279
 1681TIP3    H229239   5.330   5.394  18.935  0.9853  0.2054  1.5205
 1682TIP3   OH229240   1.870   2.182  18.096 -0.2417  0.0387  0.6641
 1682TIP3    H129241   1.796   2.141  18.141 -1.3065  1.1285 -0.0453
 1682TIP3    H229242   1.913   2.109  18.051  0.3132 -0.9266  2.6468
 1683TIP3   OH229243   5.305   4.718  19.201 -0.2120 -0.3420  0.2274
 1683TIP3    H129244   5.325   4.785  19.267  0.2101  0.1380 -0.3670
 1683TIP3    H229245   5.240   4.759  19.144 -0.9187 -0.9242  0.6101
 1684TIP3   OH229246   4.482   7.560  18.858  0.1572 -0.3330  0.0859
 1684TIP3    H129247   4.494   7.497  18.787 -0.1386 -2.9109  2.1902
 1684TIP3    H229248   4.389   7.553  18.881 -0.2008  1.8523 -0.3758
 1685TIP3   OH229249   2.424   2.755  16.736 -0.0235  0.5239 -0.3574
 1685TIP3    H129250   2.419   2.664  16.765 -0.7626  0.1568 -1.5362
 1685TIP3    H229251   2.370   2.757  16.657  0.6738  1.8002 -0.8263
 1686TIP3   OH229252   6.454   2.139  18.061 -0.1184 -0.4087 -0.1853
 1686TIP3    H129253   6.515   2.115  17.992 -0.0629  2.2362 -1.1816
 1686TIP3    H229254   6.372   2.095  18.038 -0.9188  2.4133 -3.5886
 1687TIP3   OH229255   0.370   2.045  18.369 -0.4019 -0.2540 -0.3954
 1687TIP3    H129256   0.401   2.135  18.372  1.5568 -0.7787 -2.0732
 1687TIP3    H229257   0.450   1.992  18.372 -1.5189 -1.9756  1.0936
 1688TIP3   OH229258   5.341   2.980  17.839  0.1795  0.3903 -0.0617
 1688TIP3    H129259   5.284   2.919  17.792  0.2090  1.1489 -1.1322
 1688TIP3    H229260   5.305   2.985  17.927 -0.3880 -0.4382 -0.2445
 1689TIP3   OH229261   4.831   2.347  17.863 -0.1259  0.2861  0.4649
 1689TIP3    H129262   4.902   2.285  17.847  0.6731  0.8543  1.6704
 1689TIP3    H229263   4.836   2.409  17.790  0.4258  0.1435  0.3789
 1690TIP3   OH229264   0.397   1.584  18.802 -0.8352 -0.0647 -0.0008
 1690TIP3    H129265   0.410   1.656  18.864 -2.2449  0.5631 -0.3960
 1690TIP3    H229266   0.411   1.505  18.854  1.4350  0.4484  0.2877
 1691TIP3   OH229267   1.361   1.449  17.472  0.0148 -0.1206  0.2263
 1691TIP3    H129268   1.300   1.383  17.438  1.1576 -1.6438  1.0001
 1691TIP3    H229269   1.384   1.502  17.397  1.2187 -2.3824 -1.1135
 1692TIP3   OH229270   5.411   0.470  19.234  0.4083 -0.3228  0.2078
 1692TIP3    H129271   5.463   0.524  19.175 -2.5227  1.3557 -1.0915
 1692TIP3    H229272   5.391   0.391  19.184  0.1530 -0.1101 -0.0294
 1693TIP3   OH229273   5.729   2.249  19.476  0.2318 -0.1482  0.5918
 1693TIP3    H129274   5.813   2.269  19.434  0.4384 -1.1781  0.4882
 1693TIP3    H229275   5.750   2.180  19.539 -0.1729  0.9792  2.0301
 1694TIP3   OH229276   7.108   3.362  18.538 -0.0075 -0.4792 -0.0297
 1694TIP3    H129277   7.108   3.278  18.583 -0.8244  0.1447  1.1739
 1694TIP3    H229278   7.081   3.341  18.449  0.7827 -1.6163 -0.0276
 1695TIP3   OH229279   4.138   1.345  18.068  0.9739  0.3213  0.4807
 1695TIP3    H129280   4.134   1.325  18.162  0.1663  1.5445  0.7346
 1695TIP3    H229281   4.229   1.373  18.054  0.9055  0.8765  1.0723
 1696TIP3   OH229282   2.420   6.192  17.725 -0.1162 -0.1045 -0.0589
 1696TIP3    H129283   2.404   6.282  17.754 -0.1446 -0.6138  1.6381
 1696TIP3    H229284   2.498   6.165  17.774 -1.5136 -1.7804  1.3810
 1697TIP3   OH229285   0.482   0.055  19.056  0.2851 -0.7654  0.2860
 1697TIP3    H129286   0.547   0.008  19.004  0.4664 -1.6877  1.3152
 1697TIP3    H229287   0.508   0.147  19.048  1.3797 -1.0623  0.2090
 1698TIP3   OH229288   0.304   0.136  18.725  0.2729  0.7214  0.3882
 1698TIP3    H129289   0.277   0.070  18.790 -0.1610  0.9820  0.4773
 1698TIP3    H229290   0.381   0.178  18.765  0.7497  0.0539  0.1864
 1699TIP3   OH229291   1.919   5.543  16.746 -0.0882 -0.3741 -0.1848
 1699TIP3    H129292   1.892   5.634  16.730  0.6896  0.1289  1.1877
 1699TIP3    H229293   1.892   5.496  16.667 -1.7318  0.7680 -0.3544
 1700TIP3   OH229294   7.120   4.793  18.061 -0.2072  0.7100  0.4437
 1700TIP3    H129295   7.071   4.718  18.095  0.6258  0.8078  1.9154
 1700TIP3    H229296   7.108   4.788  17.966 -1.2348 -0.5251  0.6118
 1701TIP3   OH229297   6.606   4.216  17.099  0.8149 -0.4963 -0.2104
 1701TIP3    H129298   6.681   4.247  17.050  0.3209 -1.0924 -1.3874
 1701TIP3    H229299   6.579   4.290  17.153  1.4361  0.1340 -0.7638
 1702TIP3   OH229300   4.109   4.082  18.234 -0.3479 -0.2248 -0.0567
 1702TIP3    H129301   4.016   4.098  18.217 -0.4638  0.2506  0.9680
 1702TIP3    H229302   4.155   4.149  18.182 -0.5581 -0.6133 -0.7535
 1703TIP3   OH229303   1.464   4.855  17.061  0.4603  0.1807  0.0289
 1703TIP3    H129304   1.512   4.882  16.983  2.1601 -0.7466  0.6933
 1703TIP3    H229305   1.451   4.761  17.051 -1.5813  0.4412 -0.2755
 1704TIP3   OH229306   3.696   0.548  19.235  0.0050  0.0998 -0.1624
 1704TIP3    H129307   3.626   0.611  19.252 -0.1979 -0.1833  0.0587
 1704TIP3    H229308   3.775   0.601  19.227 -0.2837  0.4517 -0.7254
 1705TIP3   OH229309   4.245   2.495  19.029  0.2288  0.4373 -0.2572
 1705TIP3    H129310   4.260   2.585  19.059  1.7088  0.5731 -1.3386
 1705TIP3    H229311   4.329   2.452  19.037 -0.5651 -1.0059  0.6492
 1706TIP3   OH229312   5.545   2.607  17.696 -0.3275  0.1725  0.3719
 1706TIP3    H129313   5.461   2.624  17.653 -0.8347 -1.3867  0.6761
 1706TIP3    H229314   5.524   2.601  17.789 -0.0202 -0.8910  0.3895
 1707TIP3   OH229315   1.923   7.229  17.913 -0.0283  0.2478  0.1511
 1707TIP3    H129316   1.944   7.309  17.962  1.6248 -0.2288  0.2624
 1707TIP3    H229317   1.990   7.166  17.940  0.1186 -0.4378 -1.7173
 1708TIP3   OH229318   3.266   7.386  19.189 -0.2877  0.2187 -0.5490
 1708TIP3    H129319   3.312   7.432  19.258  0.7782 -2.2030  0.4707
 1708TIP3    H229320   3.216   7.454  19.143  0.3014  2.1412  1.5117
 1709TIP3   OH229321   6.428   2.874  17.834 -0.0144  0.9152 -0.1486
 1709TIP3    H129322   6.353   2.886  17.776 -0.7060  2.5612  1.0329
 1709TIP3    H229323   6.392   2.875  17.922  1.1846 -0.2551  0.4033
 1710TIP3   OH229324   3.069   3.655  17.499  0.2382  0.3434  0.3257
 1710TIP3    H129325   3.061   3.707  17.579  1.8532  0.0099  0.7346
 1710TIP3    H229326   3.001   3.588  17.507  2.3475 -1.7027  3.0556
 1711TIP3   OH229327   7.529   7.605  18.468  0.7725 -0.0593 -0.7715
 1711TIP3    H129328   7.492   7.623  18.382 -0.2969  2.1905  0.0607
 1711TIP3    H229329   7.529   7.691  18.512 -1.5357 -1.5421  2.5145
 1712TIP3   OH229330   2.149   6.777  17.906  0.3779 -0.3687 -0.0555
 1712TIP3    H129331   2.074   6.721  17.884 -1.5422  1.7429  0.6995
 1712TIP3    H229332   2.216   6.754  17.842 -0.8296 -2.4770 -0.6640
 1713TIP3   OH229333   5.161   5.892  17.343 -0.3361  1.0827 -0.3375
 1713TIP3    H129334   5.096   5.825  17.323  1.4064 -0.4235 -1.2183
 1713TIP3    H229335   5.163   5.897  17.439 -1.6253  1.0735 -0.2952
 1714TIP3   OH229336   1.657   0.018  18.076 -0.1142  0.2307  0.4776
 1714TIP3    H129337   1.664  -0.042  18.150 -0.4407  0.6006  0.8103
 1714TIP3    H229338   1.565   0.014  18.049 -0.0547  0.2938  0.2577
 1715TIP3   OH229339   3.639   5.350  17.906  0.1170  0.4084 -0.0133
 1715TIP3    H129340   3.643   5.444  17.889  0.5993  0.7028  1.5852
 1715TIP3    H229341   3.651   5.310  17.820 -0.7061  1.7971 -0.8228
 1716TIP3   OH229342   4.732   3.024  17.678  0.0393  0.4089 -0.2189
 1716TIP3    H129343   4.804   2.988  17.625  1.0763  3.1761 -0.8336
 1716TIP3    H229344   4.742   2.980  17.763  0.1674 -1.9147 -1.3354
 1717TIP3   OH229345   6.936   2.438  18.416 -0.4584  0.1565 -0.3406
 1717TIP3    H129346   6.927   2.365  18.477  0.1469  0.9464  0.7396
 1717TIP3    H229347   6.872   2.420  18.347 -0.2061 -1.4575 -0.1894
 1718TIP3   OH229348   0.104   4.387  17.599 -0.1559  0.3334 -0.8780
 1718TIP3    H129349   0.040   4.380  17.528  1.1027  0.2767 -2.0250
 1718TIP3    H229350   0.167   4.451  17.568  2.3126 -2.1578 -1.3472
 1719TIP3   OH229351   3.415   7.099  17.698  0.3677  0.2239 -0.7930
 1719TIP3    H129352   3.416   7.145  17.615 -0.0320 -2.0624 -2.1464
 1719TIP3    H229353   3.454   7.013  17.679  0.7642 -0.1902  1.5036
 1720TIP3   OH229354   3.134   5.248  16.627  0.2886  0.1318  0.6910
 1720TIP3    H129355   3.145   5.188  16.700 -0.3999  0.7766  1.3405
 1720TIP3    H229356   3.182   5.207  16.555 -0.3966 -1.3399  1.0249
 1721TIP3   OH229357   5.546   3.604  19.313  0.4690  0.7150  0.2780
 1721TIP3    H129358   5.616   3.669  19.309 -1.5378  3.0415  0.6957
 1721TIP3    H229359   5.504   3.619  19.398 -0.9452 -0.1589 -0.2310
 1722TIP3   OH229360   6.064   0.877  18.313  0.0344  0.3923  0.0023
 1722TIP3    H129361   5.968   0.880  18.313  0.0454  1.5987 -1.0160
 1722TIP3    H229362   6.087   0.846  18.225  0.5850  1.3239 -0.1881
 1723TIP3   OH229363   1.756   0.730  17.133 -0.7744  0.1745  0.0965
 1723TIP3    H129364   1.741   0.643  17.096  0.7022  0.2332 -0.7237
 1723TIP3    H229365   1.744   0.790  17.059 -0.0649  0.5096  0.2469
 1724TIP3   OH229366   7.336   4.258  17.745  0.4258  0.1741 -0.4139
 1724TIP3    H129367   7.431   4.261  17.751  0.4450  3.1573 -0.9326
 1724TIP3    H229368   7.317   4.270  17.652 -0.4941 -1.4334 -0.4709
 1725TIP3   OH229369   0.166   0.709  19.221  0.1048 -0.5504 -0.2566
 1725TIP3    H129370   0.171   0.801  19.194  0.1016 -0.6138 -0.4751
 1725TIP3    H229371   0.092   0.706  19.281 -0.6673 -0.6366 -1.1856
 1726TIP3   OH229372   6.885   5.940  18.872  0.8156 -0.5325 -0.4917
 1726TIP3    H129373   6.873   5.845  18.869 -0.6398 -0.3532 -1.6757
 1726TIP3    H229374   6.829   5.969  18.943  1.8789 -0.6028  0.4066
 1727TIP3   OH229375   2.200   1.219  18.143 -0.3100 -0.3138  0.0386
 1727TIP3    H129376   2.240   1.155  18.202 -0.2988  0.1318  0.5297
 1727TIP3    H229377   2.106   1.210  18.157 -0.3824 -1.1779 -0.9212
 1728TIP3   OH229378   6.232   2.929  17.662  0.4134  0.7294 -0.1835
 1728TIP3    H129379   6.247   2.950  17.570  0.1081  1.2577 -0.1157
 1728TIP3    H229380   6.189   3.007  17.698 -2.1388 -0.5361 -0.2764
 1729TIP3   OH229381   3.856   1.932  17.430  0.4905 -0.5587  0.3556
 1729TIP3    H129382   3.770   1.974  17.438  1.4646  1.5610  0.4849
 1729TIP3    H229383   3.889   1.928  17.519  0.3205 -1.8886  0.3752
 1730TIP3   OH229384   6.523   2.115  19.484 -0.2646  0.4917 -0.1100
 1730TIP3    H129385   6.545   2.179  19.551  0.6191  0.1414 -0.0552
 1730TIP3    H229386   6.596   2.053  19.484 -0.4223  0.2821 -1.1477
 1731TIP3   OH229387   2.003   1.361  17.779 -0.3871 -0.2806  0.4187
 1731TIP3    H129388   2.023   1.448  17.745  1.3846 -0.4944  0.8210
 1731TIP3    H229389   1.976   1.310  17.703  2.4982 -0.4628 -0.6125
 1732TIP3   OH229390   2.922   0.945  19.278 -0.4973 -0.0048 -0.2033
 1732TIP3    H129391   2.988   0.996  19.231  0.0981 -1.3415 -0.8470
 1732TIP3    H229392   2.841   0.961  19.231  0.4642 -3.1630 -3.3162
 1733TIP3   OH229393   3.213   0.177  17.411  0.1150 -0.0619  0.0230
 1733TIP3    H129394   3.209   0.248  17.475  1.5721 -0.4217  0.5376
 1733TIP3    H229395   3.175   0.101  17.457  1.7170 -0.4792  0.7252
 1734TIP3   OH229396   1.501   0.383  18.472  0.2214 -0.0008 -0.0916
 1734TIP3    H129397   1.501   0.359  18.380  0.3660 -0.7847  0.1025
 1734TIP3    H229398   1.453   0.313  18.515 -1.6100  1.3582  0.1949
 1735TIP3   OH229399   3.935   1.205  17.925  0.6533  0.0361  0.6468
 1735TIP3    H129400   4.003   1.256  17.969  0.2511  0.4388  0.8064
 1735TIP3    H229401   3.981   1.130  17.889  1.0645 -0.0728  1.3795
 1736TIP3   OH229402   4.441   5.817  18.978 -0.1731 -0.1459  0.2183
 1736TIP3    H129403   4.476   5.732  19.006 -0.8748 -0.2258  0.9099
 1736TIP3    H229404   4.457   5.821  18.884  0.0374 -0.9660  0.2144
 1737TIP3   OH229405   4.620   2.869  19.596 -0.0369 -0.7609 -0.3481
 1737TIP3    H129406   4.539   2.833  19.632  0.1657 -0.8191  0.0608
 1737TIP3    H229407   4.674   2.792  19.576 -0.6585 -0.7942 -2.0463
 1738TIP3   OH229408   2.939   5.906  18.813  0.4684  0.5946  0.2210
 1738TIP3    H129409   2.907   5.906  18.903 -0.5351  1.2846 -0.1148
 1738TIP3    H229410   2.941   5.814  18.787  1.2256  0.3556  1.0913
 1739TIP3   OH229411   2.352   4.803  19.144  0.0755  0.1675 -0.1285
 1739TIP3    H129412   2.310   4.880  19.183  0.7992  0.7987 -0.5594
 1739TIP3    H229413   2.283   4.737  19.140 -1.0532  1.3748 -1.4262
 1740TIP3   OH229414   4.575   6.765  18.240 -0.2936  0.0908 -0.0600
 1740TIP3    H129415   4.564   6.853  18.278 -1.6991 -0.2661  0.3935
 1740TIP3    H229416   4.600   6.782  18.150  0.4908  0.9571  0.3016
 1741TIP3   OH229417   1.520   6.858  17.778 -0.2160 -0.0663 -0.5348
 1741TIP3    H129418   1.490   6.769  17.795  0.0665 -0.0579  0.0159
 1741TIP3    H229419   1.440   6.910  17.773 -0.5089 -0.6092 -2.5290
 1742TIP3   OH229420   7.162   2.712  18.176 -0.1341  0.8587  0.0784
 1742TIP3    H129421   7.067   2.726  18.179 -0.1916  0.4084  0.5894
 1742TIP3    H229422   7.199   2.800  18.184 -0.5061  0.9252  1.4237
 1743TIP3   OH229423   6.364   4.184  19.171 -0.2719  0.0469  0.1496
 1743TIP3    H129424   6.374   4.092  19.197 -0.9696 -0.7024 -2.0618
 1743TIP3    H229425   6.453   4.218  19.169 -0.0500 -0.3756  1.5797
 1744TIP3   OH229426   0.712   2.250  17.388 -0.4002 -0.8076  0.2403
 1744TIP3    H129427   0.797   2.230  17.348  2.0888  3.3070  2.7315
 1744TIP3    H229428   0.713   2.205  17.472  0.4532  0.9524  1.2319
 1745TIP3   OH229429   4.110   6.894  18.707  0.3151  0.3455 -0.0016
 1745TIP3    H129430   4.133   6.921  18.618  2.3404  0.6905  0.5662
 1745TIP3    H229431   4.065   6.970  18.744  0.7998  0.7686 -0.2677
 1746TIP3   OH229432   1.563   0.655  18.914  0.3432 -0.2056 -0.4785
 1746TIP3    H129433   1.633   0.589  18.916 -0.3537 -0.9710 -0.3786
 1746TIP3    H229434   1.488   0.610  18.954 -0.8911 -0.2282 -2.6615
 1747TIP3   OH229435   5.262   6.645  18.319 -0.6254 -0.1971 -0.5978
 1747TIP3    H129436   5.196   6.666  18.386  0.2060  0.7383 -0.0513
 1747TIP3    H229437   5.328   6.594  18.366 -0.1309  0.3025 -0.7431
 1748TIP3   OH229438   7.500   6.462  17.300  0.6193 -0.0339  0.3707
 1748TIP3    H129439   7.440   6.526  17.338  0.0117 -0.1388 -0.3873
 1748TIP3    H229440   7.541   6.507  17.226  0.9016 -0.2119  0.4143
 1749TIP3   OH229441   3.968   0.708  17.168 -0.6596 -0.5211 -0.0388
 1749TIP3    H129442   3.881   0.712  17.128 -0.4576 -2.0345 -0.7056
 1749TIP3    H229443   4.027   0.688  17.096 -0.3201 -3.6368  0.9327
 1750TIP3   OH229444   5.232   2.248  18.264  0.2911  0.1610  0.3372
 1750TIP3    H129445   5.285   2.168  18.268 -0.8096 -0.5686  1.1559
 1750TIP3    H229446   5.141   2.216  18.264 -0.1946  1.4250  1.7009
 1751TIP3   OH229447   4.433   7.309  17.991  0.0162  0.7239 -0.6159
 1751TIP3    H129448   4.342   7.332  17.976 -0.5038 -1.0870 -0.5144
 1751TIP3    H229449   4.467   7.286  17.904 -0.5477 -1.5456 -0.2965
 1752TIP3   OH229450   5.308   4.504  17.562 -0.0292 -0.0728  0.0794
 1752TIP3    H129451   5.277   4.420  17.595 -1.8195  0.7206  0.5120
 1752TIP3    H229452   5.228   4.554  17.544  0.9896  1.3990 -0.5404
 1753TIP3   OH229453   4.026   5.245  18.635  0.1516 -0.0580  0.5068
 1753TIP3    H129454   3.950   5.214  18.684  0.4649 -0.6660  0.6246
 1753TIP3    H229455   3.990   5.302  18.567 -0.4086 -0.3581  0.5491
 1754TIP3   OH229456   0.369   1.698  19.509  0.0924  0.2757 -0.4361
 1754TIP3    H129457   0.288   1.745  19.526  0.2040  0.1932  0.3797
 1754TIP3    H229458   0.344   1.625  19.452 -0.7478 -0.8058  1.2246
 1755TIP3   OH229459   1.261   1.963  18.341  0.2462 -0.0565 -0.1528
 1755TIP3    H129460   1.319   1.887  18.347  0.9781  0.4034 -1.1127
 1755TIP3    H229461   1.249   1.976  18.247 -2.5889 -0.9854 -0.0372
 1756TIP3   OH229462   0.432   3.630  19.156 -0.2691 -0.5687 -0.1899
 1756TIP3    H129463   0.432   3.621  19.060 -0.3382  1.3391 -0.3991
 1756TIP3    H229464   0.377   3.706  19.173 -1.6451 -1.8654  1.5202
 1757TIP3   OH229465   2.340   4.250  17.581 -0.1330  0.0195  0.2591
 1757TIP3    H129466   2.255   4.251  17.624 -0.0697  2.7542  0.5051
 1757TIP3    H229467   2.400   4.217  17.648 -0.6563  0.4133  0.9373
 1758TIP3   OH229468   3.751   4.414  17.384 -0.0965 -0.5566  0.4953
 1758TIP3    H129469   3.847   4.410  17.382 -0.0664  0.3810 -0.0164
 1758TIP3    H229470   3.730   4.506  17.374 -1.1241 -0.9904 -2.3924
 1759TIP3   OH229471   5.952   2.650  19.071  0.2028  0.0374 -0.1155
 1759TIP3    H129472   5.862   2.681  19.084  0.4680  2.0274 -2.4034
 1759TIP3    H229473   5.955   2.623  18.979  2.0280  0.3358 -0.1710
 1760TIP3   OH229474   1.578   1.084  18.364 -0.6214  1.1540 -0.8162
 1760TIP3    H129475   1.517   1.010  18.363 -0.3405  0.9159 -2.6206
 1760TIP3    H229476   1.662   1.046  18.388 -1.0143  1.3847  1.0707
 1761TIP3   OH229477   0.783   5.229  19.199 -0.1706 -0.3440 -0.1183
 1761TIP3    H129478   0.860   5.178  19.172  0.4854  1.8419 -2.7958
 1761TIP3    H229479   0.717   5.210  19.132 -0.4358  1.0880 -0.2911
 1762TIP3   OH229480   2.387   5.555  19.470 -0.2451  0.6015  0.5892
 1762TIP3    H129481   2.479   5.531  19.478 -0.2797  0.6977  1.3634
 1762TIP3    H229482   2.339   5.483  19.510 -0.5829  0.0263 -0.7971
 1763TIP3   OH229483   2.357   2.680  19.354  0.5260 -0.1662  0.8693
 1763TIP3    H129484   2.361   2.769  19.320  0.0320 -0.9225 -1.3165
 1763TIP3    H229485   2.445   2.662  19.387  1.3461  0.2661 -1.0032
 1764TIP3   OH229486   3.745   4.718  18.266 -0.1849  0.0410  0.4401
 1764TIP3    H129487   3.775   4.758  18.348  0.0745  0.4419  0.1567
 1764TIP3    H229488   3.676   4.657  18.293 -0.3846  0.4669  0.9159
 1765TIP3   OH229489   2.891   7.022  18.144 -0.0929 -0.0470 -0.3029
 1765TIP3    H129490   2.903   6.938  18.188  1.1970 -0.0592 -0.6146
 1765TIP3    H229491   2.974   7.068  18.157 -1.2892  1.8304  1.1523
 1766TIP3   OH229492   1.438   2.575  17.692  0.2888  0.3761  0.3130
 1766TIP3    H129493   1.431   2.485  17.661 -1.5500  0.3966  0.5728
 1766TIP3    H229494   1.454   2.566  17.786  0.4110  0.3240  0.2878
 1767TIP3   OH229495   6.172   5.477  17.511 -0.0937  0.3095  0.2246
 1767TIP3    H129496   6.205   5.514  17.593  1.5301  0.1871 -0.3350
 1767TIP3    H229497   6.122   5.548  17.471 -1.4979  0.1463  1.6152
 1768TIP3   OH229498   6.081   2.081  18.320  0.0302  0.1819  0.0219
 1768TIP3    H129499   6.146   2.018  18.288 -1.7469 -1.2683 -0.9489
 1768TIP3    H229500   6.006   2.070  18.261 -0.6673  2.6415  0.3601
 1769TIP3   OH229501   5.392   3.427  18.622 -0.5302  0.1508 -0.1495
 1769TIP3    H129502   5.481   3.448  18.648 -0.0501 -1.2108 -0.6062
 1769TIP3    H229503   5.338   3.451  18.697  0.2878  0.4553  0.3469
 1770TIP3   OH229504   0.153   2.520  17.758 -0.0818 -0.1760 -0.2421
 1770TIP3    H129505   0.246   2.535  17.746  0.4017  0.1800  2.9540
 1770TIP3    H229506   0.111   2.577  17.694  1.9030  2.3114  0.5060
 1771TIP3   OH229507   1.326   5.050  18.102 -0.0174 -0.0692 -0.2371
 1771TIP3    H129508   1.386   5.050  18.176 -0.3104  0.9278  0.0226
 1771TIP3    H229509   1.249   5.099  18.133 -0.6964 -0.7695 -0.7697
 1772TIP3   OH229510   2.022   6.017  19.042 -0.3880  0.2350 -0.2867
 1772TIP3    H129511   1.938   6.063  19.038 -1.0408 -0.8189  0.6727
 1772TIP3    H229512   2.002   5.927  19.018  0.4684 -0.0414 -0.0188
 1773TIP3   OH229513   3.920   2.328  17.185 -0.2484 -0.2946  0.1439
 1773TIP3    H129514   3.982   2.266  17.223  0.7107  2.1191  2.8282
 1773TIP3    H229515   3.973   2.382  17.127 -0.9773 -1.4692 -1.7327
 1774TIP3   OH229516   2.149   3.816  19.223 -0.1938  0.3402 -0.5539
 1774TIP3    H129517   2.223   3.761  19.197 -0.7087 -1.1114  0.9128
 1774TIP3    H229518   2.144   3.806  19.318 -1.4388  1.5165 -0.4694
 1775TIP3   OH229519   0.421   4.260  16.824  0.2487  0.2006  0.6347
 1775TIP3    H129520   0.515   4.277  16.834  0.2550  0.1621  0.6399
 1775TIP3    H229521   0.388   4.338  16.779  0.5380 -0.4313 -0.7016
 1776TIP3   OH229522   3.313   5.816  17.215 -0.3041  0.5433  0.1799
 1776TIP3    H129523   3.239   5.821  17.154  0.2316  0.0662 -0.5319
 1776TIP3    H229524   3.389   5.837  17.161  0.2752 -0.6643  0.4877
 1777TIP3   OH229525   4.105   4.894  18.488  0.3486  0.1294 -0.2657
 1777TIP3    H129526   4.107   4.836  18.411 -2.3445  0.0381 -0.3495
 1777TIP3    H229527   4.013   4.913  18.502  0.9564  2.3927  1.3228
 1778TIP3   OH229528   4.901   1.771  19.113  0.2268  0.4169 -0.0721
 1778TIP3    H129529   4.956   1.812  19.047  1.0680  0.6501  0.7560
 1778TIP3    H229530   4.814   1.768  19.073  0.4976  1.5201 -0.7802
 1779TIP3   OH229531   2.216   4.023  19.685  0.2776  0.4719 -0.7502
 1779TIP3    H129532   2.257   4.010  19.770 -0.3525  2.0115 -0.1859
 1779TIP3    H229533   2.282   4.066  19.632  1.6671 -2.8399 -2.0036
 1780TIP3   OH229534   4.496   3.102  17.506 -0.1775  0.2004  0.3962
 1780TIP3    H129535   4.495   3.042  17.431 -0.4868  0.5582  0.1116
 1780TIP3    H229536   4.583   3.090  17.545  0.2433  0.5131 -0.4279
 1781TIP3   OH229537   5.272   6.814  19.256  0.4674  0.3058  0.0808
 1781TIP3    H129538   5.219   6.875  19.203  0.0035  0.0735  0.2720
 1781TIP3    H229539   5.350   6.798  19.202  1.0166  1.7460  0.4090
 1782TIP3   OH229540   5.612   0.133  18.655 -0.4803  0.1949 -0.1585
 1782TIP3    H129541   5.665   0.144  18.576  0.0168 -0.9892 -0.0179
 1782TIP3    H229542   5.653   0.061  18.702 -2.1495 -0.7070  0.0129
 1783TIP3   OH229543   2.414   4.802  17.328  0.0529 -0.4261  0.3369
 1783TIP3    H129544   2.490   4.831  17.380 -0.2859  0.1432  0.5244
 1783TIP3    H229545   2.415   4.707  17.336  0.9305 -0.4487  0.0829
 1784TIP3   OH229546   5.379   7.549  16.925 -0.2279 -0.1147  0.3165
 1784TIP3    H129547   5.376   7.471  16.980 -0.7084 -0.8198 -0.6661
 1784TIP3    H229548   5.299   7.544  16.873 -0.6317  1.4368  0.7571
 1785TIP3   OH229549   5.672   0.996  18.563  0.1193 -0.0511 -0.4591
 1785TIP3    H129550   5.579   0.987  18.544  0.0105 -1.0778  0.4783
 1785TIP3    H229551   5.716   0.960  18.486 -0.1968  2.1411 -1.7393
 1786TIP3   OH229552   3.404   0.440  19.472 -0.3782  0.0684  0.1472
 1786TIP3    H129553   3.475   0.477  19.524 -0.2785 -1.1251  0.9019
 1786TIP3    H229554   3.325   0.485  19.502 -0.0790  0.6456  0.0633
 1787TIP3   OH229555   5.661   3.425  18.944  0.2767  0.1624 -0.1188
 1787TIP3    H129556   5.582   3.448  18.992 -0.2034  1.1285 -1.3017
 1787TIP3    H229557   5.695   3.347  18.988 -0.8239  0.2738  0.9679
 1788TIP3   OH229558   1.576   1.424  18.687  0.3175  0.2083 -0.1592
 1788TIP3    H129559   1.520   1.447  18.614 -0.1464 -0.7012 -0.0988
 1788TIP3    H229560   1.573   1.328  18.692  0.9391  0.2086  0.5739
 1789TIP3   OH229561   5.871   2.755  17.244  0.5058  0.3322  0.0212
 1789TIP3    H129562   5.875   2.788  17.334  0.9552 -0.9913  0.5089
 1789TIP3    H229563   5.778   2.749  17.224  0.3774 -0.5454  0.8575
 1790TIP3   OH229564   5.115   6.341  17.047  0.2698  0.3199 -0.3938
 1790TIP3    H129565   5.111   6.398  16.969  1.3005  0.5993 -0.2568
 1790TIP3    H229566   5.077   6.395  17.117  1.5938  1.0224 -0.1793
 1791TIP3   OH229567   1.095   4.525  17.347  0.2062  0.1174 -0.0539
 1791TIP3    H129568   1.016   4.547  17.297  0.7913  0.6368 -0.7845
 1791TIP3    H229569   1.111   4.432  17.328  0.0687  0.1512 -0.3396
 1792TIP3   OH229570   5.263   2.853  16.673 -0.7706 -0.3879 -0.3205
 1792TIP3    H129571   5.345   2.824  16.636 -0.5035 -0.2434  0.1415
 1792TIP3    H229572   5.202   2.856  16.599  0.3641  2.3068 -1.2843
 1793TIP3   OH229573   0.728   0.927  17.864 -0.0211 -0.6726  0.1137
 1793TIP3    H129574   0.671   0.889  17.931 -3.4193 -0.1225 -2.1694
 1793TIP3    H229575   0.706   1.021  17.864  1.3009 -0.3340 -0.5497
 1794TIP3   OH229576   2.571   1.622  17.431 -0.1961  0.0011  0.3593
 1794TIP3    H129577   2.592   1.560  17.501 -1.9335 -0.5509  0.4447
 1794TIP3    H229578   2.565   1.707  17.475  3.5321  0.5861  0.0328
 1795TIP3   OH229579   2.546   2.537  17.090 -0.0147 -0.2861  0.4410
 1795TIP3    H129580   2.632   2.563  17.123  0.0733 -2.2463  2.0029
 1795TIP3    H229581   2.556   2.444  17.068 -1.6461 -0.4991  0.4454
 1796TIP3   OH229582   5.057   7.499  19.202  0.2173 -0.1887 -0.2190
 1796TIP3    H129583   5.106   7.572  19.241 -1.1587 -0.4022  2.0905
 1796TIP3    H229584   4.984   7.541  19.157 -1.8992 -0.0573  3.0239
 1797TIP3   OH229585   5.652   5.173  18.093  0.2151  0.5611  0.2622
 1797TIP3    H129586   5.679   5.140  18.179 -3.0329 -1.1805  0.7714
 1797TIP3    H229587   5.622   5.262  18.110 -0.9096  0.0481  1.1164
 1798TIP3   OH229588   0.587   2.203  16.467 -0.7388  0.3456 -0.1598
 1798TIP3    H129589   0.672   2.217  16.427 -0.9635 -0.2675 -0.8557
 1798TIP3    H229590   0.525   2.209  16.395 -1.2706  0.5140  0.3012
 1799TIP3   OH229591   4.982   0.307  17.365  0.7417 -0.7335  0.1257
 1799TIP3    H129592   4.914   0.285  17.428  0.3036  0.5933  0.1470
 1799TIP3    H229593   4.973   0.401  17.352  2.4696 -0.5607 -0.0102
 1800TIP3   OH229594   1.868   5.612  18.445  0.1624 -0.4912 -0.6031
 1800TIP3    H129595   1.838   5.663  18.370 -0.3223 -1.6502 -1.2260
 1800TIP3    H229596   1.815   5.643  18.518 -1.0777 -1.0022 -1.2482
 1801TIP3   OH229597   5.249   3.507  18.875 -0.1264  0.0565  0.3783
 1801TIP3    H129598   5.285   3.503  18.964 -0.9183 -0.9717  0.6600
 1801TIP3    H229599   5.169   3.456  18.879 -0.3763  0.3320 -0.8454
 1802TIP3   OH229600   1.002   4.676  16.391  0.5828 -0.0621 -0.3921
 1802TIP3    H129601   1.048   4.602  16.432 -1.2522 -1.1139 -0.1008
 1802TIP3    H229602   1.001   4.655  16.297  0.2072 -0.3435 -0.3286
 1803TIP3   OH229603   4.914   4.646  19.095 -0.2356 -1.1744 -0.5010
 1803TIP3    H129604   4.981   4.589  19.132 -0.3040 -1.3277 -0.6109
 1803TIP3    H229605   4.831   4.603  19.117 -0.4924  0.4649  2.1664
 1804TIP3   OH229606   6.860   5.158  19.472 -0.7649  0.0695 -0.2434
 1804TIP3    H129607   6.852   5.079  19.524 -1.0856 -0.5011 -1.1308
 1804TIP3    H229608   6.939   5.201  19.504  0.4149 -1.5158 -0.9388
 1805TIP3   OH229609   6.592   6.863  17.665  0.0706  0.0782 -0.8013
 1805TIP3    H129610   6.661   6.926  17.643  1.8251 -1.1681  0.7610
 1805TIP3    H229611   6.634   6.777  17.653 -1.2591 -0.7228  0.0848
 1806TIP3   OH229612   3.216   1.007  17.121  0.0830  0.5468 -0.0848
 1806TIP3    H129613   3.172   1.030  17.039 -2.2135  2.5617  1.5560
 1806TIP3    H229614   3.183   0.919  17.141  0.8824 -0.0864 -1.3820
 1807TIP3   OH229615   2.780   5.676  18.720 -0.3804  0.1352 -0.5375
 1807TIP3    H129616   2.741   5.628  18.793  0.6349 -1.6400 -1.0898
 1807TIP3    H229617   2.745   5.765  18.728  1.7156  0.8433  3.7142
 1808TIP3   OH229618   5.884   0.905  17.039  0.0561 -0.0436 -0.8190
 1808TIP3    H129619   5.946   0.843  17.078  2.6237  1.6823 -1.9106
 1808TIP3    H229620   5.870   0.872  16.950 -0.8200 -0.5432 -0.5097
 1809TIP3   OH229621   7.210   7.445  19.063 -0.4605 -0.0398 -0.0802
 1809TIP3    H129622   7.194   7.519  19.121  1.0345  0.6304 -0.4705
 1809TIP3    H229623   7.271   7.390  19.112  0.1450  0.1043 -0.6664
 1810TIP3   OH229624   6.094   4.736  18.030 -0.3632 -0.3468 -0.0924
 1810TIP3    H129625   6.007   4.776  18.037 -1.0990 -2.1206  1.7837
 1810TIP3    H229626   6.150   4.791  18.085 -0.2471  0.7766 -1.2732
 1811TIP3   OH229627   7.152   3.133  18.066  0.7165  0.2068 -0.4315
 1811TIP3    H129628   7.181   3.224  18.066  0.2690  0.3534 -0.9031
 1811TIP3    H229629   7.231   3.082  18.047  1.1215  0.4346  0.5610
 1812TIP3   OH229630   6.602   4.599  19.330 -0.1949  0.1349 -0.0161
 1812TIP3    H129631   6.607   4.664  19.399  0.6167  1.1301 -0.9792
 1812TIP3    H229632   6.508   4.581  19.321 -0.7128  3.0181 -1.3640
 1813TIP3   OH229633   3.441   6.508  19.240 -0.2751  0.3624 -0.6690
 1813TIP3    H129634   3.440   6.420  19.278 -0.0729  1.0854  1.0890
 1813TIP3    H229635   3.350   6.537  19.245 -0.2158  0.5309 -0.5660
 1814TIP3   OH229636   1.722   1.859  17.358 -0.2394 -0.1357 -0.2206
 1814TIP3    H129637   1.665   1.920  17.404 -0.4465  0.2300 -0.9410
 1814TIP3    H229638   1.790   1.838  17.421 -0.2059  0.7840  0.0692
 1815TIP3   OH229639   2.247   0.144  18.628 -0.7350 -0.0511 -0.0113
 1815TIP3    H129640   2.153   0.148  18.608 -1.0039  0.0530  1.1736
 1815TIP3    H229641   2.250   0.132  18.723  0.4515 -0.7369 -0.1245
 1816TIP3   OH229642   3.750   2.564  18.023  0.0058 -0.2472  0.4474
 1816TIP3    H129643   3.655   2.554  18.028  0.1307 -1.2342  1.1140
 1816TIP3    H229644   3.762   2.648  17.980 -1.1713 -0.0861  0.3787
 1817TIP3   OH229645   0.562   4.887  19.542 -0.0560  0.4154 -0.2222
 1817TIP3    H129646   0.621   4.958  19.518  0.5438  0.0923  0.2722
 1817TIP3    H229647   0.619   4.819  19.578 -0.7547  0.2427  0.6018
 1818TIP3   OH229648   1.822   7.028  19.240 -0.0060 -0.1679 -0.4562
 1818TIP3    H129649   1.884   7.097  19.262 -1.8570  1.3755  0.2597
 1818TIP3    H229650   1.755   7.072  19.188 -1.0530 -1.5236 -0.3149
 1819TIP3   OH229651   4.013   0.166  18.458 -0.2280 -0.1713 -0.5018
 1819TIP3    H129652   3.929   0.199  18.488  0.8462  0.7863  1.6309
 1819TIP3    H229653   4.015   0.074  18.487 -1.1031 -0.6603 -1.8888
 1820TIP3   OH229654   6.848   4.017  18.775  0.6159  0.3819  0.5240
 1820TIP3    H129655   6.793   4.029  18.698 -0.4502  0.4780  1.2780
 1820TIP3    H229656   6.861   3.922  18.781  1.0133  0.3987  0.0315
 1821TIP3   OH229657   1.113   4.960  16.846 -0.2544  0.3701  0.0144
 1821TIP3    H129658   1.055   4.929  16.915  0.2659 -1.8837 -0.5022
 1821TIP3    H229659   1.104   4.896  16.776  1.8013  0.7284 -0.6477
 1822TIP3   OH229660   1.450   5.249  18.983 -0.3580 -0.4904  0.1272
 1822TIP3    H129661   1.393   5.312  18.941  1.6040  0.7956 -0.7619
 1822TIP3    H229662   1.524   5.301  19.014  1.1521 -2.2747 -0.2932
 1823TIP3   OH229663   6.750   3.941  17.384  0.1800 -0.3108  0.6689
 1823TIP3    H129664   6.746   3.945  17.480  0.1742  0.3366  0.6508
 1823TIP3    H229665   6.668   3.982  17.355  0.5403  0.2214  0.3864
 1824TIP3   OH229666   5.295   7.140  18.385 -0.1916 -0.5435  0.1387
 1824TIP3    H129667   5.347   7.216  18.361 -0.1534 -1.0479 -1.4671
 1824TIP3    H229668   5.359   7.071  18.403 -0.2742 -0.9393 -1.0503
 1825TIP3   OH229669   1.566   1.882  17.658 -0.4221  0.1842 -0.1601
 1825TIP3    H129670   1.557   1.788  17.673 -2.4657  0.0322 -1.9300
 1825TIP3    H229671   1.491   1.921  17.704 -0.8907  0.6894 -1.3198
 1826TIP3   OH229672   4.874   6.824  17.114  0.7367  0.5241  0.2068
 1826TIP3    H129673   4.782   6.847  17.106  0.4872 -0.7434 -1.2487
 1826TIP3    H229674   4.890   6.767  17.038  2.1314 -1.1011  1.6323
 1827TIP3   OH229675   4.181   4.379  19.494  0.0880 -0.0831 -0.2721
 1827TIP3    H129676   4.241   4.405  19.564  0.5965 -1.5925 -0.1158
 1827TIP3    H229677   4.129   4.309  19.533 -0.3101 -0.2578 -1.1037
 1828TIP3   OH229678   1.426   6.436  19.440  0.0734 -0.4351  0.4446
 1828TIP3    H129679   1.434   6.340  19.438  0.7637 -0.3653 -0.4914
 1828TIP3    H229680   1.343   6.454  19.396  0.1374 -0.5840  0.2620
 1829TIP3   OH229681   5.546   2.450  17.426 -0.1049  0.6870  0.1284
 1829TIP3    H129682   5.530   2.475  17.517 -1.4106 -1.7965  0.6629
 1829TIP3    H229683   5.475   2.491  17.377 -0.8688 -0.0073  0.6312
 1830TIP3   OH229684   7.236   5.804  18.994  0.5243 -0.2425  0.5098
 1830TIP3    H129685   7.224   5.828  18.902  1.2636 -2.3566 -0.2075
 1830TIP3    H229686   7.256   5.886  19.038  2.1683  0.5901 -1.5835
 1831TIP3   OH229687   4.072   2.771  19.332  0.1818  0.0617 -0.1724
 1831TIP3    H129688   4.057   2.864  19.316 -2.2453 -0.3227 -0.5912
 1831TIP3    H229689   4.075   2.763  19.428 -1.0878  0.4323 -0.0751
 1832TIP3   OH229690   2.190   4.117  18.230  0.2298  0.6167  0.5894
 1832TIP3    H129691   2.177   4.113  18.325  0.3430  0.5917  0.6035
 1832TIP3    H229692   2.120   4.061  18.195  1.7362 -1.5367  0.7923
 1833TIP3   OH229693   3.132   6.648  18.987  0.1267 -0.3821 -0.5338
 1833TIP3    H129694   3.159   6.698  18.910  1.7596 -1.8392 -0.9550
 1833TIP3    H229695   3.094   6.568  18.951 -4.3606  1.2002  0.0464
 1834TIP3   OH229696   2.702   0.273  19.399  0.0130  0.4330 -0.5594
 1834TIP3    H129697   2.673   0.313  19.481  2.4185 -0.0858  0.6551
 1834TIP3    H229698   2.797   0.287  19.398  0.1854 -0.4999 -2.7650
 1835TIP3   OH229699   0.043   6.559  17.140 -0.1742 -0.2804 -0.0233
 1835TIP3    H129700   0.029   6.466  17.119  1.6987 -0.6950  0.4019
 1835TIP3    H229701   0.019   6.605  17.060 -0.0843 -1.2254 -0.6152
 1836TIP3   OH229702   1.345   7.212  19.519 -0.3173 -0.7002  0.2006
 1836TIP3    H129703   1.289   7.172  19.453  1.7590  0.7054 -2.6585
 1836TIP3    H229704   1.286   7.235  19.590 -3.2137 -0.2043 -2.1577
 1837TIP3   OH229705   3.912   1.275  17.383 -0.2350  0.4102 -0.4249
 1837TIP3    H129706   3.838   1.243  17.434 -0.4858  0.2168 -0.8994
 1837TIP3    H229707   3.976   1.204  17.386  0.5626  1.1510  1.2141
 1838TIP3   OH229708   4.200   2.396  18.245  0.6858 -0.0557  0.2035
 1838TIP3    H129709   4.113   2.403  18.207  0.2295 -0.1450  1.2048
 1838TIP3    H229710   4.256   2.448  18.188  0.1226 -0.6194 -0.8821
 1839TIP3   OH229711   2.170   2.376  19.067 -0.2347  0.4791  0.4523
 1839TIP3    H129712   2.188   2.283  19.049 -0.8548  0.4533 -0.0762
 1839TIP3    H229713   2.257   2.415  19.076  0.0485 -0.0235  0.0009
 1840TIP3   OH229714   6.692   3.319  19.075 -0.3068  0.4871  0.3062
 1840TIP3    H129715   6.712   3.394  19.019 -0.2612  0.5174  0.3644
 1840TIP3    H229716   6.629   3.267  19.024  0.9715 -0.3443 -0.4863
 1841TIP3   OH229717   6.452   2.516  18.381 -0.1615 -0.8511 -0.8029
 1841TIP3    H129718   6.389   2.445  18.369  0.7135 -2.1355  1.4490
 1841TIP3    H229719   6.427   2.556  18.465  0.3552  0.4481 -1.2473
 1842TIP3   OH229720   4.110   7.202  17.811 -0.1268  0.8223 -0.2018
 1842TIP3    H129721   4.189   7.166  17.769  1.2600  1.5571  1.6557
 1842TIP3    H229722   4.037   7.165  17.760  1.3959  1.1173 -2.7983
 1843TIP3   OH229723   0.262   5.945  19.074  0.2431  0.7420 -0.0484
 1843TIP3    H129724   0.205   5.965  18.999  0.7853  0.5681 -0.5207
 1843TIP3    H229725   0.219   5.987  19.149  0.1224  1.6472 -0.6031
 1844TIP3   OH229726   2.416   1.387  18.155  0.3196 -0.1991  0.0139
 1844TIP3    H129727   2.336   1.339  18.132 -0.2632  0.4677  0.6018
 1844TIP3    H229728   2.387   1.453  18.219  1.1123  0.8935 -0.7208
 1845TIP3   OH229729   3.732   1.510  18.173 -0.2352  0.4303 -0.4703
 1845TIP3    H129730   3.776   1.588  18.138 -0.7536  1.0606  0.2370
 1845TIP3    H229731   3.713   1.457  18.096  0.5332  0.7868 -0.9199
 1846TIP3   OH229732   0.483   1.339  19.492  0.5470  0.2304  0.3728
 1846TIP3    H129733   0.423   1.392  19.441 -0.8439 -0.9372  0.7396
 1846TIP3    H229734   0.485   1.381  19.578 -0.8904 -0.5175  0.7944
 1847TIP3   OH229735   0.452   3.044  18.117 -0.6018  0.2616  0.4205
 1847TIP3    H129736   0.510   2.969  18.102  0.6912  1.0128  1.4795
 1847TIP3    H229737   0.427   3.073  18.029 -0.3251 -0.7994 -0.0156
 1848TIP3   OH229738   2.752   6.936  18.669  0.1791 -0.7398 -0.3148
 1848TIP3    H129739   2.801   7.014  18.697 -0.1138  0.0372 -1.8798
 1848TIP3    H229740   2.661   6.956  18.689  0.3521 -2.1321  2.4625
 1849TIP3   OH229741   0.333   2.369  18.606  0.2186 -0.4101  0.3771
 1849TIP3    H129742   0.341   2.326  18.691 -1.2185  0.9285  1.2223
 1849TIP3    H229743   0.323   2.462  18.626  2.1040  0.2521 -1.3569
 1850TIP3   OH229744   2.753   4.276  17.893 -0.3260  0.8673  0.1793
 1850TIP3    H129745   2.740   4.210  17.825  0.7352  0.1152  0.6771
 1850TIP3    H229746   2.791   4.351  17.847  2.5099 -0.4267  0.2037
 1851TIP3   OH229747   4.775   7.529  18.926  0.5571  0.2703 -0.3073
 1851TIP3    H129748   4.698   7.505  18.873  0.6075  0.6868 -0.5750
 1851TIP3    H229749   4.849   7.517  18.866  0.7351 -0.4017  0.0319
 1852TIP3   OH229750   4.735   1.895  17.360 -0.4195  0.9399 -0.0630
 1852TIP3    H129751   4.719   1.989  17.347 -0.0818  0.7842 -1.7677
 1852TIP3    H229752   4.778   1.867  17.280  0.3765 -0.4889  0.8422
 1853TIP3   OH229753   3.731   7.327  17.793  0.7012 -0.4513 -0.0670
 1853TIP3    H129754   3.810   7.345  17.844  1.1923  0.9370 -1.2429
 1853TIP3    H229755   3.660   7.370  17.840  1.0759  0.4302 -0.2962
 1854TIP3   OH229756   0.629   4.753  18.557 -0.6128  0.0415  0.1853
 1854TIP3    H129757   0.637   4.770  18.651 -1.3598  1.7885 -0.0240
 1854TIP3    H229758   0.551   4.697  18.550  0.9075 -2.2961  0.7590
 1855TIP3   OH229759   7.438   3.395  17.684 -0.3178 -0.1189 -0.3766
 1855TIP3    H129760   7.426   3.472  17.739  0.7263  0.0603 -0.3823
 1855TIP3    H229761   7.518   3.413  17.634  1.1765 -2.0415  1.1368
 1856TIP3   OH229762   6.049   2.155  18.907 -0.3153 -0.2048 -0.1108
 1856TIP3    H129763   5.962   2.173  18.872  0.1443  1.4231 -0.5252
 1856TIP3    H229764   6.068   2.230  18.964  0.6536 -0.7236  0.2708
 1857TIP3   OH229765   2.633   0.804  18.936 -0.5443  0.8712 -0.7097
 1857TIP3    H129766   2.607   0.753  19.013 -0.2722  1.5528 -0.1502
 1857TIP3    H229767   2.726   0.820  18.947 -0.9706  3.1915  0.2081
 1858TIP3   OH229768   1.409   4.211  17.152  0.0465  0.0652  0.2124
 1858TIP3    H129769   1.415   4.167  17.236  0.3937  1.9747  1.2420
 1858TIP3    H229770   1.472   4.284  17.158  0.2068  0.1478 -1.7613
 1859TIP3   OH229771   7.193   0.044  18.418 -0.5031  0.1176  0.1539
 1859TIP3    H129772   7.212   0.010  18.505 -1.5708 -0.7254  0.0781
 1859TIP3    H229773   7.277   0.043  18.373 -0.0088  0.2292  1.0520
 1860TIP3   OH229774   5.151   0.335  18.688 -0.1125 -0.1519  0.1284
 1860TIP3    H129775   5.234   0.319  18.644  0.8592 -0.1718  1.8461
 1860TIP3    H229776   5.101   0.389  18.628  1.4223  0.4271 -0.6683
 1861TIP3   OH229777   0.012   1.007  18.841 -0.0926 -0.0759  0.8077
 1861TIP3    H129778   0.013   0.942  18.771  0.7779  0.7339  0.0602
 1861TIP3    H229779  -0.062   1.064  18.820  0.7865  0.7835 -0.0485
 1862TIP3   OH229780   2.131   7.052  17.982 -0.2165  0.6873  0.0191
 1862TIP3    H129781   2.182   7.050  18.063 -1.0503  0.4491  0.5486
 1862TIP3    H229782   2.119   6.961  17.959  1.1236  0.7718 -1.1006
 1863TIP3   OH229783   2.499   2.269  16.949  0.7181 -0.4530  0.3368
 1863TIP3    H129784   2.561   2.289  16.879  0.6142  0.5491  0.5148
 1863TIP3    H229785   2.513   2.177  16.968  0.8795 -0.6993 -0.8840
 1864TIP3   OH229786   2.244   4.976  17.448  0.1128 -0.2556 -0.6533
 1864TIP3    H129787   2.308   4.906  17.430  0.7762  0.0156  0.5761
 1864TIP3    H229788   2.191   4.980  17.368  1.4978 -0.6332 -1.6457
 1865TIP3   OH229789   1.763   3.534  18.010  0.3610 -0.1852 -0.1675
 1865TIP3    H129790   1.822   3.535  18.085  0.3622 -0.0943 -0.1699
 1865TIP3    H229791   1.688   3.586  18.039 -0.4718 -1.6521  0.4523
 1866TIP3   OH229792   1.165   5.280  18.144 -0.3573 -0.0313 -0.0111
 1866TIP3    H129793   1.147   5.282  18.238 -0.3522 -0.0778 -0.0094
 1866TIP3    H229794   1.110   5.209  18.110 -1.3233  0.7929 -0.2431
 1867TIP3   OH229795   3.382   3.367  19.490  0.5863  0.0186 -0.0683
 1867TIP3    H129796   3.305   3.311  19.486 -0.2663  1.2284 -1.8073
 1867TIP3    H229797   3.449   3.320  19.441  0.4831 -0.3292  0.1191
 1868TIP3   OH229798   7.412   0.141  16.971 -0.0066 -0.2277  0.3522
 1868TIP3    H129799   7.476   0.211  16.985 -0.9630  0.7166  0.1064
 1868TIP3    H229800   7.454   0.082  16.909  0.2181  0.9381 -0.6322
 1869TIP3   OH229801   6.261   2.412  17.336 -0.0154  0.1163 -0.0207
 1869TIP3    H129802   6.206   2.478  17.294  0.3605  0.4661  0.0306
 1869TIP3    H229803   6.241   2.418  17.429  0.7991  0.9104  0.1177
 1870TIP3   OH229804   5.989   5.605  18.541  0.0346 -0.1739  0.7396
 1870TIP3    H129805   6.048   5.529  18.543 -2.1175 -2.0269  3.9812
 1870TIP3    H229806   6.017   5.658  18.616  0.5265  1.5092 -0.5842
 1871TIP3   OH229807   6.435   1.926  18.424 -0.1766 -0.7803  0.4449
 1871TIP3    H129808   6.497   1.892  18.489  1.7503  0.2513 -0.7290
 1871TIP3    H229809   6.413   2.014  18.454  2.9733  0.8763 -1.5289
 1872TIP3   OH229810   5.300   3.889  17.419  0.2031  0.0695 -0.4187
 1872TIP3    H129811   5.357   3.832  17.368  0.1660  0.4278 -0.8588
 1872TIP3    H229812   5.257   3.830  17.482 -0.1233 -0.4525 -1.1171
 1873TIP3   OH229813   6.345   0.598  18.793  0.0272  0.2763 -0.1383
 1873TIP3    H129814   6.397   0.591  18.873 -1.6702  3.3892  1.4238
 1873TIP3    H229815   6.402   0.644  18.731 -0.1455  2.1772  1.0056
 1874TIP3   OH229816   5.908   0.073  18.961  0.2528 -0.3132  0.3115
 1874TIP3    H129817   5.990   0.078  19.009 -0.0322 -0.9614  0.8950
 1874TIP3    H229818   5.908   0.149  18.903  1.5439 -0.6438 -0.1561
 1875TIP3   OH229819   0.556   5.929  17.996  0.3213 -0.7401  0.7690
 1875TIP3    H129820   0.512   5.902  18.077 -1.5880  1.2809  0.4994
 1875TIP3    H229821   0.625   5.989  18.025  2.3299 -3.0842  1.1107
 1876TIP3   OH229822   0.207   6.233  17.262 -0.5704  0.6508 -0.3469
 1876TIP3    H129823   0.117   6.252  17.235 -0.4444  2.1102  0.1673
 1876TIP3    H229824   0.244   6.185  17.188 -1.3194  1.3522 -1.2043
 1877TIP3   OH229825   5.296   7.232  18.754  0.0132 -0.2822 -0.3607
 1877TIP3    H129826   5.373   7.258  18.805 -0.1639  0.3456 -0.4037
 1877TIP3    H229827   5.297   7.137  18.756  0.1605 -0.2689  0.5814
 1878TIP3   OH229828   1.193   2.792  17.686  0.7997  0.3283 -0.0597
 1878TIP3    H129829   1.164   2.782  17.596 -1.5812 -1.8248  0.8255
 1878TIP3    H229830   1.260   2.724  17.697  1.0321  0.5377 -0.1718
 1879TIP3   OH229831   1.328   2.284  17.320  0.0381 -0.2272 -0.1579
 1879TIP3    H129832   1.395   2.216  17.329 -1.2597 -1.4257  0.9201
 1879TIP3    H229833   1.314   2.291  17.225  2.3929  0.8443 -0.5064
 1880TIP3   OH229834   4.187   4.868  18.800  0.4140 -0.0428 -0.3416
 1880TIP3    H129835   4.100   4.862  18.760 -0.2501 -1.6660  1.2387
 1880TIP3    H229836   4.233   4.932  18.746 -2.4303  2.5626  0.0293
 1881TIP3   OH229837   2.576   2.229  18.916  0.2207 -0.0252  0.2664
 1881TIP3    H129838   2.638   2.295  18.947 -0.6754  0.4383  1.1530
 1881TIP3    H229839   2.624   2.146  18.922  0.1074  0.0117  3.0968
 1882TIP3   OH229840   2.081   1.520  18.075  0.4649 -0.4220 -0.3770
 1882TIP3    H129841   2.048   1.475  18.153  0.7920 -1.1035 -0.6208
 1882TIP3    H229842   2.008   1.520  18.014  0.4467 -0.5856 -0.3559
 1883TIP3   OH229843   2.330   6.312  18.081  0.5956 -0.2694 -0.0053
 1883TIP3    H129844   2.290   6.370  18.145  1.0322 -0.1906  0.2003
 1883TIP3    H229845   2.260   6.294  18.018  0.3475  0.1693  0.1385
 1884TIP3   OH229846   1.035   5.894  17.055 -0.2249 -0.2947 -0.0839
 1884TIP3    H129847   0.978   5.818  17.062 -1.8330  0.9759  1.4433
 1884TIP3    H229848   0.983   5.966  17.089  2.2023  0.9880  1.1370
 1885TIP3   OH229849   0.770   7.051  17.576  0.1700  0.6277  0.6116
 1885TIP3    H129850   0.750   7.060  17.669  0.6658  1.0642  0.6793
 1885TIP3    H229851   0.685   7.061  17.533 -0.4846 -1.9514  1.1177
 1886TIP3   OH229852   5.635   5.885  17.289  0.4025  0.1102 -0.2055
 1886TIP3    H129853   5.645   5.900  17.383 -0.1824 -1.3683  0.1089
 1886TIP3    H229854   5.627   5.973  17.252 -2.8552  0.6718  1.5190
 1887TIP3   OH229855   6.882   1.423  18.570  0.2173 -0.0375 -0.0468
 1887TIP3    H129856   6.860   1.515  18.584  0.0259  0.0461 -0.8713
 1887TIP3    H229857   6.857   1.380  18.652  0.5443  0.6773  0.4415
 1888TIP3   OH229858   1.683   2.448  18.142 -0.3043  0.8820  0.8910
 1888TIP3    H129859   1.736   2.515  18.187  1.8185 -0.3560  0.3902
 1888TIP3    H229860   1.731   2.367  18.156 -2.7578 -0.5854  1.3802
 1889TIP3   OH229861   1.631   0.578  18.624 -0.2099 -0.0350  0.4054
 1889TIP3    H129862   1.594   0.508  18.569  0.0380  0.7706 -0.8241
 1889TIP3    H229863   1.557   0.635  18.643  0.0756  0.7981 -0.8516
 1890TIP3   OH229864   5.154   4.809  17.099  0.0694 -0.5829 -0.2715
 1890TIP3    H129865   5.144   4.821  17.194  2.2719 -2.5166  0.3246
 1890TIP3    H229866   5.153   4.898  17.063  1.0561  0.3501  1.8290
 1891TIP3   OH229867   5.280   2.747  19.952 -0.0716  0.2285 -0.2871
 1891TIP3    H129868   5.336   2.726  19.877 -1.2221  0.2259 -1.1753
 1891TIP3    H229869   5.279   2.843  19.954  0.1892  0.2282 -0.0905
 1892TIP3   OH229870   7.162   6.479  18.133  0.6508  0.6336  0.2448
 1892TIP3    H129871   7.187   6.432  18.053 -1.3051 -1.8627  0.9384
 1892TIP3    H229872   7.189   6.569  18.118  0.2293  0.3161 -3.3348
 1893TIP3   OH229873   2.897   3.527  18.418  0.4373 -0.2417 -0.0966
 1893TIP3    H129874   2.975   3.581  18.434 -0.3366  0.2399  2.4516
 1893TIP3    H229875   2.921   3.441  18.453 -0.0617 -0.1707  0.4234
 1894TIP3   OH229876   7.203   2.530  18.406  0.0742 -0.0761  0.4703
 1894TIP3    H129877   7.113   2.500  18.415 -0.0042 -0.2851 -0.8175
 1894TIP3    H229878   7.199   2.599  18.340  1.0357 -1.0662 -0.6882
 1895TIP3   OH229879   2.082   6.891  18.574 -0.5810 -0.0361  0.8612
 1895TIP3    H129880   2.019   6.827  18.608 -1.5853  0.7076  0.4559
 1895TIP3    H229881   2.043   6.976  18.596  0.1632  0.4394  0.3768
 1896TIP3   OH229882   4.425   1.846  17.943 -0.1926  0.1842  0.8305
 1896TIP3    H129883   4.514   1.821  17.918 -0.5555 -1.1265  0.7649
 1896TIP3    H229884   4.422   1.941  17.931  0.4332 -0.0439 -1.6553
 1897TIP3   OH229885   4.395   5.721  17.863  0.6090 -0.0578  0.1273
 1897TIP3    H129886   4.475   5.762  17.895  0.4383  0.3085  0.0931
 1897TIP3    H229887   4.346   5.793  17.824  0.8501 -0.4917 -1.0391
 1898TIP3   OH229888   6.402   4.628  18.791 -0.2637  0.1083  0.1044
 1898TIP3    H129889   6.464   4.592  18.728 -0.1373  0.2583  0.1415
 1898TIP3    H229890   6.456   4.651  18.867 -0.5861 -1.1994  0.7567
 1899TIP3   OH229891   3.077   0.982  18.816 -0.5346 -0.5405  0.5956
 1899TIP3    H129892   3.158   1.029  18.793 -1.7316  1.4194  0.1926
 1899TIP3    H229893   3.016   1.003  18.746 -2.3557  0.5385  2.4232
 1900TIP3   OH229894   6.124   3.140  17.744  0.4854 -0.0159 -0.1482
 1900TIP3    H129895   6.157   3.216  17.697  1.7666 -0.0051  0.7285
 1900TIP3    H229896   6.076   3.177  17.819 -0.1789 -0.0606 -0.5423
 1901TIP3   OH229897   3.441   7.215  19.052  0.4469  0.0221 -0.0280
 1901TIP3    H129898   3.397   7.237  18.970 -0.7327  1.6184  0.9741
 1901TIP3    H229899   3.394   7.265  19.119  1.6110 -0.9338  1.5884
 1902TIP3   OH229900   6.492   1.332  17.976 -0.1166  0.1981 -0.1726
 1902TIP3    H129901   6.574   1.334  17.927 -0.8469 -0.1873 -1.4588
 1902TIP3    H229902   6.518   1.336  18.068  1.2558  1.9102 -0.5869
 1903TIP3   OH229903   2.772   4.830  19.567  0.0255  0.5359 -0.1658
 1903TIP3    H129904   2.794   4.750  19.519 -1.2467  0.2367 -0.2745
 1903TIP3    H229905   2.768   4.802  19.658 -0.9550  0.3446 -0.2597
 1904TIP3   OH229906   2.893   0.076  18.565 -0.6579  0.2207 -0.2205
 1904TIP3    H129907   2.915  -0.012  18.598  0.3091  0.8003  0.7586
 1904TIP3    H229908   2.898   0.068  18.470 -3.5298 -1.5201 -0.3328
 1905TIP3   OH229909   0.146   6.002  19.426 -0.3258 -0.5005 -0.1411
 1905TIP3    H129910   0.066   5.979  19.475 -0.9260 -0.0018 -0.8569
 1905TIP3    H229911   0.202   5.925  19.434 -1.0428 -1.0113  0.0483
 1906TIP3   OH229912   3.528   4.711  16.906 -0.4612 -0.0651  0.2150
 1906TIP3    H129913   3.540   4.664  16.988 -0.1030  0.3552  0.4059
 1906TIP3    H229914   3.599   4.681  16.850 -0.5380 -0.1390  0.1559
 1907TIP3   OH229915   6.719   3.593  18.923 -0.1626 -0.1710  0.1381
 1907TIP3    H129916   6.788   3.659  18.915 -1.3809  1.0475 -0.9859
 1907TIP3    H229917   6.735   3.533  18.851 -0.0841 -0.0705  0.0707
 1908TIP3   OH229918   6.307   2.282  18.297 -0.1555 -0.0708 -0.4471
 1908TIP3    H129919   6.226   2.233  18.286 -0.4617  0.2443  0.2831
 1908TIP3    H229920   6.362   2.226  18.352 -0.4269  0.2995  0.2184
 1909TIP3   OH229921   1.364   6.473  18.822  0.3531  0.3342 -0.1691
 1909TIP3    H129922   1.281   6.520  18.814 -0.0291 -0.0931  1.0667
 1909TIP3    H229923   1.357   6.425  18.904  2.1789  0.9560  0.3904
 1910TIP3   OH229924   2.625   0.154  18.648 -0.0187 -0.2007  1.2294
 1910TIP3    H129925   2.717   0.150  18.625 -0.7602 -1.8604 -2.0528
 1910TIP3    H229926   2.584   0.084  18.597 -3.1839  0.8220  2.1127
 1911TIP3   OH229927   0.125   5.038  18.485 -0.1144  0.5743 -0.4573
 1911TIP3    H129928   0.191   5.104  18.464 -0.2242  0.6897 -0.4440
 1911TIP3    H229929   0.145   5.012  18.575  0.4287 -0.0061 -0.7452
 1912TIP3   OH229930   2.879   1.390  18.612 -0.3114  0.2236 -0.3604
 1912TIP3    H129931   2.901   1.466  18.557 -0.4513  2.6826  2.6879
 1912TIP3    H229932   2.949   1.387  18.677 -2.3343  0.3244  1.9663
 1913TIP3   OH229933   4.922   1.210  17.697  0.0693 -0.1505 -0.4664
 1913TIP3    H129934   4.936   1.116  17.712 -0.5486 -0.1058  0.4506
 1913TIP3    H229935   4.858   1.235  17.762  0.7731  1.0824 -0.2239
 1914TIP3   OH229936   5.425   2.418  19.309  0.1657  0.1789  0.5660
 1914TIP3    H129937   5.467   2.504  19.313  0.4927 -0.0305  1.9532
 1914TIP3    H229938   5.370   2.413  19.387 -0.4678 -0.5749  0.0984
 1915TIP3   OH229939   1.734   2.602  17.125  0.0993 -0.0351 -0.0964
 1915TIP3    H129940   1.746   2.672  17.190 -0.0984 -0.5970  0.5589
 1915TIP3    H229941   1.640   2.583  17.129  0.6022 -2.7131  2.2938
 1916TIP3   OH229942   4.251   1.181  19.026  0.2802 -0.1412  0.0905
 1916TIP3    H129943   4.309   1.221  18.961  1.0348 -0.0335  0.8115
 1916TIP3    H229944   4.207   1.110  18.979  0.1140  0.5220 -0.7813
 1917TIP3   OH229945   0.469   3.672  17.440 -0.1106 -0.3929  0.3296
 1917TIP3    H129946   0.470   3.691  17.534  0.1269 -2.3682  0.7544
 1917TIP3    H229947   0.530   3.736  17.402 -1.0430  1.1604  1.3280
 1918TIP3   OH229948   5.484   1.304  17.580 -0.0327  0.5095  0.5412
 1918TIP3    H129949   5.488   1.367  17.652  0.0776  0.2184  0.7904
 1918TIP3    H229950   5.419   1.341  17.519  2.4662  2.6450 -1.0460
 1919TIP3   OH229951   1.929   5.349  17.269 -0.0970  0.1817  0.1986
 1919TIP3    H129952   1.892   5.434  17.244 -1.2275 -0.0135  1.1284
 1919TIP3    H229953   1.988   5.327  17.197 -0.9694  1.0296 -0.8193
 1920TIP3   OH229954   0.382   7.475  17.865  0.3367 -0.2257 -0.0187
 1920TIP3    H129955   0.310   7.438  17.814  1.9501 -0.8035 -2.0100
 1920TIP3    H229956   0.356   7.566  17.880 -2.0212 -1.0962  1.7632
 1921TIP3   OH229957   3.691   4.498  18.024 -0.2473 -0.1654  0.1559
 1921TIP3    H129958   3.739   4.428  18.068 -1.7439 -0.3776  1.5534
 1921TIP3    H229959   3.631   4.532  18.091 -1.3038  0.7794 -1.2013
 1922TIP3   OH229960   2.738   0.571  18.565  0.2034  0.0101  0.2961
 1922TIP3    H129961   2.664   0.581  18.506  1.3177  1.5314 -0.9501
 1922TIP3    H229962   2.752   0.659  18.600  0.6777 -0.5037  1.4495
 1923TIP3   OH229963   5.609   1.853  19.518  0.3057 -0.2422 -0.4459
 1923TIP3    H129964   5.599   1.806  19.435 -0.3864  2.1540 -1.8415
 1923TIP3    H229965   5.679   1.916  19.501  0.1039  0.3373  0.7613
 1924TIP3   OH229966   0.159   5.713  18.122 -0.3214 -0.4058  0.0698
 1924TIP3    H129967   0.122   5.800  18.106 -2.0514 -0.8177  1.4831
 1924TIP3    H229968   0.248   5.729  18.152 -0.4182  0.8446 -0.2578
 1925TIP3   OH229969   5.564   3.897  19.119 -0.0026  0.1812  0.0983
 1925TIP3    H129970   5.534   3.844  19.045  1.4761 -0.3723 -0.1489
 1925TIP3    H229971   5.640   3.850  19.152  0.4089  1.3393  0.8678
 1926TIP3   OH229972   1.726   5.756  18.635  0.5237  0.4352  0.4829
 1926TIP3    H129973   1.640   5.778  18.597 -0.3575 -0.7015  1.7074
 1926TIP3    H229974   1.763   5.840  18.661 -0.0899  0.9711 -0.3224
 1927TIP3   OH229975   7.020   5.465  19.503 -0.7757  0.0350 -0.6831
 1927TIP3    H129976   7.098   5.412  19.522 -1.4639 -0.7010  0.1699
 1927TIP3    H229977   7.053   5.555  19.496  0.2469 -0.3564 -1.0661
 1928TIP3   OH229978   7.054   3.631  17.520 -0.6103  0.0858 -0.2828
 1928TIP3    H129979   7.047   3.613  17.427 -1.4111 -1.2924  0.0136
 1928TIP3    H229980   7.143   3.605  17.543 -0.1726  1.1110 -0.7911
 1929TIP3   OH229981   1.916   3.902  17.651 -0.0767  0.1631  0.2233
 1929TIP3    H129982   1.990   3.892  17.712  1.3298 -0.4967 -1.5086
 1929TIP3    H229983   1.928   3.831  17.588 -1.6693  0.6437 -0.6545
 1930TIP3   OH229984   5.959   4.813  18.486  0.1140 -0.2107  0.3951
 1930TIP3    H129985   6.009   4.784  18.563  1.3995 -1.1212 -0.7272
 1930TIP3    H229986   5.924   4.732  18.448 -2.5167  0.4260  1.2873
 1931TIP3   OH229987   5.378   0.271  18.538 -0.2252  0.1126  0.7492
 1931TIP3    H129988   5.427   0.210  18.594 -0.9890 -0.2279  1.0583
 1931TIP3    H229989   5.446   0.318  18.489  0.3909 -0.7102  0.7863
 1932TIP3   OH229990   0.187   3.098  18.427 -0.0362 -0.1579  0.3331
 1932TIP3    H129991   0.116   3.110  18.491 -0.1105 -1.4263  0.5049
 1932TIP3    H229992   0.205   3.187  18.396 -2.1254  0.1427 -0.1799
 1933TIP3   OH229993   6.213   6.762  18.407 -0.1377  0.0867  0.4743
 1933TIP3    H129994   6.242   6.748  18.497 -4.3547 -3.0524  1.6670
 1933TIP3    H229995   6.239   6.683  18.361  0.6873  1.0303 -0.7390
 1934TIP3   OH229996   1.705   1.117  17.593  0.2186 -0.0339  0.1218
 1934TIP3    H129997   1.611   1.130  17.579 -0.1302  2.0384  3.3332
 1934TIP3    H229998   1.719   1.024  17.574 -2.9260 -0.9174  1.3167
 1935TIP3   OH229999   2.633   3.264  19.346 -0.2222  0.0063 -0.9124
 1935TIP3    H130000   2.575   3.199  19.385 -0.8407 -0.1155 -2.0005
 1935TIP3    H230001   2.575   3.328  19.304  0.3413  1.6740  0.6930
 1936TIP3   OH230002   1.273   5.055  17.773 -0.5893  0.3914  0.0586
 1936TIP3    H130003   1.334   5.127  17.787 -2.3964  1.9046  0.7116
 1936TIP3    H230004   1.314   4.980  17.816  1.4589  0.9400 -0.8413
 1937TIP3   OH230005   5.265   2.439  18.476  0.3632  0.1042  0.2840
 1937TIP3    H130006   5.194   2.452  18.539  0.4208  1.7057  0.0638
 1937TIP3    H230007   5.249   2.353  18.438  0.9455 -1.4345  3.2426
 1938TIP3   OH230008   7.405   5.379  19.356  0.4937 -0.0349  0.2365
 1938TIP3    H130009   7.411   5.475  19.360  0.8756  0.0221 -1.1774
 1938TIP3    H230010   7.428   5.357  19.266  0.0446 -1.4449  0.4374
 1939TIP3   OH230011   4.446   1.112  18.121  0.6326  0.1411 -0.2173
 1939TIP3    H130012   4.535   1.083  18.145  1.1195  0.2312 -1.7892
 1939TIP3    H230013   4.429   1.069  18.037  0.7658  3.0787 -1.8982
 1940TIP3   OH230014   5.249   2.713  18.384  0.7008  0.2761 -0.4038
 1940TIP3    H130015   5.226   2.770  18.457 -1.9830  0.6034 -1.4074
 1940TIP3    H230016   5.250   2.625  18.421 -0.7230  0.4286  0.0328
 1941TIP3   OH230017   2.550   5.916  17.910 -0.0931  0.0232  0.1854
 1941TIP3    H130018   2.597   5.995  17.886  0.6860 -0.1518  1.0723
 1941TIP3    H230019   2.459   5.944  17.920 -0.1933  0.3794 -1.4778
 1942TIP3   OH230020   4.938   4.148  18.932 -0.3077  0.2417 -1.0656
 1942TIP3    H130021   5.032   4.153  18.950 -0.6498  2.6650  0.4934
 1942TIP3    H230022   4.914   4.059  18.958  1.0811  0.4651  1.3888
 1943TIP3   OH230023   2.099   5.846  18.315 -0.4586 -0.1607  0.3711
 1943TIP3    H130024   2.028   5.801  18.269 -0.2441 -1.3865  1.2066
 1943TIP3    H230025   2.174   5.788  18.307 -0.4078 -0.4154  2.2157
 1944TIP3   OH230026   1.316   2.693  16.713  0.5849  0.0088 -0.1267
 1944TIP3    H130027   1.297   2.758  16.646 -1.2083  1.6867  1.8388
 1944TIP3    H230028   1.270   2.614  16.683 -0.2362  0.7387 -0.8489
 1945TIP3   OH230029   3.110   5.266  18.349 -0.5565 -0.9025 -0.4656
 1945TIP3    H130030   3.187   5.294  18.399 -0.7807 -2.7198  1.0032
 1945TIP3    H230031   3.092   5.177  18.380 -1.9885 -1.3205 -2.3189
 1946TIP3   OH230032   5.403   6.452  18.461  0.2370 -0.2159  0.4638
 1946TIP3    H130033   5.357   6.383  18.413  1.4556 -0.3640 -0.5713
 1946TIP3    H230034   5.490   6.415  18.478 -0.1614 -0.1790  2.8990
 1947TIP3   OH230035   0.440   3.072  18.887 -0.0814 -0.3678 -1.0071
 1947TIP3    H130036   0.449   2.979  18.906 -0.5011 -0.4946 -1.4120
 1947TIP3    H230037   0.489   3.086  18.807  0.6770 -0.0692 -0.5011
 1948TIP3   OH230038   7.075   7.392  16.762  0.1672  0.0038  0.1832
 1948TIP3    H130039   7.070   7.403  16.667 -2.0160 -2.9426 -0.1762
 1948TIP3    H230040   7.161   7.426  16.786  1.7041 -1.1308 -3.1868
 1949TIP3   OH230041   3.833   1.982  18.679 -0.5886  0.0784 -0.0874
 1949TIP3    H130042   3.796   1.995  18.592 -0.5177  0.3700 -0.0766
 1949TIP3    H230043   3.899   1.913  18.667 -0.9052 -0.2141 -0.1686
 1950TIP3   OH230044   0.273   5.280  19.168  0.5221  0.5931 -0.8301
 1950TIP3    H130045   0.277   5.184  19.170 -0.0210  0.5779  0.5853
 1950TIP3    H230046   0.332   5.305  19.097  1.4323 -0.7564 -0.5863
 1951TIP3   OH230047   3.039   5.691  19.435 -0.4573  0.4783 -0.2724
 1951TIP3    H130048   3.054   5.727  19.522  1.6403  0.0466 -0.4171
 1951TIP3    H230049   2.998   5.764  19.387  0.4735  1.4941  0.4200
 1952TIP3   OH230050   4.171   6.891  19.250 -0.0511 -0.1645 -0.0161
 1952TIP3    H130051   4.221   6.812  19.268 -1.0557 -0.5610  1.1643
 1952TIP3    H230052   4.099   6.889  19.312 -1.4697  0.4521 -1.5460
 1953TIP3   OH230053   1.937   3.509  17.738  1.1573  0.0156  0.4053
 1953TIP3    H130054   1.958   3.521  17.831 -1.0096 -0.7719  1.0653
 1953TIP3    H230055   1.843   3.528  17.732  0.6061 -2.6398 -1.0555
 1954TIP3   OH230056   2.520   2.516  18.418 -0.0427 -0.1934 -0.0831
 1954TIP3    H130057   2.535   2.487  18.508  4.2773  0.8226 -0.2220
 1954TIP3    H230058   2.467   2.447  18.378  0.4380 -2.1825  2.4565
 1955TIP3   OH230059   2.164   7.027  17.571  0.0352  0.6410  0.6800
 1955TIP3    H130060   2.126   7.029  17.484 -0.3921 -0.6414  0.8287
 1955TIP3    H230061   2.099   6.983  17.626  0.5461  0.9087  1.5279
 1956TIP3   OH230062   7.120   5.344  17.135  0.2375  0.2452 -0.0278
 1956TIP3    H130063   7.030   5.348  17.168 -0.1737 -1.4962 -0.8329
 1956TIP3    H230064   7.160   5.426  17.164 -1.7859  1.3481 -0.2117
 1957TIP3   OH230065   0.621   6.002  17.558  0.2977 -0.1635  0.0828
 1957TIP3    H130066   0.557   6.054  17.608  0.2247  0.3430 -0.5264
 1957TIP3    H230067   0.703   6.051  17.565  0.1570  0.2166 -0.7513
 1958TIP3   OH230068   0.543   1.600  19.125 -0.6327  0.0231  0.4501
 1958TIP3    H130069   0.475   1.667  19.123  1.7869  2.6601 -0.9085
 1958TIP3    H230070   0.599   1.625  19.198  1.0918  0.4475 -0.9450
 1959TIP3   OH230071   1.106   2.098  17.084  0.3919  0.1305  0.2755
 1959TIP3    H130072   1.143   2.164  17.025  1.5236 -0.1531  0.6421
 1959TIP3    H230073   1.117   2.015  17.037  0.8600 -0.0396  0.6827
 1960TIP3   OH230074   0.861   3.560  18.125 -0.0556 -0.3450  0.3161
 1960TIP3    H130075   0.867   3.635  18.184 -0.8574 -0.2039  0.2280
 1960TIP3    H230076   0.909   3.490  18.170  2.0071  0.6192 -0.2826
 1961TIP3   OH230077   1.711   7.386  19.495  0.1992  0.0081 -0.0573
 1961TIP3    H130078   1.764   7.310  19.517  0.3499  0.3583  0.8634
 1961TIP3    H230079   1.752   7.423  19.417  2.2179  1.1037  1.4377
 1962TIP3   OH230080   5.363   4.627  18.850  0.1898 -0.5259 -0.1606
 1962TIP3    H130081   5.381   4.604  18.941 -0.1998  0.4910  0.1792
 1962TIP3    H230082   5.445   4.665  18.817 -0.2199  0.8426  0.3407
 1963TIP3   OH230083   1.443   2.845  18.073 -0.0332  0.6204 -0.2176
 1963TIP3    H130084   1.484   2.846  18.159 -0.3486 -1.8444  0.0512
 1963TIP3    H230085   1.506   2.888  18.015  0.9134  0.8644  0.9719
 1964TIP3   OH230086   7.641   0.844  16.778 -0.2243 -0.4071 -0.0469
 1964TIP3    H130087   7.671   0.795  16.702 -1.8172 -1.4147 -0.0623
 1964TIP3    H230088   7.551   0.816  16.790 -0.7322  1.4779  0.8175
 1965TIP3   OH230089   3.241   6.012  17.849  0.2222  0.2808 -0.4204
 1965TIP3    H130090   3.323   6.032  17.893  0.9159 -0.8669 -1.1408
 1965TIP3    H230091   3.261   5.938  17.792 -1.9125 -1.8758  1.3970
 1966TIP3   OH230092   4.057   3.257  18.408  0.0572 -0.3976 -0.2888
 1966TIP3    H130093   4.110   3.221  18.337 -0.6115 -2.2091  0.0832
 1966TIP3    H230094   4.056   3.189  18.475  0.1275  1.0009  1.2081
 1967TIP3   OH230095   1.253   2.790  18.501 -0.3102 -0.4192  0.2349
 1967TIP3    H130096   1.326   2.742  18.540 -0.7646 -1.1477  0.2115
 1967TIP3    H230097   1.290   2.833  18.424  0.2121 -0.3380  0.5278
 1968TIP3   OH230098   2.886   5.118  17.567  0.0344  0.9834  0.0400
 1968TIP3    H130099   2.911   5.087  17.654 -1.4191 -0.2281  0.0769
 1968TIP3    H230100   2.916   5.049  17.508  0.5475  1.5527 -0.3757
 1969TIP3   OH230101   1.344   7.470  18.831 -0.1573 -0.3436  0.0958
 1969TIP3    H130102   1.303   7.433  18.909 -2.1702 -1.2592 -1.3089
 1969TIP3    H230103   1.331   7.403  18.764 -0.0069  1.1295 -1.4417
 1970TIP3   OH230104   5.951   5.281  18.828  0.0762 -0.4228 -1.0757
 1970TIP3    H130105   5.899   5.347  18.784 -0.7598  0.5954  1.2868
 1970TIP3    H230106   5.989   5.326  18.904  1.6279 -2.0048 -0.8288
 1971TIP3   OH230107   0.843   5.679  17.085 -0.3643 -0.0319 -0.6832
 1971TIP3    H130108   0.887   5.603  17.047 -1.8960 -1.6834  0.6718
 1971TIP3    H230109   0.757   5.680  17.042 -0.7591  0.2513  0.0994
 1972TIP3   OH230110   0.859   0.675  17.781  0.1444 -0.3061 -0.2653
 1972TIP3    H130111   0.940   0.671  17.730  1.4070  0.5619  1.5401
 1972TIP3    H230112   0.849   0.768  17.801 -0.4348 -0.5905  0.8249
 1973TIP3   OH230113   0.533   5.285  17.131 -0.2177 -0.4397  0.3556
 1973TIP3    H130114   0.524   5.279  17.226  1.2266  1.9600  0.7305
 1973TIP3    H230115   0.616   5.240  17.112  0.0161 -0.0320  0.3920
 1974TIP3   OH230116   0.206   3.760  18.361  0.3708  0.5078 -0.0068
 1974TIP3    H130117   0.223   3.693  18.294  0.5764  0.4328  0.1191
 1974TIP3    H230118   0.113   3.752  18.380  0.3470  0.4120 -0.1597
 1975TIP3   OH230119   0.084   5.416  18.406 -0.2657 -0.0981  0.3714
 1975TIP3    H130120   0.013   5.431  18.344  0.4149 -0.9399 -0.6255
 1975TIP3    H230121   0.044   5.365  18.477 -0.6380 -0.6501 -0.2300
 1976TIP3   OH230122   1.230   5.678  18.679 -0.2794  0.1293 -0.4160
 1976TIP3    H130123   1.307   5.694  18.734 -0.0118  1.0196 -1.0359
 1976TIP3    H230124   1.158   5.722  18.725 -0.2186  0.1849 -0.3738
 1977TIP3   OH230125   6.786   4.887  19.020 -0.4605 -0.1187 -0.1569
 1977TIP3    H130126   6.827   4.973  19.035 -1.8211  0.5549 -0.1580
 1977TIP3    H230127   6.859   4.826  19.019  0.7906  1.2701 -2.0846
 1978TIP3   OH230128   4.847   0.730  17.630  1.1001  0.0791 -0.1365
 1978TIP3    H130129   4.838   0.664  17.560  0.3264  0.6228 -0.5689
 1978TIP3    H230130   4.908   0.794  17.594  2.3898 -0.7201  0.5507
 1979TIP3   OH230131   7.607   3.758  18.329 -0.4088 -0.0122 -0.2454
 1979TIP3    H130132   7.576   3.674  18.361  0.6463 -0.0431  0.7472
 1979TIP3    H230133   7.605   3.750  18.234  0.3094 -1.3991 -0.1667
 1980TIP3   OH230134   4.395   4.355  19.297 -0.2349  0.0464 -0.3122
 1980TIP3    H130135   4.445   4.434  19.315  0.7455 -0.3717 -1.1170
 1980TIP3    H230136   4.328   4.353  19.365 -0.6629  1.8788 -0.6321
 1981TIP3   OH230137   4.532   2.042  17.703 -0.2465  0.2433  0.2461
 1981TIP3    H130138   4.440   2.037  17.729 -0.8440  1.2998 -1.5459
 1981TIP3    H230139   4.545   1.966  17.646 -0.4464  0.9296 -0.7334
 1982TIP3   OH230140   1.042   2.798  18.221  0.4224  0.0850 -0.2760
 1982TIP3    H130141   1.061   2.704  18.221 -0.0289 -0.0110  0.3050
 1982TIP3    H230142   1.090   2.832  18.146  0.7851 -0.5722 -0.3483
 1983TIP3   OH230143   7.615   2.073  18.130 -0.2101  0.3951 -0.0242
 1983TIP3    H130144   7.553   2.029  18.189 -0.3660 -0.2508 -0.6577
 1983TIP3    H230145   7.595   2.167  18.140 -2.6053  0.1425 -1.5947
 1984TIP3   OH230146   6.058   1.495  17.592 -0.3434 -0.3382 -0.0256
 1984TIP3    H130147   6.027   1.561  17.653 -1.9679 -1.2429  0.1736
 1984TIP3    H230148   6.102   1.430  17.647  1.7545  0.7714 -0.2745
 1985TIP3   OH230149   4.921   6.674  17.442 -0.1599 -0.4239  0.5220
 1985TIP3    H130150   4.849   6.687  17.380 -0.5646  2.8993  1.4804
 1985TIP3    H230151   4.881   6.627  17.515 -0.7035 -0.8251 -0.0188
 1986TIP3   OH230152   1.132   0.465  18.492  0.0127 -0.5025 -0.6560
 1986TIP3    H130153   1.097   0.549  18.461  2.3350  0.1294 -1.8142
 1986TIP3    H230154   1.145   0.479  18.586 -1.8094 -0.4387 -0.3722
 1987TIP3   OH230155   5.992   4.381  17.989 -0.3702  0.1607 -0.1993
 1987TIP3    H130156   5.948   4.299  17.970 -0.4782  0.4025 -1.0388
 1987TIP3    H230157   5.945   4.447  17.937 -0.0419  0.6882  0.1555
 1988TIP3   OH230158   5.417   4.264  18.861  0.2936  0.0057  0.1480
 1988TIP3    H130159   5.443   4.356  18.873  0.0701  0.0351  0.4517
 1988TIP3    H230160   5.486   4.214  18.903  0.0797  0.0671  0.5882
 1989TIP3   OH230161   3.685   2.220  18.286  0.8565 -0.1333 -0.3005
 1989TIP3    H130162   3.592   2.220  18.263  1.2172  0.1004 -1.9000
 1989TIP3    H230163   3.700   2.303  18.331  0.2806 -0.2265  0.0680
 1990TIP3   OH230164   1.831   7.322  17.273 -0.0397 -0.1419  0.1680
 1990TIP3    H130165   1.832   7.236  17.315 -0.7726  0.5493  1.6897
 1990TIP3    H230166   1.914   7.363  17.298  1.0864 -0.9788 -1.9374
 1991TIP3   OH230167   0.925   2.464  17.765  0.3683  0.2484  0.5113
 1991TIP3    H130168   0.902   2.377  17.796 -1.3416  0.3685 -0.2926
 1991TIP3    H230169   1.003   2.488  17.815  2.1775 -2.5684 -0.7374
 1992TIP3   OH230170   5.824   4.350  19.510  0.0137  0.5951 -0.2163
 1992TIP3    H130171   5.767   4.386  19.441 -2.0014  0.8239  1.4711
 1992TIP3    H230172   5.815   4.411  19.583  2.1681  0.3999  0.2775
 1993TIP3   OH230173   4.684   4.244  18.216 -0.3156 -0.8550 -0.6323
 1993TIP3    H130174   4.594   4.278  18.217 -0.1058 -0.2103 -1.7783
 1993TIP3    H230175   4.703   4.226  18.308 -1.1003  0.4378 -0.1770
 1994TIP3   OH230176   3.785   5.006  17.490  0.1740 -0.3735  0.0332
 1994TIP3    H130177   3.739   5.086  17.464 -1.6658 -2.0827 -2.4440
 1994TIP3    H230178   3.875   5.019  17.460  0.2046  1.1982  0.7311
 1995TIP3   OH230179   5.278   6.527  18.734  0.4607  0.0896  0.2077
 1995TIP3    H130180   5.210   6.470  18.699 -0.2888  1.4426 -0.6574
 1995TIP3    H230181   5.234   6.581  18.799  0.5321  1.3796 -0.7769
 1996TIP3   OH230182   3.630   6.569  18.541 -0.6520  0.2001  0.4737
 1996TIP3    H130183   3.684   6.490  18.545  0.2136  0.6000 -1.5920
 1996TIP3    H230184   3.611   6.579  18.447 -0.4816  2.5898  0.6348
 1997TIP3   OH230185   1.881   5.414  17.661 -0.3837 -0.4180 -0.1204
 1997TIP3    H130186   1.899   5.448  17.749 -0.1520 -0.2018 -0.2520
 1997TIP3    H230187   1.949   5.452  17.606  0.4655 -1.8368 -0.0927
 1998TIP3   OH230188   3.758   1.773  17.957  0.0822  0.1574  0.2996
 1998TIP3    H130189   3.842   1.779  17.911  0.3174 -1.2481  0.5066
 1998TIP3    H230190   3.721   1.861  17.950  0.8100  0.3864 -1.2460
 1999TIP3   OH230191   2.344   0.416  17.534  0.1719 -0.2048 -0.5540
 1999TIP3    H130192   2.407   0.467  17.584 -0.5246  1.4705 -1.3082
 1999TIP3    H230193   2.295   0.367  17.600  1.0544 -0.1154  0.1778
 2000TIP3   OH230194   2.580   0.584  17.625 -0.1115  0.1686 -0.1677
 2000TIP3    H130195   2.562   0.677  17.618  2.3690  0.6573 -0.7144
 2000TIP3    H230196   2.633   0.563  17.549  0.3442 -1.4514  0.5515
 2001TIP3   OH230197   0.345   6.014  17.146  0.1718  0.3393  0.1112
 2001TIP3    H130198   0.278   5.956  17.110 -1.9764  1.9526  1.3238
 2001TIP3    H230199   0.405   5.955  17.193 -2.2400 -0.9596  1.7700
 2002TIP3   OH230200   3.858   0.201  17.698  0.0068 -0.3325  0.6733
 2002TIP3    H130201   3.775   0.246  17.716 -0.1335 -0.6692  0.8681
 2002TIP3    H230202   3.908   0.212  17.779 -0.2186 -0.9494  0.8988
 2003TIP3   OH230203   5.347   3.167  19.100  0.8502  0.2120 -0.1222
 2003TIP3    H130204   5.385   3.155  19.013  0.9000 -1.2264  0.0818
 2003TIP3    H230205   5.273   3.227  19.086  0.4814 -0.4841 -1.2624
 2004TIP3   OH230206   1.434   5.115  19.515  0.1738  0.1920  0.1429
 2004TIP3    H130207   1.485   5.035  19.501 -0.2135  0.2219 -1.5742
 2004TIP3    H230208   1.416   5.148  19.428 -0.7368  1.4980  0.7944
 2005TIP3   OH230209   0.881   6.361  18.651 -0.4827 -0.4281  0.3382
 2005TIP3    H130210   0.847   6.290  18.706 -1.2444 -0.1247  0.2717
 2005TIP3    H230211   0.876   6.327  18.562 -0.6617 -0.3664  0.3241
 2006TIP3   OH230212   7.069   6.671  18.637  0.0148  0.1374  0.0270
 2006TIP3    H130213   7.092   6.669  18.730 -1.1186  0.6093  0.3469
 2006TIP3    H230214   7.017   6.751  18.628  0.2293  0.1622 -1.0470
 2007TIP3   OH230215   2.363   4.170  18.678 -0.1102 -0.3435 -0.5639
 2007TIP3    H130216   2.451   4.187  18.711  0.0442 -0.1269 -1.0665
 2007TIP3    H230217   2.306   4.177  18.755  0.3714 -1.0448 -0.1365
 2008TIP3   OH230218   3.101   7.523  17.214  0.0957  0.0528  0.2073
 2008TIP3    H130219   3.058   7.447  17.174 -0.8534  2.0159 -2.8922
 2008TIP3    H230220   3.028   7.577  17.246  0.2675  2.0582 -2.4839
 2009TIP3   OH230221   3.846   2.796  17.871 -0.5543 -0.0178  0.3586
 2009TIP3    H130222   3.801   2.879  17.852 -0.4334 -0.1513 -0.5554
 2009TIP3    H230223   3.930   2.822  17.908 -1.6315  0.2387  2.8242
 2010TIP3   OH230224   0.134   3.803  19.672  0.2425  0.3816  0.1835
 2010TIP3    H130225   0.139   3.897  19.655  0.4340  0.5767  1.2776
 2010TIP3    H230226   0.041   3.782  19.669  0.1091  0.8276  1.0643
 2011TIP3   OH230227   1.081   3.392  18.468  0.2187 -0.1484 -0.5558
 2011TIP3    H130228   1.051   3.478  18.496  0.2759 -0.5053  0.6637
 2011TIP3    H230229   1.014   3.331  18.502  1.2517 -0.7622  0.4462
 2012TIP3   OH230230   2.643   6.469  17.090  0.4019 -0.2086  0.1256
 2012TIP3    H130231   2.559   6.437  17.059 -0.4215  0.5777  1.4584
 2012TIP3    H230232   2.706   6.438  17.025 -1.0932  0.6114 -1.8128
 2013TIP3   OH230233   2.485   5.887  18.425 -0.0372  0.2249  0.3975
 2013TIP3    H130234   2.412   5.924  18.474  0.2816  0.5551  0.6279
 2013TIP3    H230235   2.445   5.819  18.370 -0.3030 -0.6571  1.6269
 2014TIP3   OH230236   3.380   1.913  17.975  0.4168  0.0602  0.2248
 2014TIP3    H130237   3.401   1.965  18.052  0.2831  1.3133 -0.5507
 2014TIP3    H230238   3.358   1.826  18.009 -0.2823  0.7670  1.6420
 2015TIP3   OH230239   4.196   3.486  17.020  0.1990 -0.1180 -0.1257
 2015TIP3    H130240   4.210   3.404  16.973  1.6486  0.1345 -0.1820
 2015TIP3    H230241   4.221   3.467  17.111  0.9530  0.3430 -0.2222
 2016TIP3   OH230242   2.354   3.207  19.047  0.3059 -0.3552 -0.2611
 2016TIP3    H130243   2.367   3.203  18.953  0.2275 -1.4954 -0.2430
 2016TIP3    H230244   2.261   3.228  19.058 -0.2235 -2.3625 -0.4813
 2017TIP3   OH230245   6.502   6.893  17.918 -0.0860 -0.1010  0.5728
 2017TIP3    H130246   6.586   6.879  17.962 -0.3273 -0.3601  0.9473
 2017TIP3    H230247   6.519   6.871  17.826  0.3893  0.3441  0.5449
 2018TIP3   OH230248   3.445   6.665  18.721 -0.2848  0.2114  0.1359
 2018TIP3    H130249   3.501   6.686  18.796 -0.3863  0.6809  0.0847
 2018TIP3    H230250   3.504   6.628  18.656 -0.1872 -0.1474  0.4253
 2019TIP3   OH230251   7.578   1.797  18.375  0.0216 -0.4947 -0.0607
 2019TIP3    H130252   7.550   1.794  18.284  0.6915  4.4140 -0.7168
 2019TIP3    H230253   7.670   1.822  18.372 -0.4489  1.8687  1.8104
 2020TIP3   OH230254   6.451   1.698  17.555 -0.0497 -0.0854 -0.5319
 2020TIP3    H130255   6.432   1.707  17.462 -2.1344 -1.5408 -0.3149
 2020TIP3    H230256   6.462   1.603  17.568 -1.5506 -0.0975  0.9694
 2021TIP3   OH230257   2.903   5.074  17.859  0.5167 -0.5385  0.1833
 2021TIP3    H130258   2.816   5.070  17.898  0.8094 -0.3955  0.8551
 2021TIP3    H230259   2.959   5.109  17.928  1.4159 -2.1557  0.3177
 2022TIP3   OH230260   0.518   4.449  17.086  0.3940 -0.7698 -0.0546
 2022TIP3    H130261   0.557   4.392  17.020 -0.2928 -1.2235 -0.0713
 2022TIP3    H230262   0.427   4.458  17.060 -0.0999 -1.6294  1.2667
 2023TIP3   OH230263   1.754   4.933  18.184  0.3591 -0.0499  0.0963
 2023TIP3    H130264   1.693   4.982  18.238  1.0307 -2.7559  3.6579
 2023TIP3    H230265   1.713   4.847  18.172  0.6532  0.1382 -3.1119
 2024TIP3   OH230266   6.443   5.913  17.546  0.0985  0.1048  0.3251
 2024TIP3    H130267   6.439   5.819  17.526 -1.0856  0.1638  0.2320
 2024TIP3    H230268   6.527   5.941  17.509  1.3623 -1.2776  1.9840
 2025TIP3   OH230269   4.291   3.101  17.675 -0.4218  0.2949 -0.0859
 2025TIP3    H130270   4.367   3.090  17.618 -1.1161  2.7101 -1.6195
 2025TIP3    H230271   4.302   3.033  17.742  3.1706  0.6231 -0.1150
 2026TIP3   OH230272   1.813   3.283  17.222 -0.0703 -0.4317  0.0536
 2026TIP3    H130273   1.885   3.282  17.159 -0.3309  0.1428 -0.2633
 2026TIP3    H230274   1.756   3.212  17.194  0.0140 -0.4301 -0.1245
 2027TIP3   OH230275   7.040   4.830  19.266 -0.2618 -0.1781  0.1891
 2027TIP3    H130276   6.963   4.773  19.270 -0.5406  0.2228  0.5377
 2027TIP3    H230277   7.056   4.842  19.172 -1.7772  1.2772  0.0712
 2028TIP3   OH230278   4.795   7.103  16.808  0.8027 -0.1429  0.0927
 2028TIP3    H130279   4.704   7.089  16.834  0.8042  0.3476  0.3922
 2028TIP3    H230280   4.818   7.027  16.755 -0.0119  0.0824 -0.5952
 2029TIP3   OH230281   0.284   6.589  18.084 -0.1696 -0.0282  0.3125
 2029TIP3    H130282   0.280   6.498  18.110  0.2838 -0.1356  0.0127
 2029TIP3    H230283   0.337   6.632  18.151 -0.1699 -0.0353  0.3176
 2030TIP3   OH230284   1.928   6.599  17.799  0.4570 -0.1430 -0.2063
 2030TIP3    H130285   1.913   6.576  17.890 -1.3776  1.3643 -0.0687
 2030TIP3    H230286   1.881   6.533  17.749 -3.3296  2.0014  0.1515
 2031TIP3   OH230287   0.838   0.882  18.773 -0.2008  0.3828 -0.2658
 2031TIP3    H130288   0.853   0.972  18.802 -0.9504  0.1567  0.9052
 2031TIP3    H230289   0.754   0.885  18.727 -0.4655  0.2142  0.1922
 2032TIP3   OH230290   0.086   0.851  17.873 -0.4197  0.5215 -0.3059
 2032TIP3    H130291   0.068   0.886  17.960 -1.4258 -0.2293 -0.1957
 2032TIP3    H230292   0.007   0.868  17.823 -0.5064 -0.5586 -0.5709
 2033TIP3   OH230293   5.702   7.203  17.389  0.0492 -0.3608  0.1898
 2033TIP3    H130294   5.713   7.120  17.344 -0.2738 -0.3214  0.0384
 2033TIP3    H230295   5.609   7.223  17.382 -0.0250 -0.3948  0.9451
 2034TIP3   OH230296   2.610   0.981  19.206 -0.1238  0.1644  0.3423
 2034TIP3    H130297   2.620   0.886  19.213  2.5751  0.0412 -2.8022
 2034TIP3    H230298   2.516   0.993  19.189 -0.2987 -2.1037 -0.7359
 2035TIP3   OH230299   0.172   3.298  19.039  0.1487  0.4855 -0.3218
 2035TIP3    H130300   0.262   3.332  19.036  0.2795  0.2383  0.5001
 2035TIP3    H230301   0.123   3.366  19.087  0.3786 -0.3862  1.1993
 2036TIP3   OH230302   5.718   3.083  17.292  0.6212 -0.4348 -0.2250
 2036TIP3    H130303   5.810   3.066  17.311  0.9272 -0.3096 -1.5257
 2036TIP3    H230304   5.719   3.135  17.212 -0.5642 -0.0014  0.0227
 2037TIP3   OH230305   1.864   6.537  19.432 -0.2432  0.0607  0.2798
 2037TIP3    H130306   1.788   6.539  19.373 -0.4502  1.4696  0.5751
 2037TIP3    H230307   1.841   6.471  19.498 -0.9338  0.0135  0.0009
 2038TIP3   OH230308   4.699   3.304  19.315 -0.3894  0.1493  0.1532
 2038TIP3    H130309   4.782   3.283  19.272 -0.5350 -0.8261  0.3451
 2038TIP3    H230310   4.724   3.339  19.400 -0.1778 -0.1022  0.1927
 2039TIP3   OH230311   1.907   0.128  18.256  0.5180  0.3152  0.1825
 2039TIP3    H130312   1.971   0.187  18.295 -0.2416  0.8332  0.6685
 2039TIP3    H230313   1.843   0.185  18.214  0.8463 -0.2209 -1.0971
 2040TIP3   OH230314   2.537   7.605  18.527  0.1284  0.3961 -0.0537
 2040TIP3    H130315   2.515   7.578  18.617 -0.5507  0.6916 -0.1193
 2040TIP3    H230316   2.554   7.524  18.481 -1.4030  0.0898 -0.1296
 2041TIP3   OH230317   5.196   2.899  19.024  0.0781 -0.3631  0.7183
 2041TIP3    H130318   5.232   2.942  19.101  0.1462 -0.5454  0.7880
 2041TIP3    H230319   5.167   2.971  18.967  0.6338 -0.2137  0.6218
 2042TIP3   OH230320   5.081   2.997  17.639 -0.1097 -0.0805  0.3338
 2042TIP3    H130321   5.013   2.980  17.573  1.7977 -1.7496 -1.3460
 2042TIP3    H230322   5.068   2.928  17.704  0.1041 -0.5546 -0.1159
 2043TIP3   OH230323   0.471   4.161  18.736 -0.3149 -0.0866 -0.3002
 2043TIP3    H130324   0.492   4.207  18.655  0.6306 -1.4876 -0.8984
 2043TIP3    H230325   0.394   4.108  18.714 -1.6693  1.4529  0.5065
 2044TIP3   OH230326   5.335   6.467  18.120 -0.2521 -0.3300 -0.3176
 2044TIP3    H130327   5.309   6.547  18.167 -0.1607  0.0868 -0.9598
 2044TIP3    H230328   5.353   6.403  18.189 -1.5764 -0.1889  0.1860
 2045TIP3   OH230329   2.345   5.588  18.703 -0.1679  0.3092  0.8700
 2045TIP3    H130330   2.400   5.626  18.771 -1.4784  0.9001  1.6270
 2045TIP3    H230331   2.266   5.641  18.703 -1.4071 -1.4432  0.8774
 2046TIP3   OH230332   4.421   4.034  18.010  0.9679  0.3864  0.2962
 2046TIP3    H130333   4.414   4.017  18.103  1.0741  0.5734  0.3393
 2046TIP3    H230334   4.386   4.123  17.999 -0.5438 -0.2220 -0.0637
 2047TIP3   OH230335   5.178   3.481  18.120 -0.1647  0.3116  0.5129
 2047TIP3    H130336   5.133   3.416  18.173 -2.0490  0.4609 -0.8020
 2047TIP3    H230337   5.222   3.430  18.052 -1.2985  0.3522 -0.2724
 2048TIP3   OH230338   3.710   5.164  17.025  0.2999 -0.3310  0.1100
 2048TIP3    H130339   3.633   5.112  16.999 -0.5997  1.2691 -0.5690
 2048TIP3    H230340   3.705   5.168  17.120  0.1902 -1.1620  0.1532
 2049TIP3   OH230341   0.866   7.637  18.325  0.0795  0.2170  0.7524
 2049TIP3    H130342   0.780   7.604  18.300  0.2471  1.0161 -1.0605
 2049TIP3    H230343   0.892   7.584  18.400 -1.5005 -0.7920  0.6190
 2050TIP3   OH230344   2.352   0.040  16.864 -0.2891 -0.0477 -0.1558
 2050TIP3    H130345   2.429   0.082  16.825 -0.2015  0.5045  0.5863
 2050TIP3    H230346   2.372   0.036  16.958 -0.7561 -0.7832 -0.0809
 2051TIP3   OH230347   2.078   0.315  18.366 -0.1221  0.1865 -0.1034
 2051TIP3    H130348   2.150   0.369  18.335 -0.4900  0.4741 -0.4706
 2051TIP3    H230349   2.097   0.300  18.459  0.5992 -0.0578 -0.2862
 2052TIP3   OH230350   5.688   5.288  19.411 -0.7750  0.1342  0.0711
 2052TIP3    H130351   5.687   5.382  19.427  1.2433  0.2691 -0.2670
 2052TIP3    H230352   5.770   5.258  19.450 -0.0403 -1.0057 -2.1820
 2053TIP3   OH230353   1.817   7.047  17.373  0.5748  0.3973  0.3423
 2053TIP3    H130354   1.779   7.030  17.287  2.5817 -0.0173 -0.5308
 2053TIP3    H230355   1.791   6.972  17.426  0.2121  0.1142 -0.2228
 2054TIP3   OH230356   3.216   5.335  17.353 -0.1361 -0.0481 -0.2985
 2054TIP3    H130357   3.246   5.306  17.440  0.2028 -1.0268 -0.7229
 2054TIP3    H230358   3.288   5.389  17.320 -0.6413  1.0821  0.3745
 2055TIP3   OH230359   3.190   7.221  18.414 -0.1212  0.0723  0.2877
 2055TIP3    H130360   3.182   7.179  18.499  2.5540  1.3488  1.3091
 2055TIP3    H230361   3.280   7.203  18.387 -0.8728 -0.2174 -2.2742
 2056TIP3   OH230362   1.293   7.346  17.182 -0.5636 -0.1352 -0.1650
 2056TIP3    H130363   1.244   7.310  17.256 -0.0824  0.7924  0.6266
 2056TIP3    H230364   1.377   7.300  17.184 -0.9897 -0.9914 -0.9054
 2057TIP3   OH230365   6.602   5.667  17.453  0.0933  0.1511  0.2884
 2057TIP3    H130366   6.589   5.572  17.462 -1.7389  0.3847  0.6840
 2057TIP3    H230367   6.680   5.676  17.399  1.2464 -1.5593  1.5712
 2058TIP3   OH230368   0.206   2.575  17.268  0.5411 -0.3061 -0.2561
 2058TIP3    H130369   0.254   2.657  17.259 -0.0929 -0.1198 -2.4418
 2058TIP3    H230370   0.147   2.589  17.342  0.8697  0.9769 -0.2215
 2059TIP3   OH230371   0.734   4.524  17.549 -0.5565 -0.0013 -0.5549
 2059TIP3    H130372   0.737   4.511  17.455  1.4672  1.5283 -0.7750
 2059TIP3    H230373   0.762   4.615  17.561 -1.4424  0.0572  1.5000
 2060TIP3   OH230374   6.739   3.530  17.080  0.0705  0.4176  0.0488
 2060TIP3    H130375   6.715   3.622  17.096  1.3430  0.9967 -1.1514
 2060TIP3    H230376   6.798   3.534  17.005  0.5696 -1.3458  0.3103
 2061TIP3   OH230377   6.925   0.032  18.766 -0.0355 -0.0382 -0.8425
 2061TIP3    H130378   6.917   0.041  18.671 -0.4024 -0.8361 -0.8997
 2061TIP3    H230379   7.019   0.037  18.782  0.1621 -1.2894 -1.4222
 2062TIP3   OH230380   0.924   0.011  18.746 -0.5702 -0.1724 -0.4388
 2062TIP3    H130381   0.846   0.064  18.728 -0.8270 -0.3947 -0.0167
 2062TIP3    H230382   0.940  -0.037  18.665  0.4064  1.4533 -1.2581
 2063TIP3   OH230383   4.582   6.942  18.628 -0.4455  0.1063  0.1740
 2063TIP3    H130384   4.591   6.847  18.618 -1.2299 -0.0660  0.9810
 2063TIP3    H230385   4.606   6.977  18.542  0.9043 -0.7318  0.1712
 2064TIP3   OH230386   0.970   0.961  18.054 -0.1849 -0.7752  0.0821
 2064TIP3    H130387   0.971   1.057  18.059  0.0117 -0.5733 -2.6601
 2064TIP3    H230388   0.892   0.940  18.004  1.6192 -1.7289 -2.5892
 2065TIP3   OH230389   7.445   6.480  18.635  0.1772  0.1944 -0.0331
 2065TIP3    H130390   7.383   6.494  18.563 -0.6987 -0.8896  0.4764
 2065TIP3    H230391   7.394   6.433  18.701  1.4898 -0.4846  0.5154
 2066TIP3   OH230392   7.273   0.898  18.765  0.2909  0.1532  0.0051
 2066TIP3    H130393   7.281   0.842  18.688 -1.3065 -1.0306  0.6484
 2066TIP3    H230394   7.260   0.838  18.838  0.4185  1.2992  1.0049
 2067TIP3   OH230395   7.535   3.225  18.889  0.5219 -0.1063 -0.3211
 2067TIP3    H130396   7.600   3.294  18.879 -0.0030  0.2507 -1.4844
 2067TIP3    H230397   7.457   3.259  18.845 -0.6185 -0.3312  1.3980
 2068TIP3   OH230398   6.124   5.638  19.381  0.1822  0.3662  0.1230
 2068TIP3    H130399   6.197   5.613  19.437 -0.4324 -0.8630  0.4155
 2068TIP3    H230400   6.131   5.580  19.305 -0.2021  0.5885 -0.0855
 2069TIP3   OH230401   1.218   7.226  17.810 -0.2503 -0.1197  0.8538
 2069TIP3    H130402   1.129   7.190  17.810 -0.8498  1.2545  1.5995
 2069TIP3    H230403   1.223   7.278  17.730  0.0307 -0.5264  0.6058
 2070TIP3   OH230404   4.309   2.797  18.606  0.4928 -0.4591  0.5097
 2070TIP3    H130405   4.367   2.748  18.664 -2.1118 -1.9770  2.0008
 2070TIP3    H230406   4.275   2.732  18.545 -0.4566  0.1497  0.3657
 2071TIP3   OH230407   6.142   2.816  19.123  0.1859  0.4230  0.3352
 2071TIP3    H130408   6.224   2.785  19.084  0.3763  0.6388  0.5588
 2071TIP3    H230409   6.077   2.751  19.096  0.7442 -0.6773  1.5372
 2072TIP3   OH230410   0.294   4.998  19.160 -0.0667  0.5023  0.3351
 2072TIP3    H130411   0.198   4.998  19.156 -0.0722  2.1288 -0.7313
 2072TIP3    H230412   0.321   4.992  19.068  0.9702 -2.7213  0.7120
 2073TIP3   OH230413   3.038   7.025  17.822  0.5916 -0.1819  0.2610
 2073TIP3    H130414   3.055   7.119  17.813 -0.7692 -0.0653 -2.1128
 2073TIP3    H230415   3.004   7.015  17.910  0.9542  1.5194  0.6399
 2074TIP3   OH230416   2.854   1.037  17.077  0.7335 -0.2691  0.1019
 2074TIP3    H130417   2.770   0.999  17.050  0.5550 -0.3501  0.7460
 2074TIP3    H230418   2.918   0.997  17.018  0.6173 -2.0079  1.0655
 2075TIP3   OH230419   0.164   7.621  18.858 -0.4065 -0.0067  0.5862
 2075TIP3    H130420   0.232   7.588  18.917  0.2877 -0.6774 -0.5475
 2075TIP3    H230421   0.144   7.547  18.800  0.3592  1.1601 -1.2736
 2076TIP3   OH230422   6.029   7.413  17.955 -0.1060  0.3963 -0.0939
 2076TIP3    H130423   6.115   7.454  17.950 -0.4608  1.1566 -0.1761
 2076TIP3    H230424   6.047   7.320  17.966  0.7260  0.6067  0.3937
 2077TIP3   OH230425   6.677   6.079  17.482 -0.3120  0.0618  0.2599
 2077TIP3    H130426   6.618   6.151  17.503  0.1709  1.0151 -1.4278
 2077TIP3    H230427   6.763   6.121  17.472 -0.2797 -0.4440 -2.1898
 2078TIP3   OH230428   5.203   6.911  18.854  0.1784 -0.0470  0.3288
 2078TIP3    H130429   5.168   6.957  18.930 -0.4265  1.0042 -0.5559
 2078TIP3    H230430   5.139   6.842  18.837  0.7084 -0.7752  1.2156
 2079TIP3   OH230431   1.571   3.886  17.208 -0.2663 -0.0425  0.2422
 2079TIP3    H130432   1.554   3.801  17.249 -0.5283 -0.2629 -0.3206
 2079TIP3    H230433   1.666   3.897  17.214 -0.1699 -0.6318 -0.1844
 2080TIP3   OH230434   6.485   3.925  19.329 -0.0200 -0.5815  0.3203
 2080TIP3    H130435   6.575   3.894  19.337 -0.0251 -0.7327 -0.1903
 2080TIP3    H230436   6.486   4.011  19.371  0.3728 -0.5624  0.2773
 2081TIP3   OH230437   0.247   6.997  17.412 -0.1991 -0.2552  0.4397
 2081TIP3    H130438   0.278   6.985  17.502 -0.4176 -1.6498  0.3529
 2081TIP3    H230439   0.186   6.925  17.398 -0.5872  0.2632 -0.6546
 2082TIP3   OH230440   5.359   6.061  17.298 -0.1372 -0.3000  0.1869
 2082TIP3    H130441   5.295   5.991  17.308 -1.4379  0.9765  1.2573
 2082TIP3    H230442   5.392   6.077  17.387 -0.5415  1.0301  0.1255
 2083TIP3   OH230443   3.969   6.925  17.929  0.2278  0.3953  0.9267
 2083TIP3    H130444   4.050   6.931  17.980 -0.1105  0.3218  1.4827
 2083TIP3    H230445   3.902   6.964  17.987 -0.7231 -2.2690  1.7512
 2084TIP3   OH230446   3.185   1.340  19.425  0.0141 -0.0659 -0.1175
 2084TIP3    H130447   3.097   1.372  19.404 -0.2996 -0.0040  1.1549
 2084TIP3    H230448   3.237   1.419  19.435  0.2269 -0.1033 -0.8826
 2085TIP3   OH230449   1.939   1.437  18.976  0.0980  0.1623 -0.2464
 2085TIP3    H130450   1.983   1.436  19.061  1.5087 -1.9327 -0.9243
 2085TIP3    H230451   1.870   1.371  18.983 -0.9245  1.1937 -0.2190
 2086TIP3   OH230452   7.281   4.081  18.824 -0.0119  0.3564  0.3948
 2086TIP3    H130453   7.281   3.985  18.827 -1.0012  0.3044 -0.5793
 2086TIP3    H230454   7.321   4.101  18.739 -0.0404  0.7985  0.4855
 2087TIP3   OH230455   2.599   2.766  18.331  0.0017 -0.2653 -0.0883
 2087TIP3    H130456   2.562   2.678  18.342  1.8293 -1.3609 -1.8531
 2087TIP3    H230457   2.693   2.750  18.322  0.3919  1.9205 -0.2851
 2088TIP3   OH230458   5.664   1.148  18.163 -0.7602 -0.2420 -0.7520
 2088TIP3    H130459   5.727   1.133  18.093  0.3996 -0.1519  0.2225
 2088TIP3    H230460   5.585   1.178  18.119  0.0495  0.1579 -1.9907
 2089TIP3   OH230461   1.613   5.355  17.281  0.8176 -0.4928 -0.1560
 2089TIP3    H130462   1.673   5.280  17.275  0.6824 -0.4866 -2.1618
 2089TIP3    H230463   1.628   5.404  17.200 -2.0875 -0.6523 -0.9057
 2090TIP3   OH230464   5.889   6.123  19.316  0.1176 -0.4345 -0.1705
 2090TIP3    H130465   5.926   6.040  19.345  0.3601 -0.1116  0.4562
 2090TIP3    H230466   5.840   6.156  19.391  2.6127  1.4954  0.7702
 2091TIP3   OH230467   6.057   3.389  18.881 -0.1323  0.5016  0.8244
 2091TIP3    H130468   6.043   3.412  18.973 -0.0656  1.4686  0.6054
 2091TIP3    H230469   5.970   3.395  18.841 -0.2225 -0.2728  0.8926
 2092TIP3   OH230470   2.597   4.035  19.624 -0.2715  0.0322  0.0832
 2092TIP3    H130471   2.583   3.987  19.705  0.2456 -1.1877 -0.5224
 2092TIP3    H230472   2.691   4.050  19.621 -0.3017  0.1665 -0.2467
 2093TIP3   OH230473   6.068   7.169  16.458 -0.0878 -0.0436 -0.0261
 2093TIP3    H130474   6.005   7.172  16.385  1.0991  1.8052 -1.0637
 2093TIP3    H230475   6.059   7.254  16.501  1.4685  0.1536 -0.0233
 2094TIP3   OH230476   3.508   2.607  18.670  0.1598  0.3272  0.2808
 2094TIP3    H130477   3.502   2.701  18.649  1.6986  0.2748 -0.5442
 2094TIP3    H230478   3.504   2.564  18.584  0.0623 -0.3215  0.6116
 2095TIP3   OH230479   2.418   2.949  19.216  0.2466  0.1187  0.4250
 2095TIP3    H130480   2.410   3.025  19.159 -0.4654  0.2285  0.6588
 2095TIP3    H230481   2.509   2.952  19.248 -0.0190  1.3795  1.1252
 2096TIP3   OH230482   6.769   7.494  16.748  0.0102 -0.0587  0.1579
 2096TIP3    H130483   6.861   7.472  16.763  0.7546  0.5334 -2.8064
 2096TIP3    H230484   6.721   7.446  16.815  2.2479 -3.0893 -0.1867
 2097TIP3   OH230485   7.269   2.281  17.483 -0.1504 -0.2379  0.6507
 2097TIP3    H130486   7.210   2.302  17.555 -0.5732  0.8055  0.0210
 2097TIP3    H230487   7.233   2.328  17.408  0.9390 -0.3642  0.0296
 2098TIP3   OH230488   0.757   0.663  17.136 -0.2975 -0.1909  0.0151
 2098TIP3    H130489   0.795   0.677  17.049  1.2268  0.4092  0.7325
 2098TIP3    H230490   0.823   0.612  17.183 -1.0586 -0.4327  0.8404
 2099TIP3   OH230491   0.902   1.340  17.079  0.0898 -0.0925  0.0650
 2099TIP3    H130492   0.826   1.298  17.039  0.5741  0.3161 -1.3353
 2099TIP3    H230493   0.944   1.387  17.007  0.4064  1.5649  1.2708
 2100TIP3   OH230494   0.873   3.373  19.127  0.0201  0.4976  0.4549
 2100TIP3    H130495   0.826   3.299  19.090 -0.1735  0.7098  0.2675
 2100TIP3    H230496   0.945   3.335  19.176 -0.7477  0.1256  1.3305
 2101TIP3   OH230497   7.073   2.707  17.587 -0.9462  0.3872  0.3087
 2101TIP3    H130498   7.049   2.701  17.494 -1.6815 -0.7949  0.5647
 2101TIP3    H230499   7.168   2.719  17.585 -0.7963 -0.7569 -0.5851
 2102TIP3   OH230500   0.500   6.406  17.590 -0.4373  0.2801  0.1072
 2102TIP3    H130501   0.475   6.450  17.509 -0.8832 -1.0576 -0.5060
 2102TIP3    H230502   0.596   6.405  17.588 -0.4488 -0.1867 -0.6701
 2103TIP3   OH230503   7.197   0.377  18.301  0.6412  0.0394  0.2475
 2103TIP3    H130504   7.157   0.290  18.292  0.1409  0.2781  0.1404
 2103TIP3    H230505   7.124   0.434  18.325  1.0635  0.3357  0.8457
 2104TIP3   OH230506   0.671   5.058  18.282 -0.1524 -0.8193 -0.1750
 2104TIP3    H130507   0.711   5.048  18.196  0.2390 -0.3574 -0.0500
 2104TIP3    H230508   0.739   5.098  18.336 -0.0525 -2.0343  0.6300
 2105TIP3   OH230509   1.724   6.831  19.394  0.0605  0.0549 -0.1873
 2105TIP3    H130510   1.637   6.864  19.416  0.2328  0.1855  0.3129
 2105TIP3    H230511   1.762   6.898  19.337  0.4052  0.7377  0.8151
 2106TIP3   OH230512   6.146   6.529  16.966 -0.4132 -0.2764 -0.2343
 2106TIP3    H130513   6.131   6.435  16.974 -0.4963 -0.3032 -0.6655
 2106TIP3    H230514   6.097   6.554  16.888 -2.0843  0.4824  0.9894
 2107TIP3   OH230515   2.585   7.644  17.375  0.0117 -0.4465  0.2898
 2107TIP3    H130516   2.586   7.589  17.297 -0.4933 -0.4121  0.2521
 2107TIP3    H230517   2.576   7.733  17.341 -0.4347 -0.4494  0.3853
 2108TIP3   OH230518   5.891   1.519  19.535 -0.1498  0.2581  0.5760
 2108TIP3    H130519   5.832   1.445  19.525  2.3489 -1.9175  0.6794
 2108TIP3    H230520   5.865   1.560  19.618 -1.1212 -0.9788  0.9147
 2109TIP3   OH230521   6.904   6.221  19.406 -0.7312 -0.3116  0.4175
 2109TIP3    H130522   6.880   6.313  19.414 -0.3735 -0.2685  1.1295
 2109TIP3    H230523   6.822   6.174  19.423 -1.3121 -0.1291 -1.6255
 2110TIP3   OH230524   6.399   3.064  18.932 -0.0100 -0.3729 -0.6271
 2110TIP3    H130525   6.413   2.971  18.915  3.4534  0.3499 -3.0150
 2110TIP3    H230526   6.349   3.095  18.856  0.6179  0.0249 -0.8868
 2111TIP3   OH230527   3.321   5.673  19.062 -0.1834 -0.5754 -0.0525
 2111TIP3    H130528   3.327   5.627  19.146  0.9904 -1.2881 -0.5040
 2111TIP3    H230529   3.256   5.622  19.012  1.1381 -1.8421 -0.5653
 2112TIP3   OH230530   1.734   0.446  17.011  0.9181  0.0576 -0.0246
 2112TIP3    H130531   1.727   0.356  16.981  1.4347 -0.6233  1.7360
 2112TIP3    H230532   1.654   0.461  17.062  0.7012  0.7002 -0.5409
 2113TIP3   OH230533   6.941   7.496  17.767 -0.3134  0.1889  0.4280
 2113TIP3    H130534   6.879   7.480  17.696 -0.4989 -3.5664  1.1960
 2113TIP3    H230535   6.914   7.579  17.805 -1.7516  1.0756 -2.2726
 2114TIP3   OH230536   2.372   6.977  18.205 -0.4867 -0.2922 -0.3385
 2114TIP3    H130537   2.318   7.054  18.221  0.8117  0.4620  0.6716
 2114TIP3    H230538   2.355   6.920  18.280  1.1132  0.5848  0.7622
 2115TIP3   OH230539   5.595   6.929  18.161  0.0142  0.4315 -0.0075
 2115TIP3    H130540   5.660   6.994  18.187  0.2544  0.0111  0.4554
 2115TIP3    H230541   5.642   6.871  18.102 -0.0726  0.4042 -0.0493
 2116TIP3   OH230542   7.451   7.509  17.317  0.2673  0.0739  0.5867
 2116TIP3    H130543   7.386   7.537  17.253  1.7798 -0.9456 -1.4879
 2116TIP3    H230544   7.436   7.566  17.392 -2.2478  0.6332 -0.2281
 2117TIP3   OH230545   3.402   5.260  18.622 -0.0582  0.1067 -0.4565
 2117TIP3    H130546   3.388   5.168  18.640 -0.2181  0.2744  0.3118
 2117TIP3    H230547   3.424   5.299  18.707  0.6515  0.6605 -0.8747
 2118TIP3   OH230548   5.207   7.180  17.721  0.1275 -0.3173 -0.6567
 2118TIP3    H130549   5.148   7.153  17.651  0.6003 -1.7073 -0.5503
 2118TIP3    H230550   5.272   7.236  17.678 -0.8724  0.7151 -0.8837
 2119TIP3   OH230551   3.557   0.980  18.111 -0.2437 -0.1214 -0.1898
 2119TIP3    H130552   3.538   0.955  18.202  1.9496 -1.1872  0.0417
 2119TIP3    H230553   3.513   0.913  18.058  0.0466 -0.6352  0.1971
 2120TIP3   OH230554   3.428   2.201  17.841  0.5739 -0.3472  0.9462
 2120TIP3    H130555   3.470   2.116  17.856  0.7670 -0.4336 -0.0203
 2120TIP3    H230556   3.497   2.256  17.804  0.0089 -0.3040 -0.0794
 2121TIP3   OH230557   4.448   4.248  18.501  0.2458  0.2433  0.0317
 2121TIP3    H130558   4.387   4.287  18.438  1.8963  0.2593 -1.6491
 2121TIP3    H230559   4.398   4.179  18.544 -1.7849  2.0816  0.8033
 2122TIP3   OH230560   2.559   4.914  17.729  0.4187  0.1793 -0.2864
 2122TIP3    H130561   2.561   5.008  17.712 -1.6452  1.0438  3.2936
 2122TIP3    H230562   2.466   4.892  17.729  0.8745 -2.1095 -1.7103
 2123TIP3   OH230563   2.625   0.263  17.998  0.2864  0.5974 -0.0829
 2123TIP3    H130564   2.529   0.261  17.999  0.3023 -0.4304 -0.3132
 2123TIP3    H230565   2.652   0.184  18.045  1.0331  1.0866  0.3429
 2124TIP3   OH230566   7.592   1.554  17.821 -0.4199 -0.4574 -0.2020
 2124TIP3    H130567   7.616   1.470  17.783  1.6374  0.2114 -0.5462
 2124TIP3    H230568   7.655   1.566  17.893 -0.4022  0.9462 -0.4225
 2125TIP3   OH230569   4.384   2.475  18.745 -0.0778  0.6760 -0.7629
 2125TIP3    H130570   4.312   2.525  18.784  1.5984 -0.3231  4.3501
 2125TIP3    H230571   4.462   2.525  18.767  1.2669 -1.7256  0.2164
 2126TIP3   OH230572   6.135   4.338  19.113 -0.2670  0.1816 -0.3823
 2126TIP3    H130573   6.082   4.268  19.073 -1.1434  1.0409 -0.7607
 2126TIP3    H230574   6.211   4.292  19.148 -1.0196 -1.0349 -0.2456
 2127TIP3   OH230575   6.966   1.073  19.283  0.2709  0.3735 -0.5051
 2127TIP3    H130576   6.900   1.004  19.274  2.0381 -1.4786 -0.1283
 2127TIP3    H230577   6.972   1.088  19.377  1.1706 -0.3457 -0.4281
 2128TIP3   OH230578   4.003   1.952  17.030 -0.1852  0.1102 -0.2692
 2128TIP3    H130579   4.036   2.011  17.098 -0.4291  0.2386 -0.2566
 2128TIP3    H230580   4.012   2.002  16.949 -0.7769  0.3291 -0.2052
 2129TIP3   OH230581   6.366   4.355  18.884 -0.6779  0.5424  0.2286
 2129TIP3    H130582   6.322   4.288  18.832  1.8646 -0.9748 -0.1305
 2129TIP3    H230583   6.362   4.434  18.830 -0.9646 -0.1445 -0.7884
 2130TIP3   OH230584   6.947   3.156  18.909  0.3658  0.5429  0.1135
 2130TIP3    H130585   7.020   3.134  18.967  1.0284  0.4562 -0.7310
 2130TIP3    H230586   6.877   3.097  18.934  0.7291  0.3338  0.6493
 2131TIP3   OH230587   5.824   5.546  17.572  0.4721 -0.1825  0.0042
 2131TIP3    H130588   5.766   5.581  17.505 -2.2029 -1.3623  1.5472
 2131TIP3    H230589   5.839   5.455  17.546 -0.1948 -0.5081  0.7168
 2132TIP3   OH230590   2.604   0.206  17.259 -0.4643  0.0146 -0.2720
 2132TIP3    H130591   2.587   0.243  17.172  2.2257  0.9755 -0.4594
 2132TIP3    H230592   2.631   0.281  17.312 -0.1983 -0.8611  0.8632
 2133TIP3   OH230593   7.608   7.626  17.769  0.5555 -0.4072 -0.2565
 2133TIP3    H130594   7.539   7.560  17.765  1.6650 -1.6676  0.3982
 2133TIP3    H230595   7.602   7.661  17.858  0.5222 -0.2462 -0.3218
 2134TIP3   OH230596   0.492   4.237  17.443  0.0068 -0.0745  0.3617
 2134TIP3    H130597   0.486   4.207  17.534  1.4768 -0.9263  0.2042
 2134TIP3    H230598   0.435   4.176  17.395 -0.7774  0.3801  0.6904
 2135TIP3   OH230599   7.621   4.214  16.531 -0.5194  0.1980 -0.0834
 2135TIP3    H130600   7.694   4.273  16.513 -0.1557  0.6489  2.4672
 2135TIP3    H230601   7.657   4.126  16.517  0.8936  0.3561  1.9804
 2136TIP3   OH230602   5.515   5.083  19.065 -0.2235 -0.2725 -0.2377
 2136TIP3    H130603   5.457   5.131  19.006 -0.5495  0.6292  0.7927
 2136TIP3    H230604   5.499   5.120  19.152  2.6185  0.7387 -0.0348
 2137TIP3   OH230605   3.109   3.083  17.877  0.3087  0.2889 -0.2301
 2137TIP3    H130606   3.142   3.017  17.816  4.6873  0.7004  1.3890
 2137TIP3    H230607   3.122   3.166  17.832  0.2080  0.3839 -0.0848
 2138TIP3   OH230608   4.286   0.567  18.423  0.2187 -0.1908  0.4110
 2138TIP3    H130609   4.311   0.654  18.452 -0.1770 -0.3899  1.4378
 2138TIP3    H230610   4.268   0.575  18.330  0.8062  0.6766  0.3712
 2139TIP3   OH230611   1.119   4.221  17.289 -0.2530 -0.1981 -0.7822
 2139TIP3    H130612   1.057   4.205  17.360 -0.0684 -0.2237 -0.6276
 2139TIP3    H230613   1.200   4.180  17.317  0.3474  1.3067 -0.1921
 2140TIP3   OH230614   5.252   3.632  17.525 -0.4895 -0.0675  0.4197
 2140TIP3    H130615   5.288   3.546  17.503 -1.0457 -0.4266  0.8946
 2140TIP3    H230616   5.221   3.623  17.615 -3.3042 -0.3031 -0.4935
 2141TIP3   OH230617   1.789   2.043  18.513 -0.8248 -0.4188  0.9430
 2141TIP3    H130618   1.844   1.976  18.473  0.6052  1.6076 -0.6736
 2141TIP3    H230619   1.712   2.047  18.457 -0.2477  0.2723  0.1905
 2142TIP3   OH230620   5.815   3.675  18.941 -0.7617  0.3147 -0.2233
 2142TIP3    H130621   5.730   3.661  18.899 -1.7712  0.7834  1.5538
 2142TIP3    H230622   5.832   3.593  18.987  0.2519 -0.1356 -1.3545
 2143TIP3   OH230623   7.534   6.863  19.165  0.2224  0.0531  0.1950
 2143TIP3    H130624   7.596   6.816  19.220 -0.5529 -0.5818  0.5402
 2143TIP3    H230625   7.577   6.947  19.147  1.1014 -0.3059  0.5658
 2144TIP3   OH230626   3.504   3.141  18.924 -0.0030  0.0496  0.1263
 2144TIP3    H130627   3.438   3.148  18.993  0.3505 -1.0695  0.6043
 2144TIP3    H230628   3.507   3.048  18.903  0.7686  0.2134 -0.5417
 2145TIP3   OH230629   1.970   0.946  18.380 -0.5279  0.2575 -0.0283
 2145TIP3    H130630   1.924   0.969  18.461 -1.0452 -0.5959 -0.0686
 2145TIP3    H230631   2.008   0.861  18.397 -0.9597 -0.1052 -0.8081
 2146TIP3   OH230632   0.348   6.095  17.915  0.0638 -0.3535 -0.5665
 2146TIP3    H130633   0.339   6.103  17.820  2.2180  1.0966 -0.7182
 2146TIP3    H230634   0.432   6.052  17.928  0.0484 -0.0543  0.6834
 2147TIP3   OH230635   1.241   4.606  19.139 -0.3704  0.1435  0.2441
 2147TIP3    H130636   1.305   4.576  19.074 -0.7596 -0.4964  0.1424
 2147TIP3    H230637   1.191   4.528  19.160 -0.1941  0.3246  1.3931
 2148TIP3   OH230638   6.568   5.592  16.983 -0.0401  0.4846 -0.0807
 2148TIP3    H130639   6.563   5.548  16.898 -0.2956  0.7354 -0.1978
 2148TIP3    H230640   6.566   5.521  17.047  1.2337  0.2203 -0.3064
 2149TIP3   OH230641   2.485   2.508  17.606  0.3798 -0.1768  0.5792
 2149TIP3    H130642   2.494   2.464  17.521 -0.3616  0.8488 -0.0619
 2149TIP3    H230643   2.557   2.475  17.658  0.6009 -1.1603 -0.3152
 2150TIP3   OH230644   7.587   1.729  19.486 -0.3097  0.5160  0.2261
 2150TIP3    H130645   7.498   1.759  19.468  0.2450  0.8688 -2.2650
 2150TIP3    H230646   7.577   1.635  19.505 -1.1090  0.2033 -1.5443
 2151TIP3   OH230647   6.475   5.291  18.772 -0.0401 -0.1499 -0.5682
 2151TIP3    H130648   6.467   5.203  18.809 -3.2768 -0.1585 -1.0621
 2151TIP3    H230649   6.462   5.279  18.678  0.2862  0.7819 -0.7387
 2152TIP3   OH230650   0.733   5.500  19.188  0.2801 -0.0946 -0.8267
 2152TIP3    H130651   0.729   5.405  19.181 -1.6353 -0.1295  0.0761
 2152TIP3    H230652   0.814   5.517  19.237  0.8929 -1.2169 -1.4266
 2153TIP3   OH230653   1.023   3.129  19.119  0.0554 -0.1399 -0.7863
 2153TIP3    H130654   1.027   3.036  19.096  0.1333 -0.2618 -0.2898
 2153TIP3    H230655   1.092   3.169  19.067  1.1559 -0.6326  0.2319
 2154TIP3   OH230656   6.977   0.220  18.359  0.2524 -0.0009  0.1496
 2154TIP3    H130657   6.898   0.220  18.414  0.0303  1.7915 -0.1099
 2154TIP3    H230658   7.001   0.128  18.352 -1.5424 -0.5476  0.6387
 2155TIP3   OH230659   1.128   5.972  18.956  0.1533  0.1210 -0.3136
 2155TIP3    H130660   1.090   6.034  19.018 -2.1210 -0.2004 -1.2938
 2155TIP3    H230661   1.162   6.027  18.886  0.3878  0.3595 -0.0207
 2156TIP3   OH230662   0.834   1.821  17.711  0.7739 -0.0563 -0.3305
 2156TIP3    H130663   0.745   1.847  17.735  1.6919  1.5251  1.7026
 2156TIP3    H230664   0.823   1.736  17.668 -1.7355  0.3197 -0.6133
 2157TIP3   OH230665   2.924   6.776  18.256  0.2248 -0.1563 -0.9568
 2157TIP3    H130666   2.872   6.709  18.301 -0.8480  0.6284 -0.9771
 2157TIP3    H230667   2.951   6.735  18.174  0.2292 -0.8230 -0.6235
 2158TIP3   OH230668   3.671   3.585  19.523 -0.1444  0.2117  0.1906
 2158TIP3    H130669   3.608   3.563  19.454 -1.2357  0.9980  0.8925
 2158TIP3    H230670   3.752   3.540  19.497 -0.6077  0.2339 -1.4211
 2159TIP3   OH230671   7.387   2.606  19.401  0.4439  0.1399 -0.0716
 2159TIP3    H130672   7.475   2.571  19.417  0.4834 -0.0414 -0.6345
 2159TIP3    H230673   7.346   2.610  19.487  1.2312  0.8522  0.2791
 2160TIP3   OH230674   1.757   2.429  19.567  0.2065  0.9929 -0.0456
 2160TIP3    H130675   1.734   2.371  19.640  2.3336 -0.7442 -0.6424
 2160TIP3    H230676   1.673   2.454  19.529 -0.8730 -1.5709  0.3904
 2161TIP3   OH230677   6.868   2.781  19.338 -0.1352  0.1888  0.1176
 2161TIP3    H130678   6.824   2.750  19.259  2.5480 -3.4071 -0.2193
 2161TIP3    H230679   6.800   2.826  19.388 -3.5825 -2.9274 -1.3381
 2162TIP3   OH230680   6.768   7.549  17.432 -0.6593 -0.0461 -0.6080
 2162TIP3    H130681   6.739   7.541  17.523  0.0438  1.0486 -0.2640
 2162TIP3    H230682   6.754   7.463  17.394 -1.3553 -0.4031  0.4255
 2163TIP3   OH230683   4.486   2.890  19.029  0.3661 -0.2023 -0.0430
 2163TIP3    H130684   4.408   2.848  19.065  0.5723  2.1096  3.5896
 2163TIP3    H230685   4.559   2.842  19.069  0.6605  0.8383  0.7139
 2164TIP3   OH230686   7.406   3.508  17.951 -0.1901  0.0537 -0.2190
 2164TIP3    H130687   7.409   3.412  17.948  2.5135  0.0182  0.5928
 2164TIP3    H230688   7.372   3.528  18.039 -1.4239 -0.1082 -0.6390
 2165TIP3   OH230689   4.408   3.515  18.773  0.3927 -0.1619  0.0067
 2165TIP3    H130690   4.398   3.594  18.827  1.1317 -0.2689  0.3236
 2165TIP3    H230691   4.343   3.454  18.807  1.1687 -0.4035  1.1463
 2166TIP3   OH230692   0.392   1.747  18.240  0.4517  0.1651 -0.5225
 2166TIP3    H130693   0.414   1.750  18.333 -0.1526  1.6919 -0.4027
 2166TIP3    H230694   0.474   1.720  18.197  0.7641 -0.4454  0.4180
 2167TIP3   OH230695   6.285   0.465  19.133 -0.6592  0.4122  0.0985
 2167TIP3    H130696   6.289   0.375  19.100 -1.8676  1.6530 -3.9131
 2167TIP3    H230697   6.362   0.473  19.190  1.6071 -2.1371 -2.3194
 2168TIP3   OH230698   5.078   3.761  19.347 -0.2364 -0.2932  0.7506
 2168TIP3    H130699   5.131   3.744  19.269 -3.5726 -1.0965 -1.5187
 2168TIP3    H230700   5.063   3.855  19.346 -1.2787 -0.4515 -0.3542
 2169TIP3   OH230701   4.937   7.446  18.425 -0.0299 -0.9284  0.5005
 2169TIP3    H130702   4.911   7.484  18.509 -1.1610 -1.4244  0.3977
 2169TIP3    H230703   4.988   7.368  18.448 -0.7432 -1.3351  0.7480
 2170TIP3   OH230704   3.948   5.129  17.900  0.5063  0.1770  0.2642
 2170TIP3    H130705   4.017   5.062  17.900 -0.8045 -1.2066  0.4188
 2170TIP3    H230706   3.958   5.173  17.984 -0.9164 -2.3362  1.8778
 2171TIP3   OH230707   6.268   5.064  17.545 -0.0935 -0.5423 -0.1438
 2171TIP3    H130708   6.218   4.999  17.495 -0.3314 -1.4674  1.2366
 2171TIP3    H230709   6.201   5.123  17.580  0.0134 -0.2633 -0.4114
 2172TIP3   OH230710   5.885   7.521  17.732 -0.3305  0.0105 -0.0852
 2172TIP3    H130711   5.928   7.494  17.813  1.3103 -0.4290 -1.0454
 2172TIP3    H230712   5.857   7.438  17.691  2.2668 -0.1911 -1.7236
 2173TIP3   OH230713   1.890   6.551  18.054 -0.2155  0.0963  0.6647
 2173TIP3    H130714   1.931   6.582  18.135 -1.2766 -1.4926  1.8659
 2173TIP3    H230715   1.803   6.591  18.054 -0.4215 -0.3534  0.5883
 2174TIP3   OH230716   5.158   5.614  19.100 -0.2610 -0.2792  0.1016
 2174TIP3    H130717   5.092   5.561  19.145  0.7467 -0.3523  1.5837
 2174TIP3    H230718   5.140   5.704  19.129  0.7468 -0.3962  1.1736
 2175TIP3   OH230719   4.334   4.786  18.022  0.2982 -0.0059  0.2670
 2175TIP3    H130720   4.416   4.773  17.975  1.0235 -1.6491  1.8787
 2175TIP3    H230721   4.359   4.831  18.103 -0.4871  0.0939  0.4663
 2176TIP3   OH230722   0.974   5.586  19.266  0.5736 -0.0881  0.3712
 2176TIP3    H130723   1.023   5.632  19.197 -1.1141 -0.3251 -1.0412
 2176TIP3    H230724   0.997   5.634  19.346  1.6643  0.9521 -0.5065
 2177TIP3   OH230725   1.470   6.392  19.100 -0.1428 -0.0682 -0.5782
 2177TIP3    H130726   1.497   6.461  19.160 -3.1623  0.4135  0.3974
 2177TIP3    H230727   1.506   6.312  19.139  0.4861  0.5693  0.1991
 2178TIP3   OH230728   6.599   3.564  17.980 -0.0716 -0.1597  0.1701
 2178TIP3    H130729   6.663   3.493  17.971  0.7131  0.4797  0.5295
 2178TIP3    H230730   6.551   3.564  17.897  2.1641  1.0132 -1.2298
 2179TIP3   OH230731   7.311   6.908  18.884  0.1584 -0.3139  0.3479
 2179TIP3    H130732   7.382   6.942  18.938 -0.8355 -0.1011  1.6027
 2179TIP3    H230733   7.335   6.929  18.794  0.3493  2.3287  0.9454
 2180TIP3   OH230734   2.002   2.067  17.551  0.1566  0.5891  0.0968
 2180TIP3    H130735   2.098   2.068  17.555  0.2013  2.9995 -0.2777
 2180TIP3    H230736   1.974   2.114  17.630 -0.7138  0.1447  0.0613
 2181TIP3   OH230737   7.302   3.973  19.138  0.0275 -0.0090 -0.4866
 2181TIP3    H130738   7.243   4.030  19.187 -0.5969  0.1888 -1.4461
 2181TIP3    H230739   7.326   3.904  19.200  0.8830  1.3318  0.7310
 2182TIP3   OH230740   1.428   7.279  17.569 -0.3994 -0.4910 -0.3591
 2182TIP3    H130741   1.350   7.263  17.517  0.2157 -1.4522 -1.0350
 2182TIP3    H230742   1.457   7.191  17.595  0.7977 -0.1948 -0.6477
 2183TIP3   OH230743   1.488   2.869  19.388 -0.9626  0.4589  0.4332
 2183TIP3    H130744   1.457   2.787  19.350 -1.1836  1.3810 -1.5016
 2183TIP3    H230745   1.573   2.884  19.346 -0.5365  0.8184  1.3921
 2184TIP3   OH230746   7.088   2.063  18.527 -0.3224 -0.2491  0.3362
 2184TIP3    H130747   7.135   2.015  18.459 -0.3711  2.1598 -1.5307
 2184TIP3    H230748   6.998   2.032  18.521  0.1877 -1.9872  1.1905
 2185TIP3   OH230749   1.481   5.227  18.491  0.1937 -0.2108 -0.3951
 2185TIP3    H130750   1.492   5.306  18.438 -1.3602 -0.0926 -0.5822
 2185TIP3    H230751   1.543   5.237  18.563 -1.0480  1.9459  0.4600
 2186TIP3   OH230752   2.112   6.394  19.315  0.1632  0.0820 -0.3860
 2186TIP3    H130753   2.089   6.302  19.301 -0.5799  0.2603 -0.3619
 2186TIP3    H230754   2.032   6.435  19.347  0.7601  0.5235  0.6178
 2187TIP3   OH230755   5.826   7.389  17.223  0.2810 -0.7123 -0.2928
 2187TIP3    H130756   5.809   7.307  17.269  1.7026 -0.2380  1.1666
 2187TIP3    H230757   5.871   7.362  17.143 -1.4607 -1.4882 -1.0554
 2188TIP3   OH230758   0.348   1.852  16.788 -0.2483  0.0628 -0.7020
 2188TIP3    H130759   0.331   1.946  16.800 -0.3014 -0.1141  0.7850
 2188TIP3    H230760   0.429   1.849  16.736  0.2302  0.9480 -0.0429
 2189TIP3   OH230761   3.662   5.209  19.026  0.2231  0.1197  0.1831
 2189TIP3    H130762   3.676   5.300  19.052  0.2280 -0.2530  1.5573
 2189TIP3    H230763   3.691   5.158  19.101  1.1306 -1.0780 -0.9404
 2190TIP3   OH230764   0.872   3.778  18.306  0.2081  0.7906  0.2079
 2190TIP3    H130765   0.958   3.755  18.339  0.4156  1.2932  0.0273
 2190TIP3    H230766   0.811   3.727  18.360  0.6361 -0.0061 -0.0498
 2191TIP3   OH230767   3.612   0.316  17.712 -0.0779 -0.0961 -0.0880
 2191TIP3    H130768   3.623   0.379  17.783  1.4707 -0.2179 -0.1771
 2191TIP3    H230769   3.562   0.363  17.645 -3.2845 -0.5795  1.7589
 2192TIP3   OH230770   5.411   6.996  17.468 -0.0911  0.3732 -0.7537
 2192TIP3    H130771   5.485   6.968  17.522  2.3216 -0.7935 -4.2784
 2192TIP3    H230772   5.343   6.931  17.484  1.1389 -0.8453 -0.2900
 2193TIP3   OH230773   1.980   2.768  17.854  0.0560  0.4209 -0.1322
 2193TIP3    H130774   2.029   2.775  17.936  2.9694 -0.3669 -1.6475
 2193TIP3    H230775   1.964   2.858  17.828 -1.5536  0.6904  1.5776
 2194TIP3   OH230776   4.659   1.718  18.949 -0.2343 -0.0346  0.7448
 2194TIP3    H130777   4.641   1.627  18.925 -0.5585  0.5983 -1.6359
 2194TIP3    H230778   4.583   1.745  19.000 -0.7447 -0.7146  0.3591
 2195TIP3   OH230779   0.408   2.734  18.480  0.3184  0.3525  0.0942
 2195TIP3    H130780   0.476   2.691  18.428  0.2356  0.2830  0.0413
 2195TIP3    H230781   0.437   2.825  18.488 -0.3284  0.7057 -1.2318
 2196TIP3   OH230782   3.020   4.279  18.141  0.8716 -0.0067  0.3999
 2196TIP3    H130783   2.945   4.333  18.165  1.8041  1.4409  0.2123
 2196TIP3    H230784   2.983   4.203  18.097 -0.4326  1.2009 -0.6636
 2197TIP3   OH230785   2.508   6.156  18.214  0.3016  0.1747 -0.0119
 2197TIP3    H130786   2.585   6.126  18.166  0.4403  0.6908 -0.1121
 2197TIP3    H230787   2.458   6.207  18.150 -0.6764 -1.0278 -0.2664
 2198TIP3   OH230788   4.741   5.373  18.420  0.0175 -0.0043 -0.0896
 2198TIP3    H130789   4.764   5.464  18.439 -1.2366  0.3532 -0.1713
 2198TIP3    H230790   4.671   5.379  18.355 -1.2710 -0.9284  1.1240
 2199TIP3   OH230791   1.124   1.817  19.414  0.0205  0.3745 -0.0707
 2199TIP3    H130792   1.108   1.886  19.479 -0.2136 -0.0678  0.3543
 2199TIP3    H230793   1.076   1.741  19.448  0.3757 -0.0335 -0.4661
 2200TIP3   OH230794   7.201   3.817  19.375  0.4937 -0.4468 -0.0928
 2200TIP3    H130795   7.262   3.827  19.448  0.1885  0.7780  0.0201
 2200TIP3    H230796   7.136   3.754  19.407  0.8756 -0.6224  0.3429
 2201TIP3   OH230797   4.818   2.561  19.912 -0.2754 -0.3149 -0.4170
 2201TIP3    H130798   4.846   2.630  19.971 -3.3810  0.8293 -0.0969
 2201TIP3    H230799   4.898   2.515  19.889  2.2714  4.1460 -1.7193
 2202TIP3   OH230800   2.890   0.053  17.586  0.2283  0.3763 -0.3658
 2202TIP3    H130801   2.861   0.144  17.597 -0.0634  0.4196 -1.4450
 2202TIP3    H230802   2.981   0.054  17.618 -0.3381  0.6346  1.3222
 2203TIP3   OH230803   7.311   4.109  19.505 -0.0462  0.4235  0.0463
 2203TIP3    H130804   7.256   4.107  19.427  0.8079  0.3441 -0.5645
 2203TIP3    H230805   7.357   4.193  19.499  0.1444  0.3440  0.3909
 2204TIP3   OH230806   7.672   6.434  18.812 -0.4673  0.0164  0.1017
 2204TIP3    H130807   7.621   6.436  18.732 -0.8302 -2.1660  0.2031
 2204TIP3    H230808   7.638   6.506  18.865 -1.0374  0.7380 -1.2265
 2205TIP3   OH230809   3.711   2.052  17.897  0.0880 -0.4071 -0.0373
 2205TIP3    H130810   3.711   2.080  17.806 -1.5336 -0.4109 -0.0584
 2205TIP3    H230811   3.729   2.132  17.947 -0.0006 -0.2207 -0.3048
 2206TIP3   OH230812   6.271   4.907  18.690 -0.6034  0.6210  0.0667
 2206TIP3    H130813   6.181   4.902  18.721 -0.2942  0.6499  0.9762
 2206TIP3    H230814   6.302   4.816  18.693 -1.0832  0.3405 -1.7715
 2207TIP3   OH230815   6.588   4.715  18.982 -0.3703 -0.1473  0.2600
 2207TIP3    H130816   6.656   4.782  18.976  1.0323 -1.4993  0.4802
 2207TIP3    H230817   6.625   4.649  19.041 -1.4494 -1.4098 -0.4293
 2208TIP3   OH230818   7.249   6.533  18.455  0.0429  0.0112 -0.7816
 2208TIP3    H130819   7.168   6.573  18.488 -0.0954 -1.3178  0.6108
 2208TIP3    H230820   7.219   6.462  18.398  0.2240 -0.3626 -0.4143
 2209TIP3   OH230821   3.978   7.650  17.600 -0.0026 -0.5846 -0.3201
 2209TIP3    H130822   3.929   7.731  17.612 -1.1256 -0.9833 -1.8729
 2209TIP3    H230823   4.008   7.627  17.688 -0.8386  0.7780  0.3566
 2210TIP3   OH230824   3.936   6.639  17.943 -0.3607  0.8106  0.0269
 2210TIP3    H130825   3.955   6.732  17.933  1.5493  0.3838 -0.6821
 2210TIP3    H230826   4.016   6.595  17.915 -0.9268 -1.0300  1.1589
 2211TIP3   OH230827   4.691   2.359  18.699 -0.3495  0.8668  0.3451
 2211TIP3    H130828   4.751   2.319  18.636 -0.7239  0.4110  0.2715
 2211TIP3    H230829   4.700   2.453  18.685  0.7927  0.8275  0.7436
 2212TIP3   OH230830   2.398   2.521  19.042  0.1062  0.0817  0.5310
 2212TIP3    H130831   2.490   2.509  19.018 -0.1193  1.7488 -1.5105
 2212TIP3    H230832   2.400   2.589  19.109  0.3519  0.7573 -0.1383
 2213TIP3   OH230833   3.659   3.177  18.198 -0.3124 -0.1015 -0.0957
 2213TIP3    H130834   3.700   3.255  18.160  0.2509 -0.4261 -0.1729
 2213TIP3    H230835   3.586   3.211  18.249 -0.2945  0.4495 -0.4216
 2214TIP3   OH230836   4.102   3.698  17.742 -1.2195 -0.6574  0.3321
 2214TIP3    H130837   4.149   3.616  17.757 -1.8748 -0.6023  3.3623
 2214TIP3    H230838   4.011   3.677  17.765 -1.7505  0.4964 -0.6086
 2215TIP3   OH230839   6.969   2.412  18.990  0.4799 -0.5096 -0.0239
 2215TIP3    H130840   6.929   2.326  18.973  2.0018 -1.1482 -0.5559
 2215TIP3    H230841   7.045   2.392  19.044  0.7679  0.5230 -0.0375
 2216TIP3   OH230842   6.727   1.072  17.180 -0.1544 -0.2935  0.4489
 2216TIP3    H130843   6.688   1.068  17.267  0.5324  0.7898  0.8309
 2216TIP3    H230844   6.672   1.016  17.126 -0.9415 -0.5043  1.4440
 2217TIP3   OH230845   4.952   1.904  19.750  0.1798  0.1183  0.2028
 2217TIP3    H130846   4.948   1.812  19.777  2.4821 -0.3654 -0.9124
 2217TIP3    H230847   4.878   1.914  19.690  0.7825 -1.4843 -0.8906
 2218TIP3   OH230848   4.593   2.494  17.955 -0.3259 -0.3398  0.4684
 2218TIP3    H130849   4.670   2.451  17.917  0.0678  1.1917 -0.5700
 2218TIP3    H230850   4.620   2.585  17.966 -1.1792 -0.2748  2.4436
 2219TIP3   OH230851   2.223   0.044  17.573 -0.1756  0.3001  0.2238
 2219TIP3    H130852   2.266  -0.034  17.609 -0.9096  0.2117  0.9326
 2219TIP3    H230853   2.142   0.052  17.623 -1.3337  0.0601 -1.5156
 2220TIP3   OH230854   5.105   1.140  18.363 -0.2180 -0.3230 -0.0333
 2220TIP3    H130855   5.042   1.208  18.342 -0.6359 -0.2608  1.3368
 2220TIP3    H230856   5.052   1.069  18.401  0.2047 -1.4246 -1.4193
 2221TIP3   OH230857   1.557   3.663  17.443 -0.0036  0.2949 -0.1722
 2221TIP3    H130858   1.626   3.686  17.505  0.0338  0.7514 -0.3773
 2221TIP3    H230859   1.530   3.575  17.468 -1.0689  1.0387  1.4555
 2222TIP3   OH230860   6.783   4.242  17.500  0.3707 -0.0574  0.2451
 2222TIP3    H130861   6.828   4.166  17.464 -0.3245 -0.0733 -0.6119
 2222TIP3    H230862   6.800   4.237  17.594  1.4632 -0.5138  0.0445
 2223TIP3   OH230863   0.578   4.722  18.140  0.3527  0.1057 -0.0474
 2223TIP3    H130864   0.669   4.743  18.117 -0.1982 -0.3356 -3.1160
 2223TIP3    H230865   0.562   4.637  18.100 -1.0845 -0.4116  1.5197
 2224TIP3   OH230866   7.367   6.518  17.912  0.3500 -0.0904  0.2531
 2224TIP3    H130867   7.309   6.550  17.843  1.6833  0.8943 -0.4532
 2224TIP3    H230868   7.400   6.434  17.879  0.1570 -0.1353  0.1738
 2225TIP3   OH230869   6.970   1.693  17.451 -0.3805 -0.1956  0.1526
 2225TIP3    H130870   6.970   1.653  17.538 -1.0869 -0.1054  0.2040
 2225TIP3    H230871   6.882   1.676  17.417  0.4031 -1.7142 -1.2441
 2226TIP3   OH230872   1.333   6.182  19.242  0.0654  0.0744  0.0151
 2226TIP3    H130873   1.301   6.102  19.283 -0.1393  0.4306  0.5631
 2226TIP3    H230874   1.284   6.188  19.160 -0.1634 -0.1863  0.1298
 2227TIP3   OH230875   1.766   7.140  17.633 -0.1458  0.5066  0.0764
 2227TIP3    H130876   1.759   7.125  17.539  0.0634 -0.3662  0.1943
 2227TIP3    H230877   1.842   7.198  17.643 -0.5361  1.1043 -0.3287
 2228TIP3   OH230878   4.028   5.083  18.205  0.2140 -0.0149  0.0977
 2228TIP3    H130879   3.969   5.115  18.273  1.2800 -0.4749  1.2790
 2228TIP3    H230880   3.985   5.005  18.170 -0.5769  0.5089 -0.1192
 2229TIP3   OH230881   2.096   6.558  18.707  0.1419  0.4187 -0.0945
 2229TIP3    H130882   2.133   6.562  18.795 -2.9347 -1.9650  1.5110
 2229TIP3    H230883   2.045   6.639  18.698  0.5136  0.6972  0.3070
 2230TIP3   OH230884   1.099   4.690  18.124 -0.5406  0.0794 -0.7075
 2230TIP3    H130885   1.110   4.615  18.183  0.2179 -0.1322 -1.1100
 2230TIP3    H230886   1.100   4.766  18.182 -1.1433 -0.1986 -0.3124
 2231TIP3   OH230887   0.064   6.061  18.900  0.0933 -0.8094 -0.4793
 2231TIP3    H130888  -0.002   6.127  18.921 -1.4143 -1.9817 -1.2683
 2231TIP3    H230889   0.058   6.051  18.804  0.9806 -1.3802 -0.4846
 2232TIP3   OH230890   7.160   1.764  18.016  0.0959  0.5505  0.7360
 2232TIP3    H130891   7.132   1.693  18.074  0.0567 -0.6500 -0.6979
 2232TIP3    H230892   7.103   1.756  17.940  1.5557  0.7192 -0.4143
 2233TIP3   OH230893   0.132   1.365  19.526 -0.1224  0.0385 -0.2709
 2233TIP3    H130894   0.046   1.377  19.565 -0.0036  0.6739 -0.1926
 2233TIP3    H230895   0.165   1.284  19.566 -1.3897 -1.1976 -1.6418
 2234TIP3   OH230896   3.632   6.029  19.239  0.2233 -0.2353 -0.3932
 2234TIP3    H130897   3.572   6.037  19.314  0.5886 -0.3096 -0.0895
 2234TIP3    H230898   3.676   5.945  19.254  1.3101  0.4008  0.0594
 2235TIP3   OH230899   2.863   2.826  18.915  0.1464 -0.1461  0.0495
 2235TIP3    H130900   2.905   2.758  18.969  0.8139  0.8564  0.8427
 2235TIP3    H230901   2.888   2.908  18.958  0.0972  0.6506 -1.3998
 2236TIP3   OH230902   5.964   5.134  17.330  0.3341 -0.0499 -0.2656
 2236TIP3    H130903   5.888   5.128  17.273 -1.4867 -0.1091  2.0033
 2236TIP3    H230904   6.010   5.051  17.319 -0.3451 -0.3162 -1.1464
 2237TIP3   OH230905   5.168   4.276  18.475  0.4420  0.1913 -0.0795
 2237TIP3    H130906   5.117   4.315  18.546  0.2423  0.3630 -0.3165
 2237TIP3    H230907   5.129   4.312  18.395  0.6849  0.0212 -0.2750
 2238TIP3   OH230908   7.651   3.401  19.202 -0.4609  0.1949 -0.0939
 2238TIP3    H130909   7.592   3.458  19.153 -0.9859 -0.7435 -0.5677
 2238TIP3    H230910   7.611   3.314  19.198  0.9369 -0.4748 -0.4219
 2239TIP3   OH230911   4.777   1.345  17.921  0.3406 -0.7811 -0.6697
 2239TIP3    H130912   4.751   1.262  17.961  0.2783 -0.1669  0.6093
 2239TIP3    H230913   4.733   1.411  17.974 -0.4103  0.0624 -2.2635
 2240TIP3   OH230914   1.807   5.222  18.604 -0.1155 -0.3034 -0.2708
 2240TIP3    H130915   1.884   5.235  18.659 -1.6999 -0.6811  2.2338
 2240TIP3    H230916   1.743   5.285  18.637 -0.7135  0.5374 -2.7822
 2241TIP3   OH230917   5.766   4.062  19.550 -0.1794  0.2624  0.0163
 2241TIP3    H130918   5.681   4.070  19.507 -0.5566  0.4072  0.7796
 2241TIP3    H230919   5.810   4.145  19.532 -0.2817  0.2707 -0.2023
 2242TIP3   OH230920   5.555   4.313  19.856  0.7102 -0.1015  0.7303
 2242TIP3    H130921   5.479   4.363  19.828  0.1765 -0.9670  0.5839
 2242TIP3    H230922   5.542   4.226  19.818  1.2296 -0.5698  1.5778
 2243TIP3   OH230923   3.147   2.449  17.072  0.0725 -0.2658  1.0559
 2243TIP3    H130924   3.123   2.541  17.056  0.8311 -0.0992  0.8387
 2243TIP3    H230925   3.215   2.430  17.007  0.7763 -0.6100  1.8750
 2244TIP3   OH230926   5.239   3.668  18.530  0.1577  0.0914 -0.0871
 2244TIP3    H130927   5.241   3.647  18.437  0.5674  0.1188 -0.0840
 2244TIP3    H230928   5.330   3.684  18.554  0.1351 -0.5422  0.4585
 2245TIP3   OH230929   3.918   4.568  19.119 -0.0082  0.0015 -0.0180
 2245TIP3    H130930   4.009   4.584  19.142  0.0879  1.6782 -1.4477
 2245TIP3    H230931   3.918   4.482  19.077  0.8988 -0.0206  0.0258
 2246TIP3   OH230932   7.105   2.820  19.086  0.1738 -0.1036 -0.1318
 2246TIP3    H130933   7.106   2.733  19.126 -0.1725 -0.6771 -1.3137
 2246TIP3    H230934   7.076   2.805  18.996 -1.6368  1.4431  0.1257
 2247TIP3   OH230935   5.711   5.578  17.834  0.1758  0.0908  0.1685
 2247TIP3    H130936   5.727   5.671  17.852  2.3154  0.0592 -1.1763
 2247TIP3    H230937   5.722   5.570  17.739 -0.0937 -1.5146  0.2573
 2248TIP3   OH230938   6.380   3.061  19.460  0.0853 -0.0268  0.2817
 2248TIP3    H130939   6.369   3.072  19.366 -0.1506  0.5317  0.3758
 2248TIP3    H230940   6.372   2.966  19.473  0.2271 -0.1217 -0.2686
 2249TIP3   OH230941   6.551   5.105  17.519 -0.3129  0.3332  0.0409
 2249TIP3    H130942   6.574   5.150  17.600 -0.6082 -0.7714  0.7641
 2249TIP3    H230943   6.455   5.108  17.516 -0.4152 -1.1855  0.6972
 2250TIP3   OH230944   2.552   4.467  17.999  0.4851  0.1949 -0.4537
 2250TIP3    H130945   2.626   4.409  17.982 -0.5387 -1.3077 -0.0213
 2250TIP3    H230946   2.484   4.439  17.937 -0.1760  0.6272  0.0528
 2251TIP3   OH230947   3.635   5.312  16.758  0.3538 -0.0582 -0.1658
 2251TIP3    H130948   3.663   5.292  16.847  0.6418  1.6899  0.1637
 2251TIP3    H230949   3.706   5.280  16.703  1.2449  0.8771  0.4046
 2252TIP3   OH230950   3.322   1.950  17.695  0.1799 -0.6703  0.7565
 2252TIP3    H130951   3.405   1.928  17.653 -0.7454 -2.5764 -0.2012
 2252TIP3    H230952   3.321   1.898  17.775 -0.4418 -1.3463  0.3228
 2253TIP3   OH230953   3.349   1.189  19.276  0.3688  0.1927  0.2404
 2253TIP3    H130954   3.426   1.160  19.324  0.2232 -0.8016 -0.0902
 2253TIP3    H230955   3.300   1.243  19.338  0.6428 -0.3130  0.9037
 2254TIP3   OH230956   7.053   6.291  18.328  0.4471  0.1193  0.1223
 2254TIP3    H130957   7.073   6.343  18.250  0.8369 -1.6832 -1.0191
 2254TIP3    H230958   7.132   6.240  18.344  0.6170  0.9050  2.1212
 2255TIP3   OH230959   3.369   4.914  17.824 -0.5969  0.0300  0.3230
 2255TIP3    H130960   3.419   4.907  17.742 -0.7630 -1.2617  0.3095
 2255TIP3    H230961   3.435   4.932  17.891 -0.3671  0.3395  0.0192
 2256TIP3   OH230962   6.734   0.788  17.499 -0.0637  0.4026 -0.0363
 2256TIP3    H130963   6.727   0.698  17.532 -0.1755  0.2659 -0.4269
 2256TIP3    H230964   6.721   0.780  17.404 -0.1874  0.8454 -0.0589
 2257TIP3   OH230965   4.316   1.616  17.855  0.0854  0.0112  0.2292
 2257TIP3    H130966   4.366   1.695  17.876  0.2199 -0.0576  0.1758
 2257TIP3    H230967   4.361   1.546  17.904  0.8769 -0.2854 -0.8643
 2258TIP3   OH230968   7.229   2.459  16.782 -0.6851  0.0233  0.3405
 2258TIP3    H130969   7.251   2.492  16.695 -1.0578 -0.6143 -0.0017
 2258TIP3    H230970   7.182   2.532  16.824 -1.3783 -0.0028 -0.3624
 2259TIP3   OH230971   4.554   6.266  18.913  0.1142  0.3948 -0.5504
 2259TIP3    H130972   4.497   6.190  18.907 -1.2051  1.1817  1.0828
 2259TIP3    H230973   4.567   6.294  18.823 -0.3841 -1.0254 -1.0911
 2260TIP3   OH230974   2.002   2.489  19.443  0.2502 -0.1409 -0.8113
 2260TIP3    H130975   1.988   2.580  19.419  1.9585  0.7850  1.3904
 2260TIP3    H230976   1.935   2.471  19.509 -1.0642 -1.0238 -2.3162
 2261TIP3   OH230977   5.524   2.059  17.719  0.1973  0.3603  0.3945
 2261TIP3    H130978   5.615   2.058  17.690  0.5282  2.6004  1.1593
 2261TIP3    H230979   5.474   2.026  17.644  1.5860 -0.7093 -0.1066
 2262TIP3   OH230980   1.524   4.997  17.918  0.3944  0.1617 -0.2965
 2262TIP3    H130981   1.598   5.047  17.954 -0.1747  0.6525  0.2127
 2262TIP3    H230982   1.457   5.000  17.987 -0.2051 -0.0425 -0.8607
 2263TIP3   OH230983   3.461   5.517  17.619  0.1580  0.1149  0.2064
 2263TIP3    H130984   3.400   5.509  17.693 -1.3464 -0.1194 -1.0056
 2263TIP3    H230985   3.453   5.434  17.572  0.2440  0.6663 -0.8133
 2264TIP3   OH230986   3.096   7.674  19.435 -0.4019 -0.4749  0.2166
 2264TIP3    H130987   3.171   7.714  19.479  1.0929 -1.3800 -1.3897
 2264TIP3    H230988   3.036   7.650  19.506  0.1001  1.6313  1.4318
 2265TIP3   OH230989   7.084   6.310  17.311  0.0724 -0.1780 -0.7296
 2265TIP3    H130990   7.077   6.405  17.305 -0.3162 -0.2060 -0.7431
 2265TIP3    H230991   7.160   6.288  17.257  1.3060  0.2929  0.7323
 2266TIP3   OH230992   4.290   6.345  17.705  0.4161  0.4288 -0.3380
 2266TIP3    H130993   4.279   6.252  17.684 -0.3244  0.5147 -0.3446
 2266TIP3    H230994   4.201   6.377  17.718  0.4802  1.6133 -2.3901
 2267TIP3   OH230995   0.510   5.823  19.016  0.3533 -0.2227  0.3624
 2267TIP3    H130996   0.500   5.769  18.937  2.7908 -2.5857  1.5091
 2267TIP3    H230997   0.424   5.863  19.028 -1.3317 -3.0248 -1.2131
 2268TIP3   OH230998   4.473   7.399  17.712  0.3636  0.1867  0.3750
 2268TIP3    H130999   4.510   7.469  17.766  1.4475 -0.1973  0.1653
 2268TIP3    H231000   4.449   7.441  17.630  0.8212  0.3569  0.3259
 2269TIP3   OH231001   4.796   2.014  17.897  0.8147 -0.2664 -0.2534
 2269TIP3    H131002   4.883   2.038  17.863  0.7887 -2.1219 -1.7874
 2269TIP3    H231003   4.814   1.979  17.984  1.6367 -0.7658 -0.6078
 2270TIP3   OH231004   2.700   4.129  18.309  0.1374 -0.1274  0.4018
 2270TIP3    H131005   2.607   4.122  18.289  0.3376  1.5245 -1.5374
 2270TIP3    H231006   2.717   4.061  18.373 -2.1035 -1.4287 -0.2951
 2271TIP3   OH231007   3.922   1.265  16.875  1.0331  0.6036 -0.0791
 2271TIP3    H131008   3.873   1.347  16.880  0.6992  0.4142 -0.2075
 2271TIP3    H231009   3.876   1.214  16.808  1.7244  0.6346 -0.5848
 2272TIP3   OH231010   2.554   4.413  19.546 -0.8538  0.1119  0.9031
 2272TIP3    H131011   2.519   4.330  19.579 -1.4049 -0.3520 -0.7116
 2272TIP3    H231012   2.478   4.460  19.513 -0.8730  2.2780  3.6618
 2273TIP3   OH231013   4.852   6.126  17.031  0.4949  0.6716 -0.1133
 2273TIP3    H131014   4.819   6.211  17.001  0.9503  0.9657  0.2231
 2273TIP3    H231015   4.797   6.062  16.985 -0.9013  1.1554  0.8042
 2274TIP3   OH231016   7.614   6.713  17.746 -0.3274  0.0245  0.2622
 2274TIP3    H131017   7.567   6.633  17.770 -0.2253  0.3838  1.8068
 2274TIP3    H231018   7.661   6.737  17.826  2.7945 -0.4955 -1.2237
 2275TIP3   OH231019   1.786   3.425  18.845  0.0173  0.3637  0.0519
 2275TIP3    H131020   1.713   3.366  18.866  0.7320 -0.6723 -0.3069
 2275TIP3    H231021   1.777   3.496  18.908 -0.2933 -0.6217  1.1646
 2276TIP3   OH231022   0.442   7.164  18.956  0.4078 -0.1756  0.4069
 2276TIP3    H131023   0.381   7.196  19.022 -1.4526 -1.0306 -0.8396
 2276TIP3    H231024   0.479   7.084  18.994 -0.0369 -0.2252  0.7363
 2277TIP3   OH231025   2.722   4.476  17.321  0.0901 -0.4492 -0.3951
 2277TIP3    H131026   2.771   4.478  17.239  1.8335 -1.4683  0.5586
 2277TIP3    H231027   2.776   4.524  17.384 -1.0811  0.0883  0.2360
 2278TIP3   OH231028   1.617   3.965  16.907  0.0619 -0.5662 -0.2968
 2278TIP3    H131029   1.671   3.887  16.919  2.8135  1.4717  2.0862
 2278TIP3    H231030   1.556   3.963  16.981 -0.5789 -0.9508 -0.8279
 2279TIP3   OH231031   7.506   0.629  19.057 -0.2227  0.5607  0.2745
 2279TIP3    H131032   7.490   0.696  18.990  2.4237  1.4834  0.4458
 2279TIP3    H231033   7.477   0.669  19.139  0.2535  1.0449  0.2122
 2280TIP3   OH231034   6.665   2.279  19.107 -0.5212  0.2545 -0.2722
 2280TIP3    H131035   6.590   2.272  19.048 -0.7013 -1.3176  0.0866
 2280TIP3    H231036   6.726   2.212  19.077 -0.8489 -0.9654  1.5921
 2281TIP3   OH231037   4.665   1.587  18.044  0.1324 -0.4292  0.3768
 2281TIP3    H131038   4.640   1.647  18.115 -0.3267  0.9965 -0.9219
 2281TIP3    H231039   4.683   1.645  17.970 -1.2447 -1.9370 -1.2154
 2282TIP3   OH231040   0.142   0.241  19.252  0.1884 -0.3517  0.4139
 2282TIP3    H131041   0.237   0.227  19.256  0.1477 -0.7545  0.0812
 2282TIP3    H231042   0.131   0.315  19.192  0.2077 -1.5429 -1.1477
 2283TIP3   OH231043   5.069   2.973  19.467 -0.2766 -0.0678  0.0106
 2283TIP3    H131044   5.025   2.996  19.548 -0.9325  0.1836 -0.4108
 2283TIP3    H231045   5.112   3.055  19.439 -0.3744 -0.0520 -0.0943
 2284TIP3   OH231046   0.561   1.968  17.761  0.0749 -0.3928  0.6001
 2284TIP3    H131047   0.512   2.045  17.735 -1.0687 -0.7434  1.6392
 2284TIP3    H231048   0.499   1.895  17.752 -0.4226 -0.5608  4.0576
 2285TIP3   OH231049   5.177   0.841  18.547 -0.4146  0.1459  0.5211
 2285TIP3    H131050   5.102   0.889  18.512 -0.7601  1.4865  2.9067
 2285TIP3    H231051   5.143   0.792  18.621  1.0108  0.6807  1.5782
 2286TIP3   OH231052   1.676   4.647  16.632 -0.1545 -0.6268  0.0588
 2286TIP3    H131053   1.595   4.634  16.681 -1.0383  1.6591 -0.6606
 2286TIP3    H231054   1.701   4.738  16.651  1.6350 -0.9438 -0.6135
 2287TIP3   OH231055   4.941   4.492  17.150 -0.1054  0.1288 -0.1559
 2287TIP3    H131056   5.029   4.522  17.173 -0.0738 -0.3697  0.3891
 2287TIP3    H231057   4.956   4.415  17.095 -0.1663 -1.9019  2.4986
 2288TIP3   OH231058   2.949   6.069  19.071  0.6828  0.7037  0.1436
 2288TIP3    H131059   3.021   6.060  19.008 -0.2520 -0.7342 -0.7674
 2288TIP3    H231060   2.877   6.106  19.020  0.5368  1.4618  0.8808
 2289TIP3   OH231061   4.487   1.851  18.537 -0.4340 -0.2854  0.5090
 2289TIP3    H131062   4.423   1.810  18.479  0.7382 -1.6254  0.1047
 2289TIP3    H231063   4.521   1.925  18.487 -0.0638 -0.9108 -0.1871
 2290TIP3   OH231064   5.823   6.427  17.153 -0.5800 -0.5163  0.0000
 2290TIP3    H131065   5.841   6.479  17.231 -0.6557 -1.2785  0.5376
 2290TIP3    H231066   5.818   6.491  17.082 -2.4003  0.4129  0.9001
 2291TIP3   OH231067   6.036   7.124  17.222 -0.4382  0.3773  0.3181
 2291TIP3    H131068   6.077   7.155  17.142 -0.1913  1.6257  0.8931
 2291TIP3    H231069   5.965   7.067  17.193  0.3636 -0.1062 -0.7441
 2292TIP3   OH231070   2.434   1.528  19.044 -0.0524 -0.1287  0.4055
 2292TIP3    H131071   2.466   1.586  19.114  0.7340 -1.8247  1.5152
 2292TIP3    H231072   2.380   1.463  19.090  2.0900 -2.4753 -0.1963
 2293TIP3   OH231073   0.340   0.782  17.993  0.7536 -0.0453 -0.5360
 2293TIP3    H131074   0.371   0.748  17.909 -0.4571 -3.3679  0.1816
 2293TIP3    H231075   0.246   0.798  17.978  0.2611 -1.7803  0.3779
 2294TIP3   OH231076   2.209   7.231  17.792  0.4936  0.2224 -0.1998
 2294TIP3    H131077   2.203   7.180  17.873 -0.7618  1.2507  0.3827
 2294TIP3    H231078   2.184   7.169  17.723 -0.6741 -0.0608  0.4568
 2295TIP3   OH231079   0.129   2.008  19.143 -0.3132  0.0814 -0.1448
 2295TIP3    H131080   0.203   1.984  19.199  0.5166 -1.6523 -1.8458
 2295TIP3    H231081   0.082   1.926  19.129 -2.7199  1.1748  1.0217
 2296TIP3   OH231082   5.055   2.428  19.886  0.4822  0.2754 -0.4025
 2296TIP3    H131083   5.105   2.420  19.968 -1.1360  0.0413  0.6030
 2296TIP3    H231084   5.025   2.339  19.868 -0.6924  0.6187 -0.2376
 2297TIP3   OH231085   3.338   0.035  17.724  0.5420 -0.5980 -0.1382
 2297TIP3    H131086   3.312   0.126  17.708  0.1639 -1.0453 -2.3928
 2297TIP3    H231087   3.261  -0.017  17.698  0.4650 -1.5874  1.8286
 2298TIP3   OH231088   5.868   2.543  17.716  0.3031 -0.9899  0.0652
 2298TIP3    H131089   5.951   2.562  17.673  0.4103 -1.1602  0.1955
 2298TIP3    H231090   5.802   2.552  17.647  0.6721 -3.3763 -0.6766
 2299TIP3   OH231091   1.335   5.674  18.076 -0.2957 -0.0039  0.3825
 2299TIP3    H131092   1.381   5.590  18.073 -0.0324  0.1589 -0.5027
 2299TIP3    H231093   1.264   5.661  18.139 -0.8555 -1.1946 -0.4690
 2300TIP3   OH231094   7.354   1.129  18.884  0.0884 -0.1184  0.0795
 2300TIP3    H131095   7.326   1.049  18.838  2.0547 -1.4182  0.9835
 2300TIP3    H231096   7.385   1.097  18.969 -1.0057  1.9054  1.2961
 2301TIP3   OH231097   3.449   2.334  18.173  0.4568 -0.4299  0.1797
 2301TIP3    H131098   3.448   2.399  18.102 -1.2999 -0.3704  0.1977
 2301TIP3    H231099   3.376   2.360  18.230  0.6172 -1.5956  0.9538
 2302TIP3   OH231100   2.748   6.012  16.791  0.0310  0.0513  0.2034
 2302TIP3    H131101   2.774   6.075  16.723 -1.7794  0.5466 -0.0798
 2302TIP3    H231102   2.724   5.933  16.742 -0.0826 -0.0173  0.3690
 2303TIP3   OH231103   7.389   5.351  19.087 -0.7374 -0.0986  0.4932
 2303TIP3    H131104   7.370   5.445  19.094  1.6209  0.4961 -0.0297
 2303TIP3    H231105   7.483   5.348  19.069 -0.9699 -2.5401 -0.6207
 2304TIP3   OH231106   5.231   2.281  18.757 -0.2078  0.5611 -0.4647
 2304TIP3    H131107   5.152   2.316  18.716 -0.8505  0.9049  0.9822
 2304TIP3    H231108   5.212   2.286  18.851  0.9148 -0.8238 -0.1435
 2305TIP3   OH231109   4.387   4.899  19.275 -0.0802 -0.2206  0.4150
 2305TIP3    H131110   4.298   4.931  19.259 -0.8271 -2.4770 -0.4381
 2305TIP3    H231111   4.422   4.882  19.188  0.6566 -0.6659  0.7877
 2306TIP3   OH231112   6.206   2.024  18.676  0.5659  0.1962 -0.4188
 2306TIP3    H131113   6.192   2.027  18.771  1.0387 -0.6649 -0.3066
 2306TIP3    H231114   6.125   2.057  18.639 -0.3801 -1.2829  0.2643
 2307TIP3   OH231115   6.549   3.373  18.799 -0.3522 -0.3198 -0.0979
 2307TIP3    H131116   6.473   3.315  18.791 -0.7203  0.0152  0.7884
 2307TIP3    H231117   6.597   3.361  18.717 -1.3848 -0.4979 -0.7023
 2308TIP3   OH231118   3.029   1.212  17.264  0.2580  0.1194  0.2210
 2308TIP3    H131119   3.067   1.262  17.191 -0.0184 -0.8620 -0.6278
 2308TIP3    H231120   3.009   1.126  17.226  1.2208 -0.8296  1.7734
 2309TIP3   OH231121   2.602   6.374  18.441  0.3085  0.1112  0.4329
 2309TIP3    H131122   2.582   6.324  18.362  0.5644  0.3414  0.2233
 2309TIP3    H231123   2.596   6.309  18.512 -3.6131  0.5712  0.7650
 2310TIP3   OH231124   2.969   6.486  17.601 -0.0327 -0.6923 -0.0472
 2310TIP3    H131125   2.894   6.504  17.658 -1.6230 -0.7300 -2.0142
 2310TIP3    H231126   2.939   6.414  17.544  1.2650 -0.3020 -1.2777
 2311TIP3   OH231127   3.141   7.038  17.433 -0.6120 -0.3295  1.0190
 2311TIP3    H131128   3.161   7.108  17.371  0.9320  0.2078  2.0792
 2311TIP3    H231129   3.067   6.991  17.393 -0.6398  0.9173 -0.4724
 2312TIP3   OH231130   7.224   5.545  18.836 -0.6120  0.6781  0.4223
 2312TIP3    H131131   7.258   5.569  18.922 -0.0371  1.9935 -0.1387
 2312TIP3    H231132   7.208   5.629  18.793 -2.8670  0.0787 -0.0182
 2313TIP3   OH231133   7.043   3.591  19.451 -0.0923 -0.1127  0.4568
 2313TIP3    H131134   6.953   3.560  19.435 -0.0700 -0.0217  0.1434
 2313TIP3    H231135   7.091   3.512  19.477 -0.3511 -0.0941  0.9972
 2314TIP3   OH231136   6.016   5.695  17.382 -0.2434 -0.1604  0.0518
 2314TIP3    H131137   5.927   5.667  17.364  0.0934 -0.2807 -1.5851
 2314TIP3    H231138   6.017   5.789  17.361  0.3026 -0.4212 -1.1404
 2315TIP3   OH231139   1.146   2.799  19.031  0.4226 -0.4366 -0.0411
 2315TIP3    H131140   1.187   2.844  19.104  0.5573 -0.8477  0.1415
 2315TIP3    H231141   1.180   2.844  18.953 -0.2826  0.4656  0.1592
 2316TIP3   OH231142   4.396   1.204  18.472  0.1507 -0.5105 -0.6927
 2316TIP3    H131143   4.333   1.149  18.518 -0.3506 -0.0228 -0.7915
 2316TIP3    H231144   4.347   1.282  18.447  1.1595  0.5817  0.5641
 2317TIP3   OH231145   7.262   1.239  16.912  0.3199  0.2339 -0.0115
 2317TIP3    H131146   7.221   1.325  16.905  3.4795  2.3396  3.4268
 2317TIP3    H231147   7.204   1.189  16.970 -1.2223  0.1406 -1.5433
 2318TIP3   OH231148   1.925   3.756  19.041  0.0263 -0.3254 -0.0330
 2318TIP3    H131149   1.883   3.829  19.087 -2.0656 -2.0603  1.0404
 2318TIP3    H231150   2.019   3.772  19.050 -0.3569  1.5190  1.3052
 2319TIP3   OH231151   6.795   0.483  17.195 -0.0718 -0.4080 -0.1134
 2319TIP3    H131152   6.776   0.576  17.184 -0.8104 -0.5687 -0.2708
 2319TIP3    H231153   6.710   0.440  17.185 -0.4871 -0.8108  3.6810
 2320TIP3   OH231154   1.520   5.022  18.333 -0.6438  0.1034 -0.1378
 2320TIP3    H131155   1.526   4.936  18.373 -0.3790  0.5383  0.7847
 2320TIP3    H231156   1.489   5.080  18.403 -1.2706  0.6790 -0.8635
 2321TIP3   OH231157   4.779   5.236  18.900  0.5502 -0.7492 -0.2250
 2321TIP3    H131158   4.692   5.223  18.937 -0.5573  0.1811 -2.3057
 2321TIP3    H231159   4.800   5.328  18.919  0.2358 -0.4404 -1.2837
 2322TIP3   OH231160   0.095   0.422  18.829 -0.2063 -0.2117  0.4610
 2322TIP3    H131161   0.066   0.451  18.915 -0.8547 -1.7063  0.7669
 2322TIP3    H231162   0.086   0.327  18.830  0.8796 -0.3683 -0.8628
 2323TIP3   OH231163   0.942   0.903  19.105 -0.2817 -0.8184 -0.2172
 2323TIP3    H131164   0.858   0.929  19.143  0.3139  1.4339 -0.2511
 2323TIP3    H231165   0.921   0.874  19.016 -1.2429 -2.4711  0.5121
 2324TIP3   OH231166   6.055   4.801  18.791  0.3195 -0.6357 -0.4684
 2324TIP3    H131167   6.091   4.713  18.803 -0.6884 -0.9244  0.6083
 2324TIP3    H231168   5.962   4.792  18.811  0.1784  0.6531 -0.4607
 2325TIP3   OH231169   5.015   1.430  18.333  0.4765  0.2630  0.0185
 2325TIP3    H131170   5.017   1.399  18.243  0.1350 -0.9596  0.4034
 2325TIP3    H231171   4.922   1.447  18.351  0.5714  0.7438  0.0617
 2326TIP3   OH231172   6.063   2.252  17.887  0.2151  0.5731 -0.4280
 2326TIP3    H131173   6.096   2.174  17.934 -1.4744 -0.0454 -0.2121
 2326TIP3    H231174   5.977   2.226  17.855 -0.0429  2.1092 -1.0439
 2327TIP3   OH231175   7.137   1.499  16.931 -0.0868  0.0139  0.0575
 2327TIP3    H131176   7.134   1.559  17.005 -1.9338 -0.7467  0.6661
 2327TIP3    H231177   7.071   1.433  16.952  1.6687 -2.0935 -0.7145
 2328TIP3   OH231178   5.972   4.606  17.317 -0.1803 -0.5001  0.5767
 2328TIP3    H131179   5.886   4.647  17.312 -0.1528 -0.3819  1.0636
 2328TIP3    H231180   5.998   4.593  17.226 -1.1038 -1.3539  0.4281
 2329TIP3   OH231181   0.937   4.885  18.846 -0.1437 -0.5544  0.2068
 2329TIP3    H131182   0.981   4.807  18.813 -0.2744 -0.6905  0.3553
 2329TIP3    H231183   0.899   4.925  18.768  0.4359 -0.3118  0.0449
 2330TIP3   OH231184   3.743   0.712  17.025  0.2536  0.6185  0.0361
 2330TIP3    H131185   3.701   0.636  16.983  1.0371  0.8725 -1.2979
 2330TIP3    H231186   3.717   0.786  16.971  0.6834  1.0805  0.4537
 2331TIP3   OH231187   7.509   3.477  18.578  0.1899 -0.3528 -0.0039
 2331TIP3    H131188   7.592   3.473  18.530  0.4847 -0.0381  0.4586
 2331TIP3    H231189   7.443   3.498  18.512  0.6494  0.5008 -0.2168
 2332TIP3   OH231190   4.900   1.246  19.515  1.1516  0.3138 -0.7773
 2332TIP3    H131191   4.991   1.256  19.486  0.6828 -0.2396 -2.6080
 2332TIP3    H231192   4.866   1.174  19.462 -0.1860  0.0749  0.3447
 2333TIP3   OH231193   0.002   0.022  16.551  0.1654 -0.2282 -0.6218
 2333TIP3    H131194  -0.068  -0.044  16.547 -0.7789  0.8115 -2.5151
 2333TIP3    H231195   0.070  -0.011  16.492  0.2665 -0.1360 -0.5580
 2334TIP3   OH231196   7.137   6.271  17.902  0.0663  0.3361  0.5809
 2334TIP3    H131197   7.185   6.240  17.825  0.4804  1.6924  0.2665
 2334TIP3    H231198   7.047   6.280  17.873  0.3514  1.5640  0.0051
 2335TIP3   OH231199   6.874   2.045  17.524 -0.0475 -0.0687  0.1212
 2335TIP3    H131200   6.951   1.997  17.491 -0.2301 -0.8351  0.7969
 2335TIP3    H231201   6.802   1.983  17.515 -0.7643  0.9093 -1.2319
 2336TIP3   OH231202   1.870   5.340  16.922  0.1810  0.4586  0.4469
 2336TIP3    H131203   1.908   5.402  16.861 -1.2743  1.1632  0.2063
 2336TIP3    H231204   1.832   5.395  16.991 -1.3057 -0.1254  0.1287
 2337TIP3   OH231205   1.183   6.452  19.295 -0.1993  0.1980 -0.0086
 2337TIP3    H131206   1.118   6.391  19.330  1.1493 -0.7577  0.9543
 2337TIP3    H231207   1.214   6.411  19.215  0.6600 -0.4041  0.6053
 2338TIP3   OH231208   2.974   5.573  18.435  0.0944 -0.0155  0.6497
 2338TIP3    H131209   2.982   5.667  18.418 -0.8063 -0.1366 -0.6177
 2338TIP3    H231210   2.957   5.534  18.349  3.8125 -1.7915  0.5071
 2339TIP3   OH231211   2.473   6.639  18.906 -0.0594  0.0004 -0.2970
 2339TIP3    H131212   2.414   6.680  18.842 -0.0428 -2.7896 -2.2979
 2339TIP3    H231213   2.561   6.656  18.871  0.1483  1.0113  0.6706
 2340TIP3   OH231214   6.513   4.200  19.431 -0.5198  0.8244 -0.7632
 2340TIP3    H131215   6.593   4.149  19.444 -1.6252 -2.6437 -5.0280
 2340TIP3    H231216   6.540   4.270  19.371 -0.6003 -0.5944 -2.5443
 2341TIP3   OH231217   1.500   0.033  19.186 -0.1287  0.3193  0.2893
 2341TIP3    H131218   1.594   0.049  19.188  0.0073 -0.3428 -0.3320
 2341TIP3    H231219   1.492  -0.062  19.194 -0.6292  0.1376 -1.6609
 2342TIP3   OH231220   0.325   6.455  18.437  0.1607  0.4703 -0.4446
 2342TIP3    H131221   0.332   6.406  18.355  0.7281 -0.3322  0.0635
 2342TIP3    H231222   0.235   6.488  18.438 -0.4932 -1.1938 -0.4733
 2343TIP3   OH231223   3.293   6.331  18.417  0.2117  0.0750  0.8059
 2343TIP3    H131224   3.278   6.348  18.510  0.2672 -0.7797  0.9785
 2343TIP3    H231225   3.341   6.249  18.415 -0.2265 -0.1722 -0.0038
 2344TIP3   OH231226   6.151   6.140  17.823  0.2978 -0.3588 -0.2755
 2344TIP3    H131227   6.114   6.207  17.880  0.6320  0.1110 -0.6008
 2344TIP3    H231228   6.101   6.061  17.843 -1.3113  0.3929 -1.1377
 2345TIP3   OH231229   1.576   3.669  16.891 -0.2984 -0.4383  0.0074
 2345TIP3    H131230   1.578   3.725  16.813  0.0687  1.3858  1.2615
 2345TIP3    H231231   1.655   3.694  16.940 -0.5851 -1.4538  1.0347
 2346TIP3   OH231232   4.084   2.859  17.974  0.3750 -0.1057  0.3877
 2346TIP3    H131233   4.020   2.927  17.997  0.6517  0.1099  0.5249
 2346TIP3    H231234   4.167   2.906  17.964 -0.1128  0.2443 -3.5524
 2347TIP3   OH231235   2.185   4.641  17.707  0.3863 -0.1583  0.2997
 2347TIP3    H131236   2.096   4.608  17.717 -0.0185  1.4019  2.4817
 2347TIP3    H231237   2.234   4.598  17.777  1.2565 -0.5719 -0.5418
 2348TIP3   OH231238   7.606   6.220  17.389  0.2959 -0.7791 -0.1245
 2348TIP3    H131239   7.547   6.291  17.363 -0.8143 -1.8052 -0.4989
 2348TIP3    H231240   7.667   6.261  17.450 -0.3235  0.4926 -0.3199
 2349TIP3   OH231241   2.896   6.731  17.781  0.0911 -0.1127 -0.0716
 2349TIP3    H131242   2.923   6.784  17.706  0.2144  0.1891  0.1855
 2349TIP3    H231243   2.850   6.792  17.838 -2.0225 -0.8040 -0.9325
 2350TIP3   OH231244   3.124   5.235  19.024 -0.3141  0.1998  0.5270
 2350TIP3    H131245   3.183   5.256  19.096  0.3399 -0.3532  0.1554
 2350TIP3    H231246   3.161   5.157  18.983 -2.0966 -1.0582  1.1787
 2351TIP3   OH231247   7.552   2.333  18.178  0.1199  0.1300 -0.3122
 2351TIP3    H131248   7.472   2.332  18.230 -0.1586  1.5761 -0.6812
 2351TIP3    H231249   7.573   2.426  18.167  2.3280 -0.2013  0.4970
 2352TIP3   OH231250   4.074   0.590  17.930  0.3015 -0.7410 -0.1154
 2352TIP3    H131251   4.119   0.651  17.872  1.0554  0.7448  1.9057
 2352TIP3    H231252   3.992   0.571  17.886  1.1738 -0.3415 -2.0211
 2353TIP3   OH231253   1.500   0.185  19.575  0.3872  0.3197  0.0145
 2353TIP3    H131254   1.484   0.095  19.548 -1.3757  0.9464 -1.1738
 2353TIP3    H231255   1.463   0.191  19.663  0.4720 -0.0986  0.0801
 2354TIP3   OH231256   7.456   2.091  18.456  0.3313  0.5158  0.2333
 2354TIP3    H131257   7.478   2.141  18.534 -0.1522  1.3432 -0.1441
 2354TIP3    H231258   7.411   2.154  18.399  1.3186  0.1445 -1.0240
 2355TIP3   OH231259   0.550   0.318  18.497  0.2080 -0.4784 -0.1381
 2355TIP3    H131260   0.593   0.305  18.412 -0.4292 -0.5572 -0.4607
 2355TIP3    H231261   0.460   0.287  18.483 -0.0741  0.0685  0.3901
 2356TIP3   OH231262   0.327   4.701  19.122 -0.7638  0.0786  0.2912
 2356TIP3    H131263   0.330   4.685  19.216  1.1621 -0.2020  0.2326
 2356TIP3    H231264   0.328   4.796  19.113 -1.9987  0.1312  0.5387
 2357TIP3   OH231265   7.133   0.388  19.266 -0.0333  0.5538 -0.0329
 2357TIP3    H131266   7.195   0.354  19.331  0.0401  2.2657  0.8588
 2357TIP3    H231267   7.060   0.327  19.268  1.3801 -1.2545 -0.7606
 2358TIP3   OH231268   6.370   2.605  18.729  0.6346  0.0279 -0.1406
 2358TIP3    H131269   6.280   2.634  18.715  0.7648  1.2673  1.2979
 2358TIP3    H231270   6.362   2.527  18.785  0.4557  0.8786  1.0719
 2359TIP3   OH231271   5.298   4.265  18.049  0.2144 -0.1979 -0.1474
 2359TIP3    H131272   5.290   4.181  18.004  0.7524 -0.5350  0.3649
 2359TIP3    H231273   5.371   4.252  18.110  1.6655  1.2374 -1.4465
 2360TIP3   OH231274   5.561   7.383  19.391  0.2981  0.1349 -0.4431
 2360TIP3    H131275   5.601   7.311  19.343 -0.8632 -0.4634 -0.5327
 2360TIP3    H231276   5.488   7.343  19.439  1.4667  0.6745  1.9290
 2361TIP3   OH231277   6.096   4.378  16.323 -0.1966 -0.3626 -0.3868
 2361TIP3    H131278   6.026   4.441  16.305 -0.2744 -0.3464 -0.0352
 2361TIP3    H231279   6.145   4.372  16.241  0.7942  1.3930  0.0339
 2362TIP3   OH231280   3.111   0.215  17.896  0.1526  0.2884 -0.2505
 2362TIP3    H131281   3.099   0.265  17.976 -0.5756  2.1165 -1.4460
 2362TIP3    H231282   3.072   0.129  17.915 -2.0775  1.4318  0.6345
 2363TIP3   OH231283   3.687   1.609  16.645 -0.3982  0.1587 -0.0862
 2363TIP3    H131284   3.685   1.532  16.588  1.5109  0.7795 -1.0777
 2363TIP3    H231285   3.645   1.678  16.594 -0.3546  0.2517  0.0033
 2364TIP3   OH231286   7.267   6.388  18.819  0.2169 -0.5293 -0.0939
 2364TIP3    H131287   7.201   6.342  18.767  0.7795 -1.3615 -0.0903
 2364TIP3    H231288   7.216   6.441  18.881 -0.4630 -1.8623  0.5246
 2365TIP3   OH231289   1.270   6.712  17.528 -0.4509  0.2457 -0.2979
 2365TIP3    H131290   1.202   6.779  17.527  0.9577  1.7251 -0.0899
 2365TIP3    H231291   1.338   6.746  17.470  1.6107  0.4567  2.0685
 2366TIP3   OH231292   3.635   0.700  18.078  0.7409 -0.2342  0.1705
 2366TIP3    H131293   3.548   0.680  18.113  0.9681 -0.4841  0.6015
 2366TIP3    H231294   3.691   0.707  18.155  1.0726  0.0955 -0.0955
 2367TIP3   OH231295   1.620   7.257  18.379 -0.6236  0.0636 -0.3275
 2367TIP3    H131296   1.629   7.167  18.349  1.1558 -1.0943  3.1023
 2367TIP3    H231297   1.559   7.252  18.453  0.9876  1.2674  1.1577
 2368TIP3   OH231298   3.138   6.838  18.383 -0.1399  0.8388 -0.3899
 2368TIP3    H131299   3.121   6.899  18.454 -1.6345  0.8773 -0.7435
 2368TIP3    H231300   3.052   6.822  18.344  0.5417  0.2680 -1.7373
 2369TIP3   OH231301   1.854   1.772  19.377 -0.1969  0.5685  0.2344
 2369TIP3    H131302   1.813   1.722  19.305  0.7368  1.4580 -0.9545
 2369TIP3    H231303   1.897   1.705  19.430  2.7708  0.0782 -2.4399
 2370TIP3   OH231304   0.267   4.034  18.611 -0.1328  0.4460 -0.1579
 2370TIP3    H131305   0.181   4.062  18.581 -0.5058 -0.1019  0.3807
 2370TIP3    H231306   0.289   3.960  18.554 -1.0725 -0.9381  1.1683
 2371TIP3   OH231307   6.448   5.072  17.220 -0.6334 -0.3685 -0.2721
 2371TIP3    H131308   6.361   5.036  17.212 -0.5110 -0.7932  0.2409
 2371TIP3    H231309   6.454   5.100  17.312 -1.0069  1.6917 -0.8145
 2372TIP3   OH231310   4.065   1.004  17.519 -0.6982 -0.2162 -0.3916
 2372TIP3    H131311   3.970   0.995  17.519 -0.7026 -0.7443  1.7947
 2372TIP3    H231312   4.097   0.923  17.479 -1.1565 -0.3515 -0.4903
 2373TIP3   OH231313   2.698   0.713  16.945 -0.3793  0.3059 -0.0637
 2373TIP3    H131314   2.670   0.805  16.941 -0.3564  0.2990 -0.3564
 2373TIP3    H231315   2.617   0.662  16.944 -0.4744  0.3559  1.4656
 2374TIP3   OH231316   6.886   5.371  17.258 -0.0330  0.4361  0.2335
 2374TIP3    H131317   6.858   5.331  17.340 -1.4358 -1.3088 -1.0386
 2374TIP3    H231318   6.865   5.464  17.268 -0.5437  0.1868  1.6719
 2375TIP3   OH231319   6.134   4.543  17.677  0.1228  0.3300  0.1680
 2375TIP3    H131320   6.046   4.509  17.695  0.2096  0.0450  0.0643
 2375TIP3    H231321   6.164   4.493  17.602 -0.6295  2.1958 -1.4523
 2376TIP3   OH231322   7.176   6.140  18.578 -0.0714  0.8196 -0.0789
 2376TIP3    H131323   7.118   6.206  18.615  1.1068  1.6550  0.3132
 2376TIP3    H231324   7.158   6.061  18.630 -0.0589  1.3735  0.7952
 2377TIP3   OH231325   4.862   0.071  19.561 -0.9605 -0.1810  0.6197
 2377TIP3    H131326   4.916   0.010  19.611 -0.3766 -0.9563 -0.8993
 2377TIP3    H231327   4.778   0.027  19.551 -0.9728 -0.1621  0.6382
 2378TIP3   OH231328   4.786   1.376  18.715 -0.4959  0.2886 -0.2582
 2378TIP3    H131329   4.813   1.284  18.711  1.0000  0.6912  0.1261
 2378TIP3    H231330   4.778   1.394  18.809  0.7533  0.9548 -0.2601
 2379TIP3   OH231331   1.459   7.584  19.570 -0.1486  0.3228 -0.1950
 2379TIP3    H131332   1.439   7.530  19.494  1.8534  0.4623 -0.8813
 2379TIP3    H231333   1.520   7.532  19.622  1.2195  1.5419 -0.4814
 2380TIP3   OH231334   3.920   4.981  18.917 -0.2279 -0.3586  0.0128
 2380TIP3    H131335   4.007   5.016  18.936 -0.5076 -0.2614  1.1591
 2380TIP3    H231336   3.860   5.052  18.940 -0.7235 -1.1449  1.2187
 2381TIP3   OH231337   3.881   5.498  18.011  0.2853  0.2071  0.0023
 2381TIP3    H131338   3.822   5.462  18.077 -0.3942  1.9583  0.3880
 2381TIP3    H231339   3.827   5.508  17.933  0.7763 -0.6854 -0.4696
 2382TIP3   OH231340   3.195   3.756  17.137  0.2375  0.2387 -0.2836
 2382TIP3    H131341   3.196   3.812  17.059  0.6588  0.6235 -0.0105
 2382TIP3    H231342   3.238   3.809  17.204 -2.1518  0.8514  0.8603
 2383TIP3   OH231343   4.804   3.027  19.062 -0.4251  0.3272  0.2433
 2383TIP3    H131344   4.826   3.005  18.971  2.3737  0.6389  0.7361
 2383TIP3    H231345   4.782   2.943  19.102 -0.9629  0.0828 -0.5539
 2384TIP3   OH231346   1.565   2.811  18.376  0.1998  0.4864 -0.2391
 2384TIP3    H131347   1.597   2.868  18.447 -0.5326  0.6876 -0.0658
 2384TIP3    H231348   1.597   2.724  18.399  0.8466  0.7267 -0.2059
 2385TIP3   OH231349   0.497   0.160  17.588  0.1302 -0.1929 -0.3907
 2385TIP3    H131350   0.487   0.252  17.566 -1.9179 -0.3743 -0.4240
 2385TIP3    H231351   0.444   0.149  17.667  0.2388 -1.3757 -0.4650
 2386TIP3   OH231352   7.581   3.263  19.490 -0.3776  0.4691  0.1188
 2386TIP3    H131353   7.557   3.227  19.404  0.8965 -0.7483  0.2414
 2386TIP3    H231354   7.672   3.293  19.478  0.2069 -0.7454  1.3248
 2387TIP3   OH231355   3.640   5.597  17.802  0.2565  0.3644  0.0050
 2387TIP3    H131356   3.572   5.580  17.737 -0.6461  0.2869  0.9446
 2387TIP3    H231357   3.600   5.658  17.864  0.1501 -1.5489  1.9366
 2388TIP3   OH231358   6.757   3.824  19.270 -0.4245  0.0543 -0.2092
 2388TIP3    H131359   6.723   3.735  19.280 -0.0026 -0.0407  0.4650
 2388TIP3    H231360   6.836   3.814  19.216  0.0580 -0.0936  0.5066
 2389TIP3   OH231361   0.423   0.692  17.763  0.3911 -0.0544 -0.2704
 2389TIP3    H131362   0.457   0.711  17.675 -0.1210  3.1106  0.1185
 2389TIP3    H231363   0.501   0.668  17.814  1.1120  0.8219 -0.9274
 2390TIP3   OH231364   1.876   3.155  18.888  0.3602 -0.1646  0.0483
 2390TIP3    H131365   1.814   3.082  18.891 -0.2643  0.2735 -1.5010
 2390TIP3    H231366   1.821   3.232  18.875  1.1457  0.4002  0.0341
 2391TIP3   OH231367   2.463   6.399  19.061  0.0410 -0.2262 -0.0431
 2391TIP3    H131368   2.519   6.430  19.133  0.7718 -0.7046 -0.3831
 2391TIP3    H231369   2.444   6.476  19.009  0.0109  0.0196  0.3297
 2392TIP3   OH231370   4.241   0.216  18.710  0.1783  0.3523  0.7962
 2392TIP3    H131371   4.204   0.168  18.784  1.1058  1.6182  2.1389
 2392TIP3    H231372   4.177   0.206  18.640  0.5845 -3.3720  0.7315
 2393TIP3   OH231373   7.465   4.992  18.088  0.1724 -0.1683  0.1876
 2393TIP3    H131374   7.490   5.013  17.998 -0.2650 -0.2864  0.0361
 2393TIP3    H231375   7.451   4.897  18.088 -0.8461 -0.0352  0.1173
 2394TIP3   OH231376   4.346   5.609  19.360  0.3398  0.4348 -0.4404
 2394TIP3    H131377   4.273   5.662  19.392  0.7830 -0.6790  2.8534
 2394TIP3    H231378   4.305   5.542  19.306 -0.9465  0.5659  0.3382
 2395TIP3   OH231379   1.489   2.691  18.706 -0.1814 -0.3077 -1.2248
 2395TIP3    H131380   1.515   2.780  18.728 -0.1913 -0.8238  1.1518
 2395TIP3    H231381   1.565   2.638  18.728 -0.0828 -0.9042 -2.8482
 2396TIP3   OH231382   0.324   2.836  17.227 -0.4483  0.7025  0.2038
 2396TIP3    H131383   0.371   2.833  17.144 -0.1842  0.3187  0.3666
 2396TIP3    H231384   0.289   2.925  17.231 -1.1676  0.4803 -0.7046
 2397TIP3   OH231385   3.377   2.945  18.437 -0.0466  0.3583  0.0868
 2397TIP3    H131386   3.447   2.985  18.489  0.8569  1.6676 -2.0166
 2397TIP3    H231387   3.417   2.868  18.397  0.0330  0.7913 -0.6762
 2398TIP3   OH231388   6.729   2.971  18.950  0.3928  0.1722  0.5174
 2398TIP3    H131389   6.709   2.877  18.945  0.5752  0.1709 -0.3193
 2398TIP3    H231390   6.740   2.988  19.043 -0.6886 -0.4248  0.7738
 2399TIP3   OH231391   0.626   0.697  19.149  0.3351 -0.4976  0.6506
 2399TIP3    H131392   0.646   0.605  19.168 -0.3838 -0.9058 -0.4429
 2399TIP3    H231393   0.591   0.695  19.059  0.9219  0.9333  0.3734
 2400TIP3   OH231394   0.371   1.096  19.356 -0.0944 -0.1480  1.0141
 2400TIP3    H131395   0.427   1.160  19.399  2.1074 -1.1641 -0.2060
 2400TIP3    H231396   0.411   1.012  19.373 -0.7155 -0.8343 -0.6593
 2401TIP3   OH231397   0.508   5.589  18.778  0.2198 -0.3153 -0.0622
 2401TIP3    H131398   0.551   5.672  18.755  0.7881 -0.4932  0.3279
 2401TIP3    H231399   0.432   5.584  18.720  0.2631  0.4086 -0.1902
 2402TIP3   OH231400   0.287   7.541  19.125 -0.0364 -0.2162  0.5333
 2402TIP3    H131401   0.207   7.583  19.155  1.5905  2.7949  0.9854
 2402TIP3    H231402   0.353   7.610  19.126  2.1414 -2.0504 -1.7863
 2403TIP3   OH231403   6.087   2.195  17.441  0.3074 -0.2500  0.6552
 2403TIP3    H131404   6.115   2.239  17.521 -2.0006 -1.4259  2.1930
 2403TIP3    H231405   6.095   2.102  17.461 -2.1989 -0.5965  0.3153
 2404TIP3   OH231406   0.304   4.908  19.483 -0.5727  0.4283  0.1803
 2404TIP3    H131407   0.371   4.903  19.551 -1.5522  1.2042  1.2716
 2404TIP3    H231408   0.340   4.967  19.417 -0.0890  0.6520  0.6416
 2405TIP3   OH231409   1.107   7.464  17.878  0.0888  0.6232  0.4486
 2405TIP3    H131410   1.169   7.398  17.909  1.1399  1.7398  0.8244
 2405TIP3    H231411   1.154   7.511  17.809 -0.0037  1.9825  1.2580
 2406TIP3   OH231412   1.814   4.950  17.484 -0.5816  0.3637 -0.0338
 2406TIP3    H131413   1.738   4.906  17.521 -0.9913  0.4072 -0.8046
 2406TIP3    H231414   1.778   5.007  17.416  0.0971  0.7096 -0.1130
 2407TIP3   OH231415   7.104   5.293  18.789 -0.3314 -0.3127 -0.4290
 2407TIP3    H131416   7.118   5.383  18.818  1.2344 -0.4939 -0.4876
 2407TIP3    H231417   7.189   5.267  18.752 -1.1278 -1.3777 -1.5991
 2408TIP3   OH231418   0.896   3.523  19.456 -0.1585  0.1649 -0.0105
 2408TIP3    H131419   0.851   3.577  19.391  0.3906  0.1484 -0.4129
 2408TIP3    H231420   0.867   3.433  19.438 -0.2863  0.2052 -0.0002
 2409TIP3   OH231421   4.175   5.468  18.938  0.0406  0.1813 -0.3170
 2409TIP3    H131422   4.106   5.529  18.965  0.4762  0.3668  0.3898
 2409TIP3    H231423   4.208   5.505  18.856 -0.6026  0.1608 -0.5955
 2410TIP3   OH231424   3.898   3.104  19.550 -0.0587 -0.5517 -0.3372
 2410TIP3    H131425   3.985   3.139  19.570 -0.4676 -0.4450  1.3960
 2410TIP3    H231426   3.891   3.024  19.601 -1.3822  0.0132  0.4290
 2411TIP3   OH231427   1.693   4.180  17.765  0.1845  0.1862  0.3096
 2411TIP3    H131428   1.606   4.165  17.728  0.0082 -0.1560  0.8495
 2411TIP3    H231429   1.754   4.160  17.693 -0.0137 -3.3308  0.9708
 2412TIP3   OH231430   1.960   0.888  17.925  0.0325  0.4953 -0.9335
 2412TIP3    H131431   1.899   0.869  17.996  1.2801  1.5954  0.5101
 2412TIP3    H231432   1.927   0.968  17.885  0.8943  1.5449  0.3658
 2413TIP3   OH231433   3.067   4.276  18.641 -0.3527  0.3912  0.2285
 2413TIP3    H131434   3.126   4.298  18.714 -1.4519  1.7769  0.7411
 2413TIP3    H231435   2.995   4.338  18.649  0.0078  1.3234 -2.7222
 2414TIP3   OH231436   3.484   0.772  18.501  0.6461  0.1968  0.3271
 2414TIP3    H131437   3.511   0.692  18.545  0.6700  0.2702  0.4479
 2414TIP3    H231438   3.391   0.782  18.522 -0.4035 -1.7637 -2.6832
 2415TIP3   OH231439   2.698   5.943  18.620 -0.3728  0.0821  0.0827
 2415TIP3    H131440   2.778   5.971  18.575  0.4854 -1.4176  0.6173
 2415TIP3    H231441   2.627   5.975  18.565  0.6264 -0.1361 -1.3793
 2416TIP3   OH231442   4.029   7.350  16.615 -0.0563  0.9220 -0.4003
 2416TIP3    H131443   4.060   7.317  16.530 -0.4043  2.0018 -0.9783
 2416TIP3    H231444   4.051   7.443  16.613 -0.3616  1.0257  0.5747
 2417TIP3   OH231445   5.724   4.778  18.175  0.5656  0.0353  0.1926
 2417TIP3    H131446   5.684   4.827  18.247 -0.4827 -0.2483 -0.1744
 2417TIP3    H231447   5.756   4.698  18.217 -0.3063 -0.2659  0.3171
 2418TIP3   OH231448   5.966   2.433  18.865 -0.2512 -0.4387  0.0321
 2418TIP3    H131449   6.044   2.406  18.818 -0.7684 -0.1195 -1.0446
 2418TIP3    H231450   5.900   2.447  18.797 -0.8112  0.7560  0.7806
 2419TIP3   OH231451   0.056   6.216  19.216  0.1650  0.5154 -0.2342
 2419TIP3    H131452   0.137   6.261  19.191 -1.1826  3.0708 -0.3770
 2419TIP3    H231453   0.082   6.158  19.288  2.0713  1.4675 -0.0791
 2420TIP3   OH231454   4.396   0.999  17.836  0.4519  0.3892 -0.1053
 2420TIP3    H131455   4.413   0.994  17.742  0.6372  0.2144 -0.0623
 2420TIP3    H231456   4.305   1.029  17.842 -0.4009 -1.9678 -0.3525
 2421TIP3   OH231457   1.936   0.682  16.577 -0.1500  0.2853 -0.7725
 2421TIP3    H131458   1.912   0.639  16.495 -1.0244  0.7399 -0.7754
 2421TIP3    H231459   2.031   0.675  16.582 -0.2959 -2.1203 -0.4816
 2422TIP3   OH231460   1.431   5.774  18.827 -0.3422  0.6129 -0.4103
 2422TIP3    H131461   1.434   5.868  18.848 -0.2857  0.7361 -0.9484
 2422TIP3    H231462   1.484   5.766  18.748  0.7061 -0.0870  0.3510
 2423TIP3   OH231463   6.764   6.540  18.777  0.2339 -0.2565 -0.2104
 2423TIP3    H131464   6.817   6.461  18.788  0.3026 -0.0491  1.0830
 2423TIP3    H231465   6.777   6.589  18.858 -1.9974 -0.2480  0.2106
 2424TIP3   OH231466   1.942   2.495  18.795  0.0970  0.3630 -0.4502
 2424TIP3    H131467   1.852   2.467  18.813  0.5163  0.4749  2.3565
 2424TIP3    H231468   1.935   2.588  18.776 -0.4476  0.2084 -1.0401
 2425TIP3   OH231469   1.281   3.965  19.374  0.1073  0.4123  0.0610
 2425TIP3    H131470   1.187   3.949  19.369  0.3504 -1.4432  0.6326
 2425TIP3    H231471   1.315   3.943  19.287  0.2024 -0.5069  0.3202
 2426TIP3   OH231472   2.258   0.308  17.813 -0.1754 -0.6582  0.2305
 2426TIP3    H131473   2.207   0.299  17.894  1.8587 -0.1414  1.6251
 2426TIP3    H231474   2.343   0.269  17.833  0.8195  0.6559 -1.2163
 2427TIP3   OH231475   5.112   6.580  19.231  0.4406 -0.7791  0.1265
 2427TIP3    H131476   5.166   6.502  19.246  1.2857  0.1768  2.6595
 2427TIP3    H231477   5.168   6.653  19.258 -1.4902  0.3912  1.1829
 2428TIP3   OH231478   4.893   5.668  18.393  0.6250  0.1486  0.2921
 2428TIP3    H131479   4.919   5.759  18.411 -1.0433  0.3500  2.0003
 2428TIP3    H231480   4.884   5.629  18.480 -2.5569 -0.4678 -0.2097
 2429TIP3   OH231481   6.972   1.610  18.968  0.3481  0.2520  0.5047
 2429TIP3    H131482   7.047   1.553  18.955 -1.3403 -2.0410  0.0801
 2429TIP3    H231483   6.988   1.686  18.911  2.4851  0.0601  0.7894
 2430TIP3   OH231484   1.981   4.124  19.588 -0.1116 -0.5883  0.8134
 2430TIP3    H131485   1.931   4.064  19.533 -1.4520 -0.1394  1.5044
 2430TIP3    H231486   2.047   4.068  19.630 -0.9271 -1.4664  0.9649
 2431TIP3   OH231487   0.804   7.203  18.731  0.1251 -0.6080  0.0816
 2431TIP3    H131488   0.794   7.255  18.651 -0.5579 -1.2318 -0.2403
 2431TIP3    H231489   0.830   7.116  18.701  0.3157 -0.7213  0.5624
 2432TIP3   OH231490   5.435   2.133  18.617  0.1965  0.2409 -0.3457
 2432TIP3    H131491   5.420   2.056  18.672  0.6642  0.2411 -0.2079
 2432TIP3    H231492   5.364   2.193  18.639 -0.1732 -0.1561 -0.4616
 2433TIP3   OH231493   1.243   4.600  17.643 -0.0367 -0.2858 -0.1692
 2433TIP3    H131494   1.337   4.611  17.652 -0.0787 -0.0191 -0.0277
 2433TIP3    H231495   1.232   4.527  17.582  0.2866  0.9118 -1.7451
 2434TIP3   OH231496   3.222   3.484  16.799  0.0373  0.2709  0.1881
 2434TIP3    H131497   3.243   3.504  16.708  1.6139  1.2941  0.7245
 2434TIP3    H231498   3.307   3.478  16.843 -0.5533 -2.3781  1.2046
 2435TIP3   OH231499   2.506   4.542  18.789  0.1855  0.2348  0.2849
 2435TIP3    H131500   2.484   4.595  18.713 -0.7143 -1.6963 -0.8917
 2435TIP3    H231501   2.562   4.598  18.843 -0.6859  2.3129 -0.8658
 2436TIP3   OH231502   5.941   3.286  18.250  0.8313  0.0812 -0.1351
 2436TIP3    H131503   5.928   3.374  18.214  2.3103  0.2770 -0.2497
 2436TIP3    H231504   5.918   3.295  18.343 -0.8224  0.1083 -0.5025
 2437TIP3   OH231505   6.675   0.676  18.258 -0.4663 -0.0885  0.0523
 2437TIP3    H131506   6.688   0.770  18.273 -0.0589 -0.2162  0.5112
 2437TIP3    H231507   6.581   0.663  18.271 -0.6844  0.4187 -0.9566
 2438TIP3   OH231508   4.361   1.975  18.800 -0.5152  0.0971  0.2807
 2438TIP3    H131509   4.421   2.046  18.777  1.1269 -1.1131  0.6294
 2438TIP3    H231510   4.390   1.901  18.747 -0.3112 -1.1287  2.0269
 2439TIP3   OH231511   4.065   7.543  19.335  0.0328 -0.4979  0.7905
 2439TIP3    H131512   3.973   7.515  19.327 -0.0683 -0.2429  1.0366
 2439TIP3    H231513   4.110   7.467  19.371  0.1709 -1.0766 -0.5629
 2440TIP3   OH231514   0.922   4.016  18.160 -0.4852 -0.6581  0.2066
 2440TIP3    H131515   0.833   4.047  18.144 -0.3596 -1.3245 -2.1971
 2440TIP3    H231516   0.912   3.924  18.183 -0.4119 -0.8787 -0.6107
 2441TIP3   OH231517   6.768   0.340  18.706 -0.5442 -0.1281  0.2823
 2441TIP3    H131518   6.748   0.331  18.799 -2.7735  1.5807  0.0674
 2441TIP3    H231519   6.859   0.313  18.697 -0.1390  0.1090  3.0391
 2442TIP3   OH231520   7.299   7.643  17.514 -0.4646 -0.2392 -0.7053
 2442TIP3    H131521   7.220   7.671  17.467 -0.3484 -0.6170 -1.1403
 2442TIP3    H231522   7.339   7.724  17.545 -1.1476 -0.0621 -0.2719
 2443TIP3   OH231523   7.621   3.629  17.569 -0.2026 -0.0337  0.6816
 2443TIP3    H131524   7.706   3.614  17.528 -1.6725  1.3477 -3.4015
 2443TIP3    H231525   7.616   3.723  17.583 -0.5099 -0.2700  2.4248
 2444TIP3   OH231526   2.793   5.268  18.459  0.0032  0.1810  0.1940
 2444TIP3    H131527   2.781   5.352  18.415 -1.2630 -0.2960 -0.4081
 2444TIP3    H231528   2.846   5.217  18.399  0.5169  0.4332  0.4245
 2445TIP3   OH231529   7.169   5.101  19.195  0.0172  0.3726  0.1939
 2445TIP3    H131530   7.202   5.187  19.218  1.1512  0.1582 -0.5266
 2445TIP3    H231531   7.243   5.058  19.150  0.8991 -2.4381  3.8476
 2446TIP3   OH231532   4.931   2.468  17.087  0.1115  0.1072  0.5780
 2446TIP3    H131533   5.006   2.437  17.038  0.9358 -0.0940  1.9012
 2446TIP3    H231534   4.966   2.489  17.174 -0.7558  2.9918  0.3223
 2447TIP3   OH231535   5.578   2.763  18.320 -0.4680  0.4520 -0.1956
 2447TIP3    H131536   5.635   2.691  18.293  0.8600  1.6717 -0.7702
 2447TIP3    H231537   5.490   2.726  18.316  0.3028 -2.0404  2.4137
 2448TIP3   OH231538   6.164   6.118  17.069  0.6945  0.2684 -0.4573
 2448TIP3    H131539   6.126   6.194  17.113 -0.4648 -0.1374 -0.7188
 2448TIP3    H231540   6.125   6.118  16.981  0.3183 -0.8661 -0.3142
 2449TIP3   OH231541   6.975   6.712  18.093  0.1479 -0.2673 -0.1635
 2449TIP3    H131542   6.995   6.744  18.180 -1.3997  0.8358 -0.1737
 2449TIP3    H231543   6.925   6.631  18.108  0.8542 -0.6956 -0.0694
 2450TIP3   OH231544   2.758   6.999  17.131  0.0070 -0.2050  0.4597
 2450TIP3    H131545   2.731   6.916  17.092  0.3478  0.2612 -0.8280
 2450TIP3    H231546   2.762   7.060  17.057 -0.1612  0.9438  1.3706
 2451TIP3   OH231547   0.483   2.465  19.620 -0.0051 -0.0927 -0.0954
 2451TIP3    H131548   0.409   2.515  19.655 -0.1650  0.0172 -0.5807
 2451TIP3    H231549   0.482   2.484  19.526  0.9388  0.2933 -0.0364
 2452TIP3   OH231550   6.641   5.287  19.578 -0.0155 -0.8228 -0.3999
 2452TIP3    H131551   6.606   5.198  19.567  3.4678 -2.5830  1.1968
 2452TIP3    H231552   6.729   5.283  19.540  1.4635  0.9429  2.4925
 2453TIP3   OH231553   5.074   0.095  17.783 -0.0351 -0.1388 -0.2712
 2453TIP3    H131554   5.030   0.064  17.703  1.2135  0.5766 -1.2676
 2453TIP3    H231555   5.027   0.051  17.854  0.3144 -2.6802 -1.5018
 2454TIP3   OH231556   3.347   5.477  18.441 -0.0126 -0.1819  0.4351
 2454TIP3    H131557   3.267   5.491  18.491 -0.3976  0.2231 -0.2783
 2454TIP3    H231558   3.399   5.418  18.495 -0.3405  0.3756  1.3863
 2455TIP3   OH231559   2.603   6.592  17.612  0.4679  0.0467  0.2721
 2455TIP3    H131560   2.587   6.583  17.518  0.7860  1.1278  0.1064
 2455TIP3    H231561   2.621   6.685  17.625  2.3870 -0.3796  1.0951
 2456TIP3   OH231562   3.949   7.511  18.197  0.3747  0.3510  0.0051
 2456TIP3    H131563   3.887   7.581  18.218  0.5539  0.2947  0.7260
 2456TIP3    H231564   3.938   7.498  18.102  1.8908  2.8877 -0.6125
 2457TIP3   OH231565   2.131   1.825  17.794  0.6062  0.2358 -0.1511
 2457TIP3    H131566   2.069   1.764  17.754 -0.0952  0.8776 -0.0736
 2457TIP3    H231567   2.193   1.846  17.724  0.7693 -0.4499 -0.2167
 2458TIP3   OH231568   6.488   2.321  16.824  0.3771 -0.1611  0.1384
 2458TIP3    H131569   6.544   2.251  16.790  1.6987  1.2071 -0.6578
 2458TIP3    H231570   6.420   2.332  16.758 -0.3851 -1.2901  0.7155
 2459TIP3   OH231571   4.203   2.193  17.495  0.2819  0.0656  0.2516
 2459TIP3    H131572   4.250   2.271  17.466  1.4172 -0.9006 -0.6074
 2459TIP3    H231573   4.253   2.161  17.570 -0.9748  0.9144  1.4849
 2460TIP3   OH231574   2.357   1.181  17.177  0.1070 -0.0307 -0.4634
 2460TIP3    H131575   2.360   1.269  17.216  0.2476  0.0670 -0.6929
 2460TIP3    H231576   2.372   1.195  17.084 -1.6753 -0.1089 -0.8099
 2461TIP3   OH231577   6.392   0.704  17.357 -0.1828  0.6366  0.1060
 2461TIP3    H131578   6.329   0.673  17.293  0.1288  0.6762 -0.2251
 2461TIP3    H231579   6.467   0.733  17.305  0.1615  0.4701  0.4985
 2462TIP3   OH231580   0.299   5.664  17.483  0.4367 -0.4310  0.2958
 2462TIP3    H131581   0.250   5.652  17.402  0.0565 -0.0125  0.4526
 2462TIP3    H231582   0.278   5.754  17.510 -2.8931 -1.7646  3.0471
 2463TIP3   OH231583   2.145   7.557  17.038  0.4191  0.3445  0.1125
 2463TIP3    H131584   2.211   7.622  17.011 -0.3712  0.5300 -1.5143
 2463TIP3    H231585   2.067   7.609  17.055  0.8642  0.2287  2.9326
 2464TIP3   OH231586   0.400   4.991  18.895 -0.0993  0.4234  0.0512
 2464TIP3    H131587   0.458   4.915  18.891  0.1164  0.5653  0.3730
 2464TIP3    H231588   0.398   5.025  18.805 -0.4244 -0.1297 -0.1506
 2465TIP3   OH231589   1.534   3.609  18.407 -0.3664  0.3444  0.3284
 2465TIP3    H131590   1.472   3.536  18.409  0.9360 -0.8458 -0.5770
 2465TIP3    H231591   1.501   3.670  18.473 -1.2501 -1.2646  1.4571
 2466TIP3   OH231592   0.543   5.574  17.308 -0.2618  0.4388  0.4432
 2466TIP3    H131593   0.520   5.485  17.334 -0.0594 -0.1536 -1.2274
 2466TIP3    H231594   0.477   5.629  17.349 -2.4817 -0.8413 -1.1493
 2467TIP3   OH231595   1.558   4.702  18.071  0.1863 -0.0933  0.9349
 2467TIP3    H131596   1.615   4.652  18.012 -0.2609 -0.6120  0.9336
 2467TIP3    H231597   1.492   4.741  18.014 -0.1084 -0.4044  1.0552
 2468TIP3   OH231598   7.222   7.355  18.132 -0.3306  0.7903 -0.2210
 2468TIP3    H131599   7.161   7.331  18.063  1.2926 -1.2014 -1.0478
 2468TIP3    H231600   7.166   7.372  18.208 -1.9235 -1.1987 -0.8496
 2469TIP3   OH231601   0.911   1.930  19.028 -0.6575 -0.2680 -0.3467
 2469TIP3    H131602   0.957   2.014  19.024  0.5650 -0.7276  2.2724
 2469TIP3    H231603   0.910   1.899  18.937  1.9614  0.9651 -0.8780
 2470TIP3   OH231604   5.731   3.530  17.202  0.4981 -0.3474  0.8149
 2470TIP3    H131605   5.653   3.498  17.158 -0.1336  0.6547  1.1653
 2470TIP3    H231606   5.699   3.563  17.286  1.5107 -1.1842  1.5529
 2471TIP3   OH231607   3.326   0.640  18.977  0.3874 -0.0125 -0.3071
 2471TIP3    H131608   3.369   0.724  18.961  0.3242  0.0215 -0.2974
 2471TIP3    H231609   3.348   0.618  19.067 -0.0890  0.2855 -0.1127
 2472TIP3   OH231610   4.783   5.669  18.125 -0.2915 -0.0180  0.2015
 2472TIP3    H131611   4.842   5.651  18.198 -2.0692 -0.2570  1.6598
 2472TIP3    H231612   4.751   5.583  18.098  0.1740  0.0886 -0.7319
 2473TIP3   OH231613   3.446   0.299  16.704  0.2629  0.2906  0.7629
 2473TIP3    H131614   3.505   0.307  16.629 -0.6216  1.1122  0.1463
 2473TIP3    H231615   3.427   0.205  16.710  0.7333  0.1631  0.2736
 2474TIP3   OH231616   6.156   4.993  17.927  0.1407 -0.2843 -0.3175
 2474TIP3    H131617   6.141   4.918  17.871  1.0867 -0.3813 -0.4571
 2474TIP3    H231618   6.087   5.055  17.904  0.1060 -0.6048 -1.0903
 2475TIP3   OH231619   0.653   2.415  17.800  0.6521 -0.3623 -0.8180
 2475TIP3    H131620   0.591   2.384  17.734  0.0063  0.8289 -0.8079
 2475TIP3    H231621   0.718   2.465  17.750  1.2293 -1.0477 -0.7539
 2476TIP3   OH231622   1.295   1.628  18.807  0.1843 -0.0080 -0.1165
 2476TIP3    H131623   1.245   1.555  18.844 -0.8800  1.0913  0.7060
 2476TIP3    H231624   1.385   1.611  18.834  0.4540 -2.3263 -2.0903
 2477TIP3   OH231625   6.886   6.253  17.497 -0.5294 -0.3491 -0.3875
 2477TIP3    H131626   6.971   6.248  17.454 -1.0967 -2.1554 -1.4051
 2477TIP3    H231627   6.859   6.344  17.487  1.1082  0.1662 -0.3605
 2478TIP3   OH231628   7.295   7.301  18.826 -0.2337  0.1033 -0.2057
 2478TIP3    H131629   7.386   7.271  18.822 -0.5814 -1.3149  1.5175
 2478TIP3    H231630   7.292   7.358  18.902 -0.4227  1.6740 -1.3309
 2479TIP3   OH231631   5.248   1.565  17.732 -0.2447 -0.0848  0.2416
 2479TIP3    H131632   5.153   1.557  17.735 -0.2040 -0.3463  1.0238
 2479TIP3    H231633   5.268   1.588  17.641 -1.0914  0.4977  0.2051
 2480TIP3   OH231634   4.892   1.942  19.336  0.3544  0.1126 -0.3905
 2480TIP3    H131635   4.876   1.889  19.258  2.2307 -0.9843 -0.1032
 2480TIP3    H231636   4.838   1.902  19.404  1.1703 -0.9836 -0.3645
 2481TIP3   OH231637   7.271   1.898  18.724 -0.1583  0.1552  0.3433
 2481TIP3    H131638   7.235   1.960  18.661 -0.2626 -0.6810 -0.4387
 2481TIP3    H231639   7.366   1.910  18.717 -0.1289 -0.5456 -0.6270
 2482TIP3   OH231640   7.412   4.733  18.103  0.4628  0.3617 -0.5409
 2482TIP3    H131641   7.318   4.744  18.090  0.3061  0.1198  0.3369
 2482TIP3    H231642   7.429   4.642  18.079  0.5632  0.5417 -1.1673
 2483TIP3   OH231643   6.123   6.882  16.942 -0.2212  0.2945 -0.2027
 2483TIP3    H131644   6.201   6.826  16.939  0.7365  1.6422 -1.6054
 2483TIP3    H231645   6.157   6.970  16.960 -1.3130  1.0585 -1.7190
 2484TIP3   OH231646   6.808   4.655  18.610 -0.0956  0.2859 -0.4400
 2484TIP3    H131647   6.808   4.745  18.643  1.0711 -0.2372  1.1204
 2484TIP3    H231648   6.785   4.663  18.517  0.6901  2.2497 -0.5092
 2485TIP3   OH231649   2.477   4.735  18.088 -0.0165 -0.2602 -0.0555
 2485TIP3    H131650   2.383   4.722  18.100  0.0807 -0.2574  0.7466
 2485TIP3    H231651   2.509   4.652  18.053 -0.5379  0.1976 -1.6828
 2486TIP3   OH231652   1.562   3.037  17.707 -0.3951  0.5206  0.1403
 2486TIP3    H131653   1.578   2.961  17.651 -0.3614  0.7616 -0.1795
 2486TIP3    H231654   1.588   3.112  17.654  0.7397  0.6934  0.8837
 2487TIP3   OH231655   4.939   2.843  18.592  0.2988 -0.1981  0.2197
 2487TIP3    H131656   5.035   2.844  18.588  0.3875  2.2637  0.9930
 2487TIP3    H231657   4.913   2.909  18.527 -0.9149 -1.2116 -0.3488
 2488TIP3   OH231658   2.071   5.288  17.822  0.3265 -0.2437 -0.1008
 2488TIP3    H131659   2.102   5.204  17.856  1.1315  0.1036  0.0288
 2488TIP3    H231660   2.047   5.269  17.731 -0.2406 -0.7865  0.1503
 2489TIP3   OH231661   7.127   2.074  19.014 -0.2745  0.1953  0.3727
 2489TIP3    H131662   7.177   2.033  18.943  0.3704  1.1230  0.2690
 2489TIP3    H231663   7.038   2.080  18.981 -0.5027 -1.5428  0.5796
 2490TIP3   OH231664   4.191   6.925  16.617 -0.5704 -0.3058 -0.1685
 2490TIP3    H131665   4.222   6.952  16.704 -3.9696 -2.6217  1.9987
 2490TIP3    H231666   4.244   6.848  16.597  0.5394  0.4960 -0.4342
 2491TIP3   OH231667   4.656   3.868  18.177 -0.3871 -0.1960 -0.5781
 2491TIP3    H131668   4.571   3.826  18.189 -0.0699 -0.7195 -0.1288
 2491TIP3    H231669   4.653   3.945  18.233 -0.3379 -0.5490 -0.0863
 2492TIP3   OH231670   2.891   7.673  18.301  0.1338 -0.0434  0.3974
 2492TIP3    H131671   2.959   7.611  18.326  2.4768  2.3548  0.3521
 2492TIP3    H231672   2.926   7.719  18.225 -2.8539 -0.6863 -1.5743
 2493TIP3   OH231673   5.578   4.376  17.018  0.3813 -0.0307 -0.5154
 2493TIP3    H131674   5.492   4.379  17.060  1.7179 -0.7551  2.5088
 2493TIP3    H231675   5.622   4.456  17.047  1.2381 -0.3606 -0.8680
 2494TIP3   OH231676   4.109   7.663  18.836 -0.5888 -0.4788  0.0315
 2494TIP3    H131677   4.017   7.692  18.830 -0.5043 -0.3891 -1.0826
 2494TIP3    H231678   4.123   7.649  18.929 -2.0281 -1.4309  0.1384
 2495TIP3   OH231679   3.455   0.888  17.696 -0.0866  0.2740  0.5287
 2495TIP3    H131680   3.413   0.881  17.611  1.0425  0.0452 -0.0256
 2495TIP3    H231681   3.402   0.951  17.744 -1.1219 -0.1026 -0.1053
 2496TIP3   OH231682   0.681   7.593  18.900 -0.8186 -0.1884  0.0735
 2496TIP3    H131683   0.733   7.634  18.831  3.4097 -0.7280  2.5935
 2496TIP3    H231684   0.644   7.515  18.859  1.1192 -0.2377 -1.7585
 2497TIP3   OH231685   2.302   4.458  17.845 -0.7871 -0.3065  0.9993
 2497TIP3    H131686   2.277   4.386  17.787  0.4715 -1.6038  1.9933
 2497TIP3    H231687   2.268   4.433  17.931  1.4758 -0.8379  1.8074
 2498TIP3   OH231688   1.648   6.347  17.587 -0.3376  0.0827  0.0749
 2498TIP3    H131689   1.683   6.435  17.571  3.0324 -1.3805 -1.5958
 2498TIP3    H231690   1.708   6.309  17.651 -0.1623 -1.8062 -1.1418
 2499TIP3   OH231691   3.535   2.774  18.306  1.0973  0.4567  0.2446
 2499TIP3    H131692   3.624   2.739  18.320  2.1309  2.5009 -0.8618
 2499TIP3    H231693   3.537   2.810  18.218  0.1144  3.1810  1.2525
 2500TIP3   OH231694   2.151   1.179  18.416  0.2096 -0.1632 -0.3775
 2500TIP3    H131695   2.194   1.181  18.502  0.0745 -0.1205 -0.3119
 2500TIP3    H231696   2.131   1.087  18.401  0.4040 -0.1952 -0.4484
 2501TIP3   OH231697   0.922   5.205  17.655 -0.0814 -0.1019  0.0779
 2501TIP3    H131698   0.857   5.210  17.725  0.1683 -0.3907  0.3312
 2501TIP3    H231699   0.910   5.286  17.606 -1.0670 -0.4412 -0.2608
 2502TIP3   OH231700   2.913   0.681  18.126 -0.1740  0.3139 -0.9111
 2502TIP3    H131701   2.973   0.614  18.157  1.1518  1.2230 -1.4265
 2502TIP3    H231702   2.865   0.640  18.054  0.8908  0.0224 -1.4674
 2503TIP3   OH231703   0.729   2.759  17.729 -0.0237 -0.0959 -0.9226
 2503TIP3    H131704   0.738   2.782  17.636  1.2976 -0.0254 -0.7925
 2503TIP3    H231705   0.644   2.715  17.734  0.8686 -2.2160 -2.6224
 2504TIP3   OH231706   2.583   7.642  16.667  0.0835  0.5481 -0.2877
 2504TIP3    H131707   2.642   7.574  16.701  0.3475  0.4867 -0.8461
 2504TIP3    H231708   2.596   7.716  16.726 -0.2672  0.0841  0.3746
 2505TIP3   OH231709   6.453   2.702  16.499  0.3377  0.6273 -0.0476
 2505TIP3    H131710   6.381   2.706  16.562 -1.1770 -1.3228 -1.5234
 2505TIP3    H231711   6.424   2.756  16.425  1.8099  2.3597  0.5772
 2506TIP3   OH231712   6.467   4.467  17.208 -0.4564  0.4047  0.2023
 2506TIP3    H131713   6.461   4.521  17.287  1.3433 -0.6812  1.1385
 2506TIP3    H231714   6.376   4.459  17.178 -1.1610  1.0590  2.0071
 2507TIP3   OH231715   5.453   2.791  19.092  0.1250  0.3050  0.5210
 2507TIP3    H131716   5.369   2.800  19.047 -0.1191 -0.0821  0.8961
 2507TIP3    H231717   5.431   2.752  19.177  0.9887 -3.0142 -0.6075
 2508TIP3   OH231718   6.963   5.920  19.209  0.4753 -0.1542 -0.4053
 2508TIP3    H131719   6.921   5.858  19.149  1.3744 -1.8176  0.6389
 2508TIP3    H231720   6.901   5.929  19.281 -2.0998  4.2092 -2.6946
 2509TIP3   OH231721   5.700   2.028  19.046  0.2717 -0.1692  0.3198
 2509TIP3    H131722   5.659   2.104  19.086  0.2629  0.4561 -0.8258
 2509TIP3    H231723   5.778   2.012  19.098 -0.9241 -0.8316  1.9907
 2510TIP3   OH231724   1.754   1.192  17.012  0.3759 -0.0643 -0.0961
 2510TIP3    H131725   1.763   1.236  16.927  3.0466 -0.7653 -0.2414
 2510TIP3    H231726   1.754   1.099  16.991 -0.9914 -0.2443  0.5654
 2511TIP3   OH231727   6.408   4.649  17.381 -0.3092  0.2464 -0.0432
 2511TIP3    H131728   6.331   4.700  17.407 -1.6557 -0.4417 -2.3994
 2511TIP3    H231729   6.477   4.714  17.371 -0.8106  1.0082  1.1693
 2512TIP3   OH231730   0.267   2.544  19.004  0.0742 -0.3014 -0.4004
 2512TIP3    H131731   0.288   2.633  18.977  0.5824 -0.6731 -1.2765
 2512TIP3    H231732   0.352   2.505  19.026 -0.0605 -0.7928 -0.7356
 2513TIP3   OH231733   1.505   2.171  19.284 -0.4513  0.4212 -0.4790
 2513TIP3    H131734   1.472   2.083  19.303 -0.1772  0.2881 -0.6153
 2513TIP3    H231735   1.526   2.170  19.191  1.8146 -0.1334 -0.0104
 2514TIP3   OH231736   5.406   5.088  18.392 -0.0140 -0.2263  0.0612
 2514TIP3    H131737   5.326   5.043  18.365 -0.4009  0.3589  0.2260
 2514TIP3    H231738   5.396   5.177  18.358  0.8386 -0.3100 -0.4425
 2515TIP3   OH231739   6.601   0.145  18.276 -0.1038  0.4623 -0.1092
 2515TIP3    H131740   6.563   0.233  18.278 -0.0879  0.4604  1.3475
 2515TIP3    H231741   6.580   0.108  18.362  1.7732 -0.1421  0.1425
 2516TIP3   OH231742   4.975   0.950  19.441 -0.9792  0.4433  0.8556
 2516TIP3    H131743   5.027   1.031  19.436  0.5342 -0.4753  0.9658
 2516TIP3    H231744   4.913   0.956  19.369  0.3237  0.9057 -0.2686
 2517TIP3   OH231745   6.498   2.637  16.803  0.2501  1.2448 -0.6481
 2517TIP3    H131746   6.420   2.666  16.755  0.2724  1.3210 -0.6387
 2517TIP3    H231747   6.503   2.543  16.784 -0.9769  0.8235  0.9184
 2518TIP3   OH231748   0.267   5.739  19.409 -0.1590  0.3754  0.5417
 2518TIP3    H131749   0.232   5.717  19.323 -0.5802  0.3862  0.7093
 2518TIP3    H231750   0.361   5.747  19.394 -0.1280 -0.3787  0.2355
 2519TIP3   OH231751   7.632   6.437  18.453 -0.3561  0.4192  0.3202
 2519TIP3    H131752   7.557   6.434  18.512 -0.3390  0.3427  0.3387
 2519TIP3    H231753   7.658   6.529  18.451 -1.5116  0.7610 -1.0265
 2520TIP3   OH231754   2.139   4.975  18.429 -0.4888  0.1280 -0.4494
 2520TIP3    H131755   2.058   5.026  18.421  0.3324  1.7232  0.7749
 2520TIP3    H231756   2.195   5.029  18.484  0.3943 -2.2286  1.0755
 2521TIP3   OH231757   5.608   1.690  19.294  0.1486  0.2198  0.1786
 2521TIP3    H131758   5.690   1.727  19.261  0.0204  0.3739  0.0321
 2521TIP3    H231759   5.633   1.604  19.327  0.4018  0.3354  0.2945
 2522TIP3   OH231760   4.642   6.509  19.032 -0.2053  0.0244 -0.4986
 2522TIP3    H131761   4.627   6.431  18.979 -0.3838  0.2423 -0.7700
 2522TIP3    H231762   4.726   6.493  19.075 -2.3196 -2.5439  3.3496
 2523TIP3   OH231763   6.371   0.004  18.093 -0.5233  0.3181  0.0569
 2523TIP3    H131764   6.398   0.096  18.094 -0.4593  0.3008 -0.0348
 2523TIP3    H231765   6.370  -0.021  18.186 -1.3867  0.6495  0.1415
 2524TIP3   OH231766   0.971   2.053  18.276 -0.4111  0.0930 -0.2669
 2524TIP3    H131767   1.045   2.016  18.322 -0.2120  0.7413 -0.0552
 2524TIP3    H231768   0.988   2.147  18.273 -1.1311  0.2316 -0.3793
 2525TIP3   OH231769   2.375   5.018  17.073 -0.2797 -0.2085 -0.0204
 2525TIP3    H131770   2.328   5.030  16.991  1.8544  1.6730 -1.0975
 2525TIP3    H231771   2.409   4.929  17.069 -3.4892 -1.6073  0.7804
 2526TIP3   OH231772   4.688   4.903  17.605  0.1869 -0.0959 -0.1025
 2526TIP3    H131773   4.766   4.874  17.652  1.5509  2.1281 -0.8115
 2526TIP3    H231774   4.723   4.949  17.528 -1.8708  0.1337 -0.9521
 2527TIP3   OH231775   1.317   2.290  18.837  0.1504 -0.4342 -0.2203
 2527TIP3    H131776   1.391   2.232  18.817 -1.2832 -1.8939 -1.6578
 2527TIP3    H231777   1.334   2.369  18.786  2.0172  0.4151  1.5799
 2528TIP3   OH231778   2.346   5.368  19.197 -0.3137  0.1442 -0.2620
 2528TIP3    H131779   2.321   5.419  19.274  0.3180 -1.8965  1.3869
 2528TIP3    H231780   2.434   5.397  19.176  0.2196 -0.5316  0.9440
 2529TIP3   OH231781   2.900   6.054  18.449  0.3698 -0.3210 -0.1606
 2529TIP3    H131782   2.931   6.119  18.386  2.9546  1.3977  2.5956
 2529TIP3    H231783   2.963   5.982  18.441 -0.6306 -1.1465 -0.9940
 2530TIP3   OH231784   3.319   5.808  17.699  0.1836  0.0085 -0.0188
 2530TIP3    H131785   3.267   5.728  17.709  1.7027 -1.0215 -0.0765
 2530TIP3    H231786   3.363   5.797  17.615  1.6499  0.1398  0.7051
 2531TIP3   OH231787   5.245   4.685  16.883  0.1749 -0.3233  0.2198
 2531TIP3    H131788   5.210   4.724  16.964 -1.9889 -1.2202 -0.2297
 2531TIP3    H231789   5.292   4.757  16.841 -1.7776  1.2130  0.5224
 2532TIP3   OH231790   0.639   0.605  17.920 -0.4182 -0.5121 -0.2258
 2532TIP3    H131791   0.712   0.629  17.864  0.5059 -1.0913  0.7034
 2532TIP3    H231792   0.663   0.519  17.957 -0.9269 -0.1004  1.1458
 2533TIP3   OH231793   3.482   6.189  18.257  0.1208  0.2172  0.1414
 2533TIP3    H131794   3.482   6.121  18.190 -0.3514 -0.7421  1.0932
 2533TIP3    H231795   3.426   6.258  18.222  1.9705  0.9547 -1.6130
 2534TIP3   OH231796   5.065   0.454  17.005 -0.4356 -0.1840  0.1252
 2534TIP3    H131797   5.151   0.420  16.978  0.5725 -0.4259  3.2786
 2534TIP3    H231798   5.006   0.380  16.996  0.3622 -0.9189  0.7470
 2535TIP3   OH231799   7.265   7.221  18.432 -0.2042 -0.2688 -0.2403
 2535TIP3    H131800   7.223   7.307  18.430 -0.8863 -0.5844  0.1433
 2535TIP3    H231801   7.359   7.240  18.431 -0.3109  0.5512  1.2943
 2536TIP3   OH231802   2.772   3.276  17.504 -0.0378 -0.4859 -0.2814
 2536TIP3    H131803   2.790   3.200  17.560 -1.1856  0.0511  0.8879
 2536TIP3    H231804   2.685   3.259  17.467  1.1693 -1.3823 -2.9424
 2537TIP3   OH231805   6.229   6.814  17.633 -0.6217 -0.1974 -0.1131
 2537TIP3    H131806   6.176   6.750  17.585  0.2822 -0.3878 -0.8893
 2537TIP3    H231807   6.309   6.823  17.580  0.4097 -0.3950  1.3727
 2538TIP3   OH231808   6.576   6.616  19.200  0.4549  0.3761 -0.1231
 2538TIP3    H131809   6.556   6.706  19.226 -0.5427  0.0612  0.2303
 2538TIP3    H231810   6.664   6.600  19.235  0.4014  1.0166  0.3144
 2539TIP3   OH231811   0.361   0.142  17.090 -0.2152  0.1833  0.7528
 2539TIP3    H131812   0.297   0.162  17.021  1.6952  0.6313 -1.0177
 2539TIP3    H231813   0.435   0.104  17.043  2.0160  2.3458  2.2418
 2540TIP3   OH231814   0.431   6.674  17.688  0.2675 -0.3273 -0.0265
 2540TIP3    H131815   0.477   6.676  17.772  0.7385  0.9428 -0.2920
 2540TIP3    H231816   0.426   6.581  17.665 -1.6344 -0.9412  2.3485
 2541TIP3   OH231817   7.311   3.276  16.942 -0.6852 -0.4091 -0.1556
 2541TIP3    H131818   7.341   3.196  16.986  0.5794  0.7366  1.2117
 2541TIP3    H231819   7.360   3.278  16.860  1.1936  0.1200  0.8953
 2542TIP3   OH231820   1.466   1.300  18.239 -0.6333  0.0231  0.3021
 2542TIP3    H131821   1.507   1.308  18.153 -1.5072 -1.4318 -0.2824
 2542TIP3    H231822   1.512   1.227  18.281  3.6828  3.9654  3.4407
 2543TIP3   OH231823   6.686   1.930  18.131 -0.2039  0.1647 -0.3500
 2543TIP3    H131824   6.591   1.924  18.125 -0.4696  0.7963  2.2943
 2543TIP3    H231825   6.717   1.895  18.047 -2.6595 -2.4509 -0.3191
 2544TIP3   OH231826   5.628   6.329  17.476 -0.1712 -0.1553 -0.4737
 2544TIP3    H131827   5.540   6.291  17.481  0.1553 -0.9197 -0.3170
 2544TIP3    H231828   5.676   6.287  17.547  1.1984 -2.1368 -2.4303
 2545TIP3   OH231829   7.009   1.071  17.266 -1.1621 -0.1022  0.9500
 2545TIP3    H131830   7.069   1.054  17.193 -1.1328 -1.7390  1.3095
 2545TIP3    H231831   6.923   1.047  17.232 -1.2902  0.0962  1.1360
 2546TIP3   OH231832   5.495   2.296  17.923  0.4874  0.2152 -0.2503
 2546TIP3    H131833   5.504   2.222  17.864  0.8358 -0.2525  0.3843
 2546TIP3    H231834   5.585   2.320  17.945  0.3463 -0.4017  1.0583
 2547TIP3   OH231835   5.191   7.661  18.869 -0.2954 -0.1167  0.5749
 2547TIP3    H131836   5.217   7.653  18.778  0.6450 -0.5353  0.8640
 2547TIP3    H231837   5.127   7.591  18.882  0.3934 -0.7755  0.5065
 2548TIP3   OH231838   7.112   3.971  18.220 -0.0787  0.4348 -0.0851
 2548TIP3    H131839   7.190   3.963  18.275 -0.5201 -0.4322  0.4319
 2548TIP3    H231840   7.044   4.004  18.278 -0.4164  0.0096 -0.2350
 2549TIP3   OH231841   3.160   6.571  19.253  0.1706 -0.4758 -0.2193
 2549TIP3    H131842   3.157   6.610  19.166 -0.9380  0.8839  0.3807
 2549TIP3    H231843   3.111   6.489  19.246 -0.9095  0.1847 -0.6401
 2550TIP3   OH231844   0.853   4.315  17.764  0.0721  0.6464 -0.0066
 2550TIP3    H131845   0.802   4.362  17.698  2.1874  3.1560  0.0041
 2550TIP3    H231846   0.891   4.384  17.818  0.1127 -1.2631  2.5834
 2551TIP3   OH231847   7.245   4.687  17.799 -0.5992 -0.4842 -0.1577
 2551TIP3    H131848   7.331   4.654  17.771 -0.9129 -0.3373 -1.3715
 2551TIP3    H231849   7.200   4.611  17.834 -1.2013 -1.3573 -2.6311
 2552TIP3   OH231850   4.066   2.158  19.394 -0.1575  0.0941  0.4805
 2552TIP3    H131851   4.105   2.213  19.326 -1.4673  1.7152  0.9718
 2552TIP3    H231852   4.121   2.174  19.471  0.3276 -0.4323  0.2493
 2553TIP3   OH231853   2.725   6.750  17.055 -0.3459  0.2131  0.0256
 2553TIP3    H131854   2.727   6.744  16.960 -0.1173  0.7932 -0.0095
 2553TIP3    H231855   2.685   6.668  17.083 -0.8915  0.2626 -0.5887
 2554TIP3   OH231856   6.107   7.542  17.295 -0.5856 -0.1528 -0.0268
 2554TIP3    H131857   6.146   7.589  17.221  1.7700 -1.3692  0.3343
 2554TIP3    H231858   6.028   7.503  17.259  0.9741 -1.5005 -2.2670
 2555TIP3   OH231859   4.412   7.445  17.218 -0.0587  0.4125  0.4975
 2555TIP3    H131860   4.402   7.382  17.289  1.7039  1.2522  1.5415
 2555TIP3    H231861   4.489   7.416  17.170  0.5458  1.5335  0.7632
 2556TIP3   OH231862   3.731   0.472  17.934 -0.2614 -0.4529  0.1409
 2556TIP3    H131863   3.710   0.540  17.870  0.6518 -0.5183 -0.2355
 2556TIP3    H231864   3.698   0.507  18.017  0.0036  0.3624 -0.0852
 2557TIP3   OH231865   2.236   2.150  16.928  0.0684  0.0556 -0.3858
 2557TIP3    H131866   2.170   2.204  16.885 -0.0897 -0.4114 -0.7442
 2557TIP3    H231867   2.317   2.201  16.922 -0.7755  2.0237  2.6861
 2558TIP3   OH231868   0.217   7.640  16.421  0.1507 -0.1119  0.5059
 2558TIP3    H131869   0.280   7.568  16.419  1.7738  1.1908  2.1240
 2558TIP3    H231870   0.270   7.719  16.433 -1.7661  1.0456  1.9783
 2559TIP3   OH231871   5.647   3.455  19.618  0.0368 -0.8316  0.3936
 2559TIP3    H131872   5.588   3.531  19.610  0.7125 -0.0903  2.0682
 2559TIP3    H231873   5.719   3.476  19.559 -0.8151 -1.2402 -0.8399
 2560TIP3   OH231874   7.541   3.268  17.223 -0.8787 -0.3156  0.6623
 2560TIP3    H131875   7.501   3.208  17.161  0.1863 -1.2595  0.8581
 2560TIP3    H231876   7.493   3.350  17.211  0.9818  0.4385 -3.4044
 2561TIP3   OH231877   6.865   6.680  18.984  0.3340  0.3339  0.2580
 2561TIP3    H131878   6.954   6.698  18.954  0.1539  0.9104  0.0622
 2561TIP3    H231879   6.821   6.764  18.981 -0.1282  0.1115  0.6726
 2562TIP3   OH231880   5.678   3.691  17.662  0.4656  0.6364  0.4286
 2562TIP3    H131881   5.700   3.760  17.724  3.0095 -1.6475  2.3402
 2562TIP3    H231882   5.747   3.695  17.596 -1.3027  1.9933 -1.4440
 2563TIP3   OH231883   1.768   2.337  18.459 -0.4920 -0.1629  0.1588
 2563TIP3    H131884   1.742   2.251  18.491 -0.7679 -0.1798 -0.1115
 2563TIP3    H231885   1.855   2.351  18.497 -0.4902 -0.5128  0.2880
 2564TIP3   OH231886   4.528   4.814  16.927  0.0449  0.0857 -0.1839
 2564TIP3    H131887   4.546   4.846  17.016  0.4264  3.0520 -1.2163
 2564TIP3    H231888   4.432   4.818  16.919 -0.0061 -0.4080  0.1575
 2565TIP3   OH231889   5.430   6.075  17.576 -0.6614  0.2346 -0.0751
 2565TIP3    H131890   5.364   6.068  17.645 -0.5144 -1.8224 -0.0907
 2565TIP3    H231891   5.506   6.113  17.620 -0.3788 -1.5606  1.0742
 2566TIP3   OH231892   5.892   2.688  18.326  0.7762  0.4729 -0.1441
 2566TIP3    H131893   5.871   2.625  18.257  2.3868  0.0962 -0.3363
 2566TIP3    H231894   5.906   2.770  18.278  0.8211  0.4602 -0.1529
 2567TIP3   OH231895   6.979   2.275  18.673  0.2257  0.4765 -0.0935
 2567TIP3    H131896   6.945   2.218  18.742  1.1733 -0.1919 -0.1624
 2567TIP3    H231897   7.046   2.223  18.630  0.6658  1.4225 -0.5804
 2568TIP3   OH231898   3.193   1.161  17.788 -0.0055 -0.1827 -0.2594
 2568TIP3    H131899   3.285   1.175  17.807  0.0330  1.4796 -1.4238
 2568TIP3    H231900   3.187   1.166  17.692 -1.6708  2.9629 -0.1502
 2569TIP3   OH231901   1.010   6.825  16.891 -0.1816  0.4191 -0.0892
 2569TIP3    H131902   1.042   6.799  16.977  0.2769 -0.7914 -0.5920
 2569TIP3    H231903   1.088   6.853  16.843 -0.2354 -0.0845 -0.4907
 2570TIP3   OH231904   5.008   1.338  17.472  0.0686  0.2617  0.1831
 2570TIP3    H131905   4.954   1.417  17.469 -0.1249  0.1406  0.4572
 2570TIP3    H231906   4.975   1.289  17.547 -1.7064 -1.4101 -1.5587
 2571TIP3   OH231907   0.657   2.270  19.527 -0.1133 -0.3059 -0.0051
 2571TIP3    H131908   0.740   2.287  19.571 -0.5900 -1.1532  1.2701
 2571TIP3    H231909   0.597   2.334  19.566 -0.0592  0.3577 -0.9803
 2572TIP3   OH231910   2.020   3.338  18.285 -0.3257  0.4884 -0.0126
 2572TIP3    H131911   2.002   3.273  18.217  0.3232  0.3627 -0.0693
 2572TIP3    H231912   2.018   3.422  18.239  2.2079  0.2629 -0.6423
 2573TIP3   OH231913   5.655   3.479  18.053  0.6468  0.1146  0.4432
 2573TIP3    H131914   5.612   3.469  17.968  1.3510  0.1286  0.0779
 2573TIP3    H231915   5.748   3.479  18.033  0.8098  0.6242  1.1660
 2574TIP3   OH231916   4.733   7.673  18.362  0.1557  0.2901  0.2471
 2574TIP3    H131917   4.644   7.701  18.381 -0.3913 -1.3581  0.2736
 2574TIP3    H231918   4.774   7.659  18.447  0.1768  0.2579  0.2312
 2575TIP3   OH231919   1.308   5.581  18.400  0.5088 -0.4980 -0.5511
 2575TIP3    H131920   1.217   5.593  18.374  0.2512 -0.0269  0.5207
 2575TIP3    H231921   1.309   5.598  18.494  1.9886  1.2110 -0.8179
 2576TIP3   OH231922   6.272   6.791  18.044  0.5332  0.0372 -0.5446
 2576TIP3    H131923   6.193   6.793  17.989 -0.0699 -0.6991  0.2872
 2576TIP3    H231924   6.337   6.839  17.992  0.2343 -1.3573 -2.3047
 2577TIP3   OH231925   0.141   4.025  18.357  0.1781  0.2408  0.1851
 2577TIP3    H131926   0.081   4.034  18.283 -0.6204 -1.0599  0.6183
 2577TIP3    H231927   0.177   3.937  18.347  1.8126  0.8973  0.1104
 2578TIP3   OH231928   2.003   5.716  19.051 -0.6885 -0.4744 -0.2760
 2578TIP3    H131929   2.057   5.637  19.052  1.2882  0.6809 -2.9019
 2578TIP3    H231930   1.945   5.705  18.977  0.0401  0.7245 -1.0681
 2579TIP3   OH231931   5.469   2.659  17.972  0.0468 -0.0004  0.2078
 2579TIP3    H131932   5.449   2.573  18.008 -0.0611  0.2702  0.8046
 2579TIP3    H231933   5.548   2.687  18.018 -0.5287  0.6793  0.8113
 2580TIP3   OH231934   5.808   2.389  17.007 -0.4817 -0.3444 -0.3958
 2580TIP3    H131935   5.832   2.302  17.041 -0.1970 -0.6909 -1.4410
 2580TIP3    H231936   5.723   2.407  17.046 -0.0087 -0.5657  0.7714
 2581TIP3   OH231937   4.746   7.393  19.388  0.0708 -0.5673  0.6174
 2581TIP3    H131938   4.755   7.456  19.316 -0.0465 -1.1331  0.1039
 2581TIP3    H231939   4.687   7.326  19.354 -0.8703 -0.2855  1.6367
 2582TIP3   OH231940   5.794   2.554  17.432  0.1092 -0.4610  0.7833
 2582TIP3    H131941   5.855   2.516  17.370  0.7315  0.5190  0.7601
 2582TIP3    H231942   5.713   2.507  17.419  0.2747 -0.3890 -0.6591
 2583TIP3   OH231943   7.223   1.431  18.938 -0.0646 -0.1599  0.1366
 2583TIP3    H131944   7.259   1.478  18.863 -1.2192  1.0555  0.3138
 2583TIP3    H231945   7.300   1.399  18.986  0.7524  1.2614 -0.1812
 2584TIP3   OH231946   2.345   7.428  18.917 -0.1440  0.0017  0.3409
 2584TIP3    H131947   2.383   7.341  18.931 -1.6006 -0.5520  1.0595
 2584TIP3    H231948   2.417   7.488  18.932  0.9063 -1.0716 -0.1994
 2585TIP3   OH231949   5.042   0.657  19.140 -0.3996  0.1438 -0.1196
 2585TIP3    H131950   5.060   0.588  19.077 -1.0146 -0.3593  0.2394
 2585TIP3    H231951   4.989   0.615  19.207 -2.7316  1.4333 -1.0096
 2586TIP3   OH231952   4.106   6.605  18.751  0.2053  0.3647 -0.1381
 2586TIP3    H131953   4.083   6.696  18.729 -0.9897 -0.2642 -1.6958
 2586TIP3    H231954   4.066   6.591  18.837  0.6679  1.3872  0.2701
 2587TIP3   OH231955   1.830   4.278  19.409  0.0704  0.3081  0.5948
 2587TIP3    H131956   1.789   4.194  19.388  1.5271 -0.5028  0.8479
 2587TIP3    H231957   1.886   4.258  19.484 -1.2755  2.0300  2.1378
 2588TIP3   OH231958   7.069   2.900  17.287 -0.1895 -0.1162  0.3178
 2588TIP3    H131959   7.059   2.945  17.203  2.1233  0.4300  0.2635
 2588TIP3    H231960   7.061   2.807  17.266 -2.6412  0.1118  0.0356
 2589TIP3   OH231961   1.350   5.377  18.748 -0.0390  0.0372  0.4676
 2589TIP3    H131962   1.321   5.300  18.699  1.5996 -1.4330  1.6474
 2589TIP3    H231963   1.439   5.393  18.717  0.0726  0.7095  1.1030
 2590TIP3   OH231964   5.113   3.991  18.520 -0.0848 -0.2898  0.6818
 2590TIP3    H131965   5.184   4.000  18.583 -1.0137  1.0638  1.5614
 2590TIP3    H231966   5.095   4.080  18.490 -1.2872 -0.6298  0.3293
 2591TIP3   OH231967   5.246   5.158  18.607 -0.3651  0.1018 -0.0639
 2591TIP3    H131968   5.290   5.130  18.526 -1.7425 -0.5025 -0.6293
 2591TIP3    H231969   5.201   5.080  18.638 -0.4242  0.5125  0.9217
 2592TIP3   OH231970   5.235   2.885  18.606  0.4272 -0.0970 -0.2262
 2592TIP3    H131971   5.253   2.861  18.697 -2.5020 -1.1871  0.1529
 2592TIP3    H231972   5.242   2.980  18.605  0.3819 -0.0538  1.1795
 2593TIP3   OH231973   1.166   2.586  17.216 -0.0511  0.4094 -0.1791
 2593TIP3    H131974   1.137   2.571  17.126  1.2714  1.0275 -0.7355
 2593TIP3    H231975   1.252   2.626  17.207 -0.0365  0.7964  1.3673
 2594TIP3   OH231976   5.893   6.908  16.368  0.3434 -0.1689 -0.0346
 2594TIP3    H131977   5.987   6.890  16.371  0.5296  0.6899 -0.3181
 2594TIP3    H231978   5.887   7.000  16.340 -0.5849 -0.2631 -0.1790
 2595TIP3   OH231979   2.227   0.527  17.138  0.1905 -0.1639  0.2652
 2595TIP3    H131980   2.242   0.448  17.190  0.1363 -1.2175 -1.2562
 2595TIP3    H231981   2.133   0.528  17.123  0.3854 -0.8200 -1.1908
 2596TIP3   OH231982   5.183   2.747  17.203  0.0794 -0.1404 -0.4287
 2596TIP3    H131983   5.214   2.750  17.112 -0.6173 -0.2252 -0.6715
 2596TIP3    H231984   5.088   2.740  17.196  0.1135 -1.8770  0.2718
 2597TIP3   OH231985   4.654   7.015  18.956  0.3769 -0.6843  0.5170
 2597TIP3    H131986   4.685   7.080  18.893 -0.6048 -0.6897  0.0170
 2597TIP3    H231987   4.621   6.943  18.902 -1.9292 -0.0366  0.9397
 2598TIP3   OH231988   7.672   2.979  18.636  0.2144  0.2125 -0.4475
 2598TIP3    H131989   7.595   3.034  18.653 -0.6900 -0.7372 -1.3223
 2598TIP3    H231990   7.735   3.005  18.704 -1.2267  0.3438  0.9176
 2599TIP3   OH231991   0.376   2.639  18.161  0.5414  0.6165  0.6889
 2599TIP3    H131992   0.341   2.714  18.210  1.8474  1.6820  0.0696
 2599TIP3    H231993   0.312   2.569  18.175 -0.8119  1.8880  1.1634
 2600TIP3   OH231994   7.583   4.334  17.425 -0.1395 -0.4162  0.4181
 2600TIP3    H131995   7.601   4.383  17.344  2.6465  0.1606  1.3012
 2600TIP3    H231996   7.612   4.245  17.406 -2.5318 -1.1285 -0.2230
 2601TIP3   OH231997   5.838   0.992  19.498 -0.0762 -0.5026  0.2359
 2601TIP3    H131998   5.876   0.983  19.411 -1.4769  1.1205 -0.6084
 2601TIP3    H231999   5.849   0.906  19.538  2.5159 -0.7020 -0.7045
 2602TIP3   OH232000   2.471   5.940  17.141 -0.2188 -0.4305 -0.3154
 2602TIP3    H132001   2.418   5.905  17.212 -1.0267  0.4062 -0.4958
 2602TIP3    H232002   2.420   5.923  17.062 -0.8811  1.5407 -0.3676
 2603TIP3   OH232003   4.636   2.111  19.007  0.1740 -0.0265  0.1719
 2603TIP3    H132004   4.627   2.017  19.019  2.1418 -0.2741 -0.0633
 2603TIP3    H232005   4.679   2.142  19.086  0.7669  0.4519 -0.3270
 2604TIP3   OH232006   2.348   0.923  18.750 -0.3383 -0.1541  0.5874
 2604TIP3    H132007   2.391   0.850  18.705  0.0571  0.3097  0.1969
 2604TIP3    H232008   2.324   0.889  18.836 -1.3514 -1.1437 -0.0703
 2605TIP3   OH232009   6.750   6.655  17.577  0.3873 -0.1935 -0.7925
 2605TIP3    H132010   6.818   6.616  17.633 -0.6893 -0.8632  0.0794
 2605TIP3    H232011   6.740   6.592  17.505 -0.7621 -1.1725  0.1814
 2606TIP3   OH232012   6.721   4.620  18.332 -0.6799 -0.4339 -0.2276
 2606TIP3    H132013   6.703   4.534  18.294  1.4579 -2.0751  2.1189
 2606TIP3    H232014   6.803   4.648  18.292  1.2326 -1.8694  2.4220
 2607TIP3   OH232015   3.271   0.849  17.474  0.0179  0.7425  0.4701
 2607TIP3    H132016   3.326   0.816  17.403 -0.7820  1.6159 -0.5946
 2607TIP3    H232017   3.245   0.771  17.523  2.8108  0.3450  1.5212
 2608TIP3   OH232018   1.474   1.212  16.792 -0.1522 -0.2701 -0.1130
 2608TIP3    H132019   1.548   1.169  16.833 -0.4356 -1.0836 -0.4281
 2608TIP3    H232020   1.509   1.294  16.757  0.6616 -0.7771 -0.5068
 2609TIP3   OH232021   6.707   2.249  18.464  0.2321  0.4245  0.2995
 2609TIP3    H132022   6.688   2.307  18.538 -1.2173  0.3641  0.0093
 2609TIP3    H232023   6.649   2.280  18.394  2.5213  1.3482 -1.2938
 2610TIP3   OH232024   1.455   3.611  17.204  0.0351 -0.0203 -0.6593
 2610TIP3    H132025   1.495   3.638  17.287  0.3869 -1.9337 -0.1560
 2610TIP3    H232026   1.362   3.600  17.225  0.3989 -2.3095  0.0455
 2611TIP3   OH232027   2.809   2.070  18.125  0.4957  0.1792 -0.0057
 2611TIP3    H132028   2.716   2.078  18.146  0.1253 -2.6629 -0.0933
 2611TIP3    H232029   2.851   2.051  18.208  1.0996  1.7891  0.0878
 2612TIP3   OH232030   2.346   2.417  18.218  0.0515 -0.2492 -0.0811
 2612TIP3    H132031   2.257   2.399  18.249 -0.2504 -0.0369 -0.7907
 2612TIP3    H232032   2.362   2.507  18.244  0.0573 -0.2854  0.0435
 2613TIP3   OH232033   6.512   1.608  19.383  0.0213  0.0798  0.4920
 2613TIP3    H132034   6.463   1.682  19.419  1.0767 -0.2677  2.8189
 2613TIP3    H232035   6.463   1.531  19.412  0.3531 -0.2032  0.3051
 2614TIP3   OH232036   1.066   3.562  18.726  0.3242  0.6172  0.1447
 2614TIP3    H132037   0.976   3.563  18.759 -0.3452 -0.7561 -1.4624
 2614TIP3    H232038   1.096   3.472  18.741  0.1662  0.0650 -2.3337
 2615TIP3   OH232039   4.671   0.937  18.208 -0.3803 -0.3241 -0.3930
 2615TIP3    H132040   4.594   0.880  18.208 -0.2268 -0.6441  2.0007
 2615TIP3    H232041   4.742   0.880  18.179 -0.6685 -0.6630 -0.4490
 2616TIP3   OH232042   6.203   3.224  18.120 -0.1881  0.5700 -0.2551
 2616TIP3    H132043   6.138   3.200  18.185 -0.2973  1.2989 -0.0979
 2616TIP3    H232044   6.228   3.314  18.142 -1.0739  1.2555 -1.9009
 2617TIP3   OH232045   4.728   0.993  17.776  0.0398  0.5529  0.0798
 2617TIP3    H132046   4.680   0.923  17.733 -1.5834  0.7591  1.4596
 2617TIP3    H232047   4.696   1.073  17.735  0.5313  0.6062 -0.2124
 2618TIP3   OH232048   5.390   2.452  18.124 -0.2573 -0.0215 -0.3026
 2618TIP3    H132049   5.337   2.404  18.187  0.0912  1.5247  1.2703
 2618TIP3    H232050   5.429   2.385  18.068 -0.0405 -1.5298  1.5652
 2619TIP3   OH232051   7.320   1.764  19.367  0.3794 -0.3457  0.1587
 2619TIP3    H132052   7.350   1.709  19.295  1.3863 -1.1851  1.1854
 2619TIP3    H232053   7.224   1.761  19.362  0.4133  0.6481 -1.8878
 2620TIP3   OH232054   2.963   0.940  19.725  0.2191  0.4217 -0.2717
 2620TIP3    H132055   3.026   0.997  19.682 -0.9281  2.0370  0.0895
 2620TIP3    H232056   2.969   0.963  19.818  0.9613 -1.3041  0.1446
 2621TIP3   OH232057   6.156   2.996  17.987  0.2472 -0.1483  0.2184
 2621TIP3    H132058   6.165   3.075  18.041 -3.0265 -0.5566  1.5576
 2621TIP3    H232059   6.188   3.023  17.901  1.3313  1.9308  1.1976
 2622TIP3   OH232060   2.138   5.971  18.563  0.1321 -0.2481  0.0507
 2622TIP3    H132061   2.220   6.012  18.533 -0.9612  1.1523 -1.1402
 2622TIP3    H232062   2.104   5.925  18.486 -0.4997 -0.3389  0.3813
 2623TIP3   OH232063   4.634   5.528  19.103 -0.1456  0.1374 -0.2032
 2623TIP3    H132064   4.580   5.487  19.035 -2.3933  0.7114  1.1220
 2623TIP3    H232065   4.605   5.487  19.184 -2.4879  4.0122  1.2129
 2624TIP3   OH232066   2.330   5.873  16.917  0.3857 -0.0178  0.3494
 2624TIP3    H132067   2.350   5.833  16.832 -1.9654  0.3799 -0.4626
 2624TIP3    H232068   2.295   5.801  16.969  1.4461 -0.1727  0.8694
 2625TIP3   OH232069   6.791   0.437  18.199 -0.2335 -0.4551 -0.2563
 2625TIP3    H132070   6.871   0.441  18.252 -1.6686 -1.5781  2.1781
 2625TIP3    H232071   6.741   0.514  18.226  0.6209  1.2311 -3.0382
 2626TIP3   OH232072   7.281   0.748  17.298  0.0005 -0.0446  0.0032
 2626TIP3    H132073   7.216   0.682  17.274  1.5613 -1.1285 -1.4546
 2626TIP3    H232074   7.240   0.798  17.369 -0.5110 -3.9176  2.7591
 2627TIP3   OH232075   0.948   5.088  19.035 -0.3306 -0.0737 -0.1121
 2627TIP3    H132076   0.925   5.009  18.986 -0.8198  0.3647 -0.6036
 2627TIP3    H232077   1.004   5.138  18.976  0.9738 -0.5849  0.6430
 2628TIP3   OH232078   0.640   3.838  17.943  0.3282  0.1791  0.2076
 2628TIP3    H132079   0.684   3.921  17.923  0.3659  0.1410  0.1337
 2628TIP3    H232080   0.694   3.771  17.900 -0.5790  0.2508 -1.0746
 2629TIP3   OH232081   5.492   0.640  17.220 -0.3502 -0.0153  0.4590
 2629TIP3    H132082   5.521   0.579  17.153 -1.1717 -1.5185  1.4280
 2629TIP3    H232083   5.547   0.717  17.208 -0.2508 -0.3698 -1.7120
 2630TIP3   OH232084   5.519   7.309  18.887  0.1795 -0.5087  0.4274
 2630TIP3    H132085   5.503   7.338  18.977 -0.4041 -0.8478  0.4294
 2630TIP3    H232086   5.609   7.276  18.888  0.6523  0.7366  0.5698
 2631TIP3   OH232087   5.703   3.521  18.624 -0.6793  0.1579 -0.4947
 2631TIP3    H132088   5.754   3.442  18.639 -0.0266  0.7067  0.2620
 2631TIP3    H232089   5.761   3.578  18.573 -0.5510  0.7492  0.2946
 2632TIP3   OH232090   5.601   7.148  19.257  0.3480  0.2279  0.0950
 2632TIP3    H132091   5.583   7.107  19.342 -1.0156 -0.0887 -0.3128
 2632TIP3    H232092   5.680   7.105  19.225 -0.1708 -0.9999  0.3913
 2633TIP3   OH232093   5.559   0.217  17.099  0.7379 -0.1419 -0.0538
 2633TIP3    H132094   5.561   0.131  17.141 -3.3599 -0.2028  0.3946
 2633TIP3    H232095   5.548   0.198  17.006  1.1480 -0.0472 -0.1259
 2634TIP3   OH232096   0.285   0.569  18.419 -0.8371 -0.6949  0.3312
 2634TIP3    H132097   0.335   0.591  18.498 -0.6138 -0.6990  0.1950
 2634TIP3    H232098   0.292   0.648  18.364  1.0041 -1.4962 -0.6885
 2635TIP3   OH232099   6.135   0.721  19.403 -0.1198 -0.4069  0.1646
 2635TIP3    H132100   6.125   0.635  19.362 -1.5630 -0.2668  0.1500
 2635TIP3    H232101   6.143   0.782  19.330 -0.7687 -0.3626  0.1238
 2636TIP3   OH232102   0.663   0.800  18.501  0.5264 -0.4125  0.4102
 2636TIP3    H132103   0.648   0.790  18.407 -0.1499 -1.9550  0.6466
 2636TIP3    H232104   0.687   0.712  18.531 -1.5680 -0.5160  2.0377
 2637TIP3   OH232105   3.167   5.814  18.634 -0.0141 -0.1290 -0.3447
 2637TIP3    H132106   3.106   5.853  18.697 -0.6690 -0.7614 -0.5762
 2637TIP3    H232107   3.150   5.720  18.640  1.3683 -0.3709  0.0210
 2638TIP3   OH232108   1.843   6.923  18.952 -0.7711  0.5446 -0.1935
 2638TIP3    H132109   1.838   6.941  19.046 -1.0033 -0.7782  0.0569
 2638TIP3    H232110   1.899   6.993  18.917 -0.8735  1.1790  0.8820
 2639TIP3   OH232111   1.851   7.153  19.533 -0.2574  0.5955 -0.1900
 2639TIP3    H132112   1.895   7.099  19.599  0.7499  1.9630  0.3057
 2639TIP3    H232113   1.902   7.138  19.453 -0.0767  0.6764 -0.0917
 2640TIP3   OH232114   1.312   0.601  18.270 -0.0073  0.3265  0.0309
 2640TIP3    H132115   1.226   0.607  18.310  0.8652  0.8600  1.9648
 2640TIP3    H232116   1.355   0.528  18.315  0.3288 -0.3889 -1.3920
 2641TIP3   OH232117   6.745   7.072  19.295  0.5208 -0.0536 -0.0407
 2641TIP3    H132118   6.836   7.097  19.316  0.5454 -0.4028  0.2800
 2641TIP3    H232119   6.705   7.153  19.265  1.2731 -0.1365 -1.3643
 2642TIP3   OH232120   6.305   4.056  17.078  0.3580  0.4245 -0.2876
 2642TIP3    H132121   6.344   4.128  17.029  0.5338  1.1431  0.8522
 2642TIP3    H232122   6.229   4.096  17.122  1.2220  0.2834  1.4187
 2643TIP3   OH232123   2.393   1.622  18.372  0.1848 -0.0256  0.3822
 2643TIP3    H132124   2.363   1.659  18.289  0.9687  0.5002  0.3182
 2643TIP3    H232125   2.453   1.688  18.407 -0.8815  0.2044  1.8530
 2644TIP3   OH232126   5.568   2.193  19.247  0.0779 -0.4236  0.0392
 2644TIP3    H132127   5.637   2.200  19.314 -0.3918  0.1483  0.4717
 2644TIP3    H232128   5.506   2.262  19.269  1.5186  2.0534 -2.9020
 2645TIP3   OH232129   3.607   6.899  17.516  0.2440  0.3364 -0.3127
 2645TIP3    H132130   3.636   6.935  17.432  0.5082  1.0818  0.0899
 2645TIP3    H232131   3.550   6.826  17.492  0.8002  0.1579 -1.1298
 2646TIP3   OH232132   6.215   0.978  18.608  0.5620  0.2912 -0.0546
 2646TIP3    H132133   6.214   1.016  18.520  2.0368 -0.1674 -0.2997
 2646TIP3    H232134   6.185   1.048  18.665 -2.1225  0.0728 -1.0684
 2647TIP3   OH232135   6.476   3.528  18.466 -0.2415  0.2846 -0.8529
 2647TIP3    H132136   6.450   3.472  18.394 -0.0276  0.1110 -0.7974
 2647TIP3    H232137   6.422   3.499  18.540  1.3479 -1.2927 -0.2482
 2648TIP3   OH232138   2.957   0.997  17.850  0.1762  0.3328 -0.3588
 2648TIP3    H132139   2.887   1.025  17.791  0.3305  2.8030  0.5150
 2648TIP3    H232140   3.038   1.012  17.800  0.1880 -0.4913 -0.5974
 2649TIP3   OH232141   0.882   1.176  18.751  0.4916 -0.1745 -0.3659
 2649TIP3    H132142   0.791   1.199  18.767  1.2196  3.0542 -0.0453
 2649TIP3    H232143   0.886   1.153  18.659 -0.4632  1.0920 -0.7571
 2650TIP3   OH232144   4.465   0.786  18.102  0.0574 -0.2772  0.2509
 2650TIP3    H132145   4.444   0.825  18.018  1.5948 -0.0075 -0.0213
 2650TIP3    H232146   4.394   0.722  18.117 -1.5880  1.4025 -0.0416
 2651TIP3   OH232147   4.180   0.278  17.393  0.7427  0.0569  0.6089
 2651TIP3    H132148   4.113   0.215  17.367 -1.5674  1.1673  3.3814
 2651TIP3    H232149   4.161   0.356  17.340  1.6313 -0.4870 -0.5580
 2652TIP3   OH232150   3.778   0.252  18.542  0.4265 -0.3476 -0.3751
 2652TIP3    H132151   3.790   0.342  18.573 -0.0262 -1.0068  1.8907
 2652TIP3    H232152   3.698   0.223  18.584  0.7143 -1.9168 -0.8516
 2653TIP3   OH232153   3.381   4.018  17.209  0.7760 -0.2468 -0.0513
 2653TIP3    H132154   3.435   4.095  17.192  0.1839  0.1635 -0.1092
 2653TIP3    H232155   3.295   4.053  17.232  0.0592 -0.9098 -1.5999
 2654TIP3   OH232156   6.287   4.661  18.480  0.1356  0.1696 -0.0965
 2654TIP3    H132157   6.213   4.688  18.426  1.0151  2.6332 -0.2299
 2654TIP3    H232158   6.250   4.603  18.547 -1.3759 -0.9436 -1.8284
 2655TIP3   OH232159   0.867   1.284  18.339 -0.5582  0.7554  0.0029
 2655TIP3    H132160   0.826   1.361  18.298 -0.6111 -0.1438 -1.7481
 2655TIP3    H232161   0.932   1.255  18.274 -1.0788 -1.1241  0.2821
 2656TIP3   OH232162   5.544   1.320  18.694  0.1332  0.2757  0.4307
 2656TIP3    H132163   5.492   1.380  18.748 -0.1655 -0.6417  1.1994
 2656TIP3    H232164   5.535   1.235  18.738  0.1258 -0.4447 -0.9195
 2657TIP3   OH232165   7.637   5.653  18.539 -0.2450  0.2758 -0.1271
 2657TIP3    H132166   7.654   5.585  18.473 -0.9408  0.5013 -0.5446
 2657TIP3    H232167   7.673   5.733  18.500 -1.2914  0.5514 -0.5601
 2658TIP3   OH232168   7.500   5.845  17.704 -0.4131 -0.3093  0.3736
 2658TIP3    H132169   7.505   5.905  17.778 -2.1134 -1.6124  1.6428
 2658TIP3    H232170   7.549   5.888  17.635 -0.1679  1.7482  1.7312
 2659TIP3   OH232171   2.945   0.484  19.540 -0.3858 -0.4931  0.5524
 2659TIP3    H132172   3.023   0.537  19.522 -0.1726 -1.0499 -0.2353
 2659TIP3    H232173   2.969   0.396  19.510 -1.3604 -0.6397  0.1817
 2660TIP3   OH232174   5.933   6.447  17.748  0.9134 -0.0909 -0.3986
 2660TIP3    H132175   5.870   6.503  17.793  1.5891  0.0051  0.4686
 2660TIP3    H232176   5.977   6.399  17.818  1.2320 -0.7579 -1.0441
 2661TIP3   OH232177   6.841   1.793  18.348  0.3951 -0.8400 -0.6079
 2661TIP3    H132178   6.843   1.861  18.416 -1.3787 -1.5087  0.1865
 2661TIP3    H232179   6.793   1.834  18.276  3.7469  0.4879 -2.2980
 2662TIP3   OH232180   3.276   5.590  19.352  0.5823  0.1707  0.3431
 2662TIP3    H132181   3.195   5.540  19.345 -0.1412  1.4545 -0.9162
 2662TIP3    H232182   3.253   5.665  19.406  1.0434  0.3136  0.3408
 2663TIP3   OH232183   1.518   6.341  18.664  0.1235  0.4137 -0.2135
 2663TIP3    H132184   1.498   6.364  18.573  0.4161  2.2359  0.1379
 2663TIP3    H232185   1.439   6.366  18.713 -0.3755 -1.3659 -0.0415
 2664TIP3   OH232186   1.809   0.836  18.147  0.0313 -0.1721 -0.1736
 2664TIP3    H132187   1.870   0.849  18.220  0.8852 -1.3909 -0.6311
 2664TIP3    H232188   1.743   0.775  18.181 -0.1013 -0.0015 -0.1263
 2665TIP3   OH232189   1.661   3.525  17.688  0.0871 -0.2527 -0.1128
 2665TIP3    H132190   1.652   3.432  17.711 -0.3087 -0.2606 -0.2791
 2665TIP3    H232191   1.586   3.567  17.729  0.4576  0.0537  0.2551
 2666TIP3   OH232192   4.247   5.964  19.126  0.5922  0.1242  0.5726
 2666TIP3    H132193   4.307   5.907  19.078 -1.3099 -0.0850 -1.7459
 2666TIP3    H232194   4.248   6.046  19.077  0.1659  0.6616  1.4377
 2667TIP3   OH232195   6.411   5.059  18.881 -0.6267  0.2372  0.9885
 2667TIP3    H132196   6.389   4.995  18.813  3.0966 -0.5305  0.3281
 2667TIP3    H232197   6.342   5.048  18.946 -3.1521 -0.4984 -1.5997
 2668TIP3   OH232198   5.714   1.527  18.218  0.4520  0.0471 -0.0019
 2668TIP3    H132199   5.675   1.471  18.284 -0.3325 -1.9410 -2.0417
 2668TIP3    H232200   5.793   1.480  18.190 -0.1290 -0.0167 -1.6339
 2669TIP3   OH232201   1.069   6.599  17.324  0.1632  0.3121  0.0728
 2669TIP3    H132202   1.133   6.556  17.267 -2.2052  0.4820 -2.9959
 2669TIP3    H232203   1.035   6.528  17.378  2.2848  0.0857  1.2327
 2670TIP3   OH232204   2.952   7.311  17.137 -0.0954 -0.2177  0.0547
 2670TIP3    H132205   2.923   7.272  17.219  0.3061  1.2665  0.9575
 2670TIP3    H232206   2.890   7.280  17.071 -0.5069 -1.3242  0.9474
 2671TIP3   OH232207   5.008   5.087  18.943  0.0754  0.0051 -0.0647
 2671TIP3    H132208   5.027   5.148  19.015 -0.8275  1.0318 -0.6658
 2671TIP3    H232209   4.929   5.122  18.902 -0.7943 -1.8786 -0.1118
 2672TIP3   OH232210   3.822   2.835  18.599  0.1369  0.3602  0.3000
 2672TIP3    H132211   3.899   2.844  18.656  0.2675  0.9421  0.0375
 2672TIP3    H232212   3.857   2.846  18.511  0.2158 -2.0912 -0.0590
 2673TIP3   OH232213   3.681   0.746  17.792 -0.2439 -0.5992 -0.4847
 2673TIP3    H132214   3.663   0.730  17.884 -1.6124 -3.6328 -1.1400
 2673TIP3    H232215   3.603   0.791  17.759 -0.8051 -1.6467 -0.6127
 2674TIP3   OH232216   6.315   7.088  17.938  0.9210 -0.8494  0.0842
 2674TIP3    H132217   6.392   7.032  17.937  0.5587 -1.4409  1.7050
 2674TIP3    H232218   6.301   7.112  17.847  2.3572 -1.6415 -0.3705
 2675TIP3   OH232219   3.354   3.545  17.377 -0.2744 -0.0999  0.2019
 2675TIP3    H132220   3.386   3.634  17.361  2.2460 -0.4062  2.6884
 2675TIP3    H232221   3.362   3.501  17.292 -0.5697  1.7086 -0.8230
 2676TIP3   OH232222   1.121   2.123  18.660 -0.1543 -0.2290 -0.0548
 2676TIP3    H132223   1.145   2.032  18.646 -0.0604 -0.1213 -0.6106
 2676TIP3    H232224   1.184   2.156  18.724 -0.5547 -0.7136  0.6006
 2677TIP3   OH232225   2.903   1.926  18.354  0.6101 -0.1848  0.2216
 2677TIP3    H132226   2.979   1.899  18.302  0.2256 -0.2919 -0.2898
 2677TIP3    H232227   2.907   1.870  18.432  1.2167  0.0082  0.3344
 2678TIP3   OH232228   5.073   3.872  17.745 -0.8355  0.3171  0.5605
 2678TIP3    H132229   5.036   3.821  17.674 -1.3587  0.0410  1.0247
 2678TIP3    H232230   5.041   3.961  17.731 -0.1320  0.4756 -0.1034
 2679TIP3   OH232231   0.424   3.433  18.072 -0.4514  0.2583  0.1750
 2679TIP3    H132232   0.482   3.453  18.146  2.4637  0.6936 -2.0416
 2679TIP3    H232233   0.399   3.519  18.038 -2.2565  0.0665  0.9156
 2680TIP3   OH232234   0.369   0.408  17.929  0.3016 -0.8129  1.0828
 2680TIP3    H132235   0.275   0.396  17.946 -0.7127  1.9930 -1.5477
 2680TIP3    H232236   0.405   0.436  18.012 -1.4510 -0.7680  1.8824
 2681TIP3   OH232237   6.813   4.834  18.157 -0.1109  0.1917 -0.1148
 2681TIP3    H132238   6.837   4.906  18.215  1.8920 -1.4737  1.2729
 2681TIP3    H232239   6.775   4.877  18.080 -0.5191  2.6040  1.3355
 2682TIP3   OH232240   7.449   0.873  17.828  0.0030  0.7373 -0.0691
 2682TIP3    H132241   7.354   0.887  17.828  0.1851  2.2427 -0.8955
 2682TIP3    H232242   7.486   0.961  17.839  1.3261 -0.0168  2.1516
 2683TIP3   OH232243   2.091   4.127  18.864  0.3769 -0.5561 -0.5182
 2683TIP3    H132244   2.143   4.058  18.905 -1.5021 -2.8707 -1.7776
 2683TIP3    H232245   2.041   4.166  18.936  1.7366 -0.1970  0.2661
 2684TIP3   OH232246   5.386   4.444  18.249 -0.0335  0.3607  0.4835
 2684TIP3    H132247   5.299   4.429  18.212 -0.0115 -0.9272  0.8931
 2684TIP3    H232248   5.432   4.497  18.183 -0.6636 -0.1521 -0.3890
 2685TIP3   OH232249   1.370   6.964  17.386 -0.5655 -0.7975  0.3960
 2685TIP3    H132250   1.296   7.019  17.414  0.0069  0.9084 -1.2300
 2685TIP3    H232251   1.348   6.939  17.296  1.7323  1.5624 -0.9408
 2686TIP3   OH232252   6.490   1.024  19.241 -0.3299 -0.0430 -0.2646
 2686TIP3    H132253   6.428   1.057  19.176 -0.4312 -0.0904 -0.1921
 2686TIP3    H232254   6.526   1.102  19.282  0.1170  0.0018 -0.7367
 2687TIP3   OH232255   4.446   0.597  17.770 -0.1664  0.2507  0.4556
 2687TIP3    H132256   4.534   0.587  17.806  0.4536 -0.0554 -1.0334
 2687TIP3    H232257   4.434   0.519  17.715 -1.8898 -0.3607  1.6297
 2688TIP3   OH232258   5.931   1.393  18.118  0.4121  0.0744 -0.2020
 2688TIP3    H132259   6.005   1.333  18.116  1.7096  1.6256 -2.0916
 2688TIP3    H232260   5.888   1.382  18.034 -0.6882  0.1879  0.3290
 2689TIP3   OH232261   1.585   2.789  17.570  0.1883  0.0938  0.0138
 2689TIP3    H132262   1.524   2.748  17.631  0.2390 -0.8071 -0.5157
 2689TIP3    H232263   1.603   2.721  17.505  1.7855  0.3193  0.1698
 2690TIP3   OH232264   1.196   3.599  17.441 -0.4355  0.0897 -0.3704
 2690TIP3    H132265   1.234   3.512  17.455 -1.3979 -0.3716 -0.4614
 2690TIP3    H232266   1.140   3.613  17.518 -0.6934  0.3909 -0.6109
 2691TIP3   OH232267   7.501   3.540  17.324  0.3926  0.2626  0.5599
 2691TIP3    H132268   7.414   3.505  17.341  0.0846  1.5535  1.8131
 2691TIP3    H232269   7.536   3.561  17.410  1.9377 -0.1739  0.0691
 2692TIP3   OH232270   1.293   1.229  17.281  0.1350 -0.0322  0.3756
 2692TIP3    H132271   1.274   1.162  17.216 -0.0438 -0.3869  0.7916
 2692TIP3    H232272   1.247   1.307  17.250  0.2438 -0.1334 -0.0435
 2693TIP3   OH232273   6.820   2.961  19.656 -0.3474 -0.1277  0.3987
 2693TIP3    H132274   6.788   3.052  19.654  0.3189  0.1257 -1.7487
 2693TIP3    H232275   6.914   2.970  19.669 -0.0895 -0.3995 -1.0985
 2694TIP3   OH232276   7.476   3.723  19.334 -0.8310  0.4499  0.2494
 2694TIP3    H132277   7.484   3.651  19.397  1.3459  1.8921  1.7971
 2694TIP3    H232278   7.558   3.720  19.285 -1.2307  1.1711 -0.4786
 2695TIP3   OH232279   4.817   3.820  19.179 -0.5825  0.2880  0.0397
 2695TIP3    H132280   4.854   3.802  19.093  1.0196  0.0708  0.7353
 2695TIP3    H232281   4.812   3.916  19.183 -0.0706  0.3231 -0.0708
 2696TIP3   OH232282   0.831   4.731  18.330  0.2892  0.5735 -0.1943
 2696TIP3    H132283   0.817   4.645  18.292  2.4949 -0.3600  0.9180
 2696TIP3    H232284   0.744   4.758  18.362 -0.2639 -1.7141  0.3967
 2697TIP3   OH232285   0.126   1.058  19.531 -0.5491  0.1517 -0.0983
 2697TIP3    H132286   0.213   1.028  19.558 -0.3843  0.2012 -0.5601
 2697TIP3    H232287   0.065   1.002  19.579 -0.2696  0.3643  0.5166
 2698TIP3   OH232288   4.224   1.743  19.007  0.5645 -0.1368 -0.6758
 2698TIP3    H132289   4.250   1.825  18.965  0.0349 -0.0081 -0.7629
 2698TIP3    H232290   4.128   1.749  19.012  0.4975 -0.9201 -1.0241
 2699TIP3   OH232291   7.639   2.902  17.653  0.4383  0.0037 -0.0384
 2699TIP3    H132292   7.704   2.844  17.614  1.7291  1.8486 -0.7884
 2699TIP3    H232293   7.618   2.965  17.584 -0.7490  0.5766  0.7969
 2700TIP3   OH232294   3.806   5.329  17.317 -0.0058 -0.0340  0.1975
 2700TIP3    H132295   3.826   5.408  17.268 -1.9195 -0.7279 -1.8604
 2700TIP3    H232296   3.884   5.274  17.308 -0.0431  0.1394 -1.5644
 2701TIP3   OH232297   0.775   1.542  17.876  0.0648  0.0345 -0.5573
 2701TIP3    H132298   0.816   1.535  17.962  0.4827  0.5434 -0.7089
 2701TIP3    H232299   0.796   1.459  17.832 -1.2507 -0.7859  0.2790
 2702TIP3   OH232300   5.813   1.013  17.374  0.0086  0.7449 -0.4039
 2702TIP3    H132301   5.782   0.922  17.376  0.1345  0.6195  3.4655
 2702TIP3    H232302   5.909   1.005  17.372  0.0383  0.7450  0.6942
 2703TIP3   OH232303   1.583   5.549  18.423 -0.1142  0.2778 -0.0007
 2703TIP3    H132304   1.500   5.575  18.383 -1.0398  0.0417  1.6822
 2703TIP3    H232305   1.647   5.608  18.385 -1.1375  0.8167 -0.9512
 2704TIP3   OH232306   3.991   1.582  17.698 -0.6172 -0.2937  0.5615
 2704TIP3    H132307   3.944   1.604  17.618 -0.5014  1.0687  0.8511
 2704TIP3    H232308   4.071   1.538  17.667 -0.2379  0.8384 -0.1150
 2705TIP3   OH232309   7.430   0.310  18.760 -0.0663  0.4489 -0.0568
 2705TIP3    H132310   7.336   0.301  18.773  0.0895 -0.9601  0.2435
 2705TIP3    H232311   7.457   0.377  18.822 -0.2369 -2.1969  3.1586
 2706TIP3   OH232312   2.375   5.756  18.179  0.6614 -0.2500  0.1770
 2706TIP3    H132313   2.368   5.663  18.156  1.6329 -0.5336  0.9436
 2706TIP3    H232314   2.401   5.799  18.097  1.6460 -0.8833  0.1376
 2707TIP3   OH232315   5.933   1.407  19.082 -0.1961 -0.0985 -0.3633
 2707TIP3    H132316   6.015   1.435  19.122  0.1411 -0.6153 -0.6770
 2707TIP3    H232317   5.891   1.489  19.055  0.9580  0.1195 -1.6266
 2708TIP3   OH232318   3.616   1.351  18.981  0.1758 -0.1903  0.0141
 2708TIP3    H132319   3.680   1.421  18.985  0.2965 -0.2871 -0.2048
 2708TIP3    H232320   3.666   1.274  18.954 -0.2408  0.0147 -1.4354
 2709TIP3   OH232321   6.408   3.323  19.577 -0.0608  0.0568  0.2568
 2709TIP3    H132322   6.366   3.314  19.663  0.3699  0.0782  0.4714
 2709TIP3    H232323   6.384   3.243  19.530  0.5846 -0.4612  0.7864
 2710TIP3   OH232324   0.428   2.333  18.347 -0.3085  0.0766 -0.2394
 2710TIP3    H132325   0.430   2.342  18.442 -1.2515 -1.2998 -0.0556
 2710TIP3    H232326   0.343   2.369  18.321  0.5507  1.8427 -0.7707
 2711TIP3   OH232327   3.564   1.687  16.918 -0.4806 -0.2306  0.2875
 2711TIP3    H132328   3.590   1.776  16.897  0.5135 -0.2352  1.3674
 2711TIP3    H232329   3.599   1.634  16.846 -0.9369  0.2232 -0.2738
 2712TIP3   OH232330   0.193   5.394  17.819  0.2373 -0.1976  0.3631
 2712TIP3    H132331   0.155   5.378  17.732  0.1598 -3.6554  0.8932
 2712TIP3    H232332   0.286   5.407  17.801 -0.1704  2.0270 -0.4152
 2713TIP3   OH232333   0.496   0.337  18.968  0.4450 -0.2665  0.1537
 2713TIP3    H132334   0.579   0.362  18.928  0.0221  0.9071 -0.0234
 2713TIP3    H232335   0.433   0.402  18.936 -0.9013 -2.0446 -1.0063
 2714TIP3   OH232336   6.767   1.057  18.545  0.0314 -0.1383 -0.1863
 2714TIP3    H132337   6.832   1.017  18.603  0.1593  2.0298  1.2457
 2714TIP3    H232338   6.683   1.029  18.580  0.1132  0.9756  0.9863
 2715TIP3   OH232339   2.063   1.425  19.241 -0.1570  0.3055 -0.0446
 2715TIP3    H132340   2.027   1.458  19.324 -1.3492 -1.6264  0.2715
 2715TIP3    H232341   2.157   1.443  19.247 -0.5168  2.1457  0.7506
 2716TIP3   OH232342   3.083   2.072  18.568 -0.2052  0.0386 -0.0906
 2716TIP3    H132343   3.082   2.117  18.653 -0.3634  0.9529 -0.5674
 2716TIP3    H232344   3.019   2.119  18.515 -1.9559 -2.0414  0.0186
 2717TIP3   OH232345   3.440   3.215  16.824 -0.1402  0.0011 -0.7375
 2717TIP3    H132346   3.497   3.291  16.834  2.2715 -1.8850  0.9690
 2717TIP3    H232347   3.356   3.242  16.861  1.5948  0.9088  2.9513
 2718TIP3   OH232348   3.407   3.842  17.848 -0.1046  0.0893 -0.2318
 2718TIP3    H132349   3.487   3.804  17.883  0.4659  0.8539 -0.6941
 2718TIP3    H232350   3.337   3.784  17.880  0.7476 -1.4658 -1.0840
 2719TIP3   OH232351   1.714   1.775  18.968 -0.5066  0.8451 -0.2145
 2719TIP3    H132352   1.648   1.819  19.022 -0.0421  1.9843 -0.5505
 2719TIP3    H232353   1.702   1.811  18.880 -0.7691 -0.4506 -0.7346
 2720TIP3   OH232354   0.279   3.096  17.298 -0.7589  0.1476 -0.0739
 2720TIP3    H132355   0.311   3.125  17.383 -0.8153 -0.9261  0.3348
 2720TIP3    H232356   0.233   3.172  17.262  0.6553  1.1397  0.1230
 2721TIP3   OH232357   3.037   1.396  18.198  0.4144 -0.0600 -0.1826
 2721TIP3    H132358   2.966   1.460  18.189 -0.1494 -0.5363  0.7843
 2721TIP3    H232359   3.110   1.446  18.234  0.2553  0.2201 -0.2473
 2722TIP3   OH232360   6.999   1.296  17.038 -0.7990  0.7752  0.7687
 2722TIP3    H132361   6.969   1.343  17.116 -2.4005  0.0780  0.6161
 2722TIP3    H232362   6.927   1.236  17.017  1.2077 -1.9432  1.0791
 2723TIP3   OH232363   2.481   7.141  17.564  0.5392  0.2396 -0.4977
 2723TIP3    H132364   2.533   7.168  17.640 -0.1419 -0.8493  0.3939
 2723TIP3    H232365   2.441   7.222  17.532  0.0409  0.5882  0.9353
 2724TIP3   OH232366   0.260   1.288  17.665  0.3263 -0.4940 -0.2740
 2724TIP3    H132367   0.296   1.300  17.577  0.8686  1.5895  0.1714
 2724TIP3    H232368   0.264   1.194  17.680  1.8329 -0.7334 -1.8277
 2725TIP3   OH232369   7.277   3.774  17.068 -0.4944 -0.7353 -0.1644
 2725TIP3    H132370   7.353   3.761  17.011 -0.7950  0.3991 -0.8395
 2725TIP3    H232371   7.249   3.685  17.090 -0.4621 -1.2235 -1.9174
 2726TIP3   OH232372   0.508   1.475  17.835 -0.1067 -0.2693 -0.1554
 2726TIP3    H132373   0.494   1.514  17.749 -1.7719  0.7908  0.5288
 2726TIP3    H232374   0.600   1.491  17.854  0.1767 -0.1216 -1.5524
 2727TIP3   OH232375   3.881   5.688  17.693  0.1181 -0.3875  0.5029
 2727TIP3    H132376   3.801   5.644  17.720 -0.6077  0.0334 -0.9044
 2727TIP3    H232377   3.860   5.728  17.609  2.5365 -2.3753 -1.1995
 2728TIP3   OH232378   0.384   7.564  16.727  0.2066 -0.1433 -0.2413
 2728TIP3    H132379   0.304   7.617  16.723 -0.0801 -0.5400  0.0443
 2728TIP3    H232380   0.413   7.558  16.636  1.1412  1.8091 -0.0979
 2729TIP3   OH232381   3.855   2.681  19.147 -0.0899 -0.4852  0.0617
 2729TIP3    H132382   3.842   2.663  19.240 -0.7481  0.1911  0.1104
 2729TIP3    H232383   3.950   2.677  19.135 -0.0045 -0.5900  0.7577
 2730TIP3   OH232384   4.723   4.409  16.810  0.1170  0.1034 -0.4311
 2730TIP3    H132385   4.756   4.362  16.733  1.6703  0.0326  0.2321
 2730TIP3    H232386   4.785   4.481  16.823 -0.5645  0.5814  0.3015
 2731TIP3   OH232387   1.041   4.575  17.852  0.1659  0.0832 -0.0173
 2731TIP3    H132388   1.092   4.587  17.932  0.0576 -1.1423  0.2569
 2731TIP3    H232389   1.106   4.582  17.782  0.4554  0.0458  0.2427
 2732TIP3   OH232390   0.882   1.100  19.349 -0.0131  0.1268  0.6783
 2732TIP3    H132391   0.811   1.037  19.342 -0.8051  0.9730  0.9182
 2732TIP3    H232392   0.847   1.169  19.404  0.1059  1.7526 -1.1683
 2733TIP3   OH232393   4.939   3.575  18.294 -0.0756 -0.0864 -0.4180
 2733TIP3    H132394   4.961   3.667  18.282 -0.1628 -0.1352 -0.9397
 2733TIP3    H232395   4.963   3.557  18.385 -1.2555  0.7877  0.0914
 2734TIP3   OH232396   0.128   1.936  18.264 -0.4256  0.5818  0.0924
 2734TIP3    H132397   0.074   1.996  18.213  0.6017  1.0569 -0.4661
 2734TIP3    H232398   0.199   1.990  18.299 -0.3341 -0.0125  0.8714
 2735TIP3   OH232399   4.746   6.954  17.309  0.1006  0.1931 -0.5005
 2735TIP3    H132400   4.815   6.897  17.275 -0.3208  0.6365 -2.1830
 2735TIP3    H232401   4.665   6.918  17.274 -0.6074 -0.4731  1.6702
 2736TIP3   OH232402   3.983   3.078  17.831  0.2832  0.0147  0.4650
 2736TIP3    H132403   3.899   3.071  17.877 -1.1234  0.0341 -1.9158
 2736TIP3    H232404   4.035   3.137  17.885 -0.5890 -1.2667  2.8670
 2737TIP3   OH232405   3.233   2.870  19.048  0.5746  0.0856  0.2619
 2737TIP3    H132406   3.254   2.777  19.037  0.1390  0.1363 -1.2822
 2737TIP3    H232407   3.157   2.870  19.106 -0.6458 -0.7003 -1.2372
 2738TIP3   OH232408   6.464   6.661  18.211  0.1897 -0.9215 -0.3936
 2738TIP3    H132409   6.413   6.687  18.135 -2.6937  1.0528  2.0192
 2738TIP3    H232410   6.437   6.570  18.228  0.8651 -1.3851 -1.6268
 2739TIP3   OH232411   5.160   0.520  19.577 -0.0571 -0.4839  0.5197
 2739TIP3    H132412   5.113   0.437  19.585  1.2085 -1.3789 -0.7819
 2739TIP3    H232413   5.242   0.497  19.533 -0.6914  1.7771 -2.1020
 2740TIP3   OH232414   4.668   1.430  19.555  0.0603  0.3270  0.6555
 2740TIP3    H132415   4.712   1.350  19.527 -0.2687 -0.1497  1.4839
 2740TIP3    H232416   4.606   1.449  19.485  0.0595 -0.2007  0.5104
 2741TIP3   OH232417   3.898   4.774  18.748 -0.1976  0.0436  0.4269
 2741TIP3    H132418   3.895   4.837  18.676  2.3440  0.2410  0.4187
 2741TIP3    H232419   3.924   4.826  18.824  3.0434 -1.0355  0.2002
 2742TIP3   OH232420   7.357   3.257  19.131 -0.3485 -0.0917  0.4734
 2742TIP3    H132421   7.296   3.183  19.120 -0.3077 -0.1410  0.5771
 2742TIP3    H232422   7.444   3.218  19.123 -0.1837 -0.6391  3.5950
 2743TIP3   OH232423   2.248   4.618  18.264  0.0052  0.2272  0.1116
 2743TIP3    H132424   2.180   4.609  18.331  0.7529  0.5889  0.9387
 2743TIP3    H232425   2.230   4.703  18.223 -0.7719 -0.2304 -0.5291
 2744TIP3   OH232426   5.338   1.519  19.751  0.2336 -0.0584  0.6181
 2744TIP3    H132427   5.353   1.546  19.660 -1.7562 -0.7754  0.0241
 2744TIP3    H232428   5.299   1.432  19.744  0.0216 -0.1200  2.1686
 2745TIP3   OH232429   6.436   0.373  17.307 -0.5206 -0.3254  0.2724
 2745TIP3    H132430   6.477   0.380  17.393  0.8412  1.1275 -0.4494
 2745TIP3    H232431   6.369   0.441  17.306 -2.1040 -1.7943  0.9414
 2746TIP3   OH232432   6.281   5.759  17.311 -0.7167 -0.0609  0.5208
 2746TIP3    H132433   6.202   5.707  17.322  0.7461 -2.4322  0.3563
 2746TIP3    H232434   6.352   5.696  17.308  1.1672  1.9426  0.0441
 2747TIP3   OH232435   0.900   3.300  18.829 -0.1360  0.5717 -0.0524
 2747TIP3    H132436   0.993   3.303  18.850 -0.3217 -0.4946  1.0610
 2747TIP3    H232437   0.860   3.368  18.883 -0.3070 -0.6637  1.4603
 2748TIP3   OH232438   2.548   3.144  17.412 -0.1488 -0.2181  0.0809
 2748TIP3    H132439   2.466   3.189  17.390 -0.1803  0.5496  1.6659
 2748TIP3    H232440   2.572   3.099  17.331 -2.7777 -1.5277 -0.0787
 2749TIP3   OH232441   2.201   0.704  17.436 -0.3899  0.0428 -0.3495
 2749TIP3    H132442   2.191   0.665  17.523 -0.1305 -1.1747 -0.8490
 2749TIP3    H232443   2.114   0.698  17.397 -0.7922  1.6331  0.2175
 2750TIP3   OH232444   6.509   0.521  19.292 -0.0480  0.1198  0.7462
 2750TIP3    H132445   6.604   0.532  19.293  0.1072 -1.0831  1.6788
 2750TIP3    H232446   6.474   0.609  19.309  0.7758  1.1729 -2.3747
 2751TIP3   OH232447   3.890   0.853  18.925 -0.1950 -0.1616  0.7309
 2751TIP3    H132448   3.838   0.871  18.846 -0.1373  0.4641  0.8294
 2751TIP3    H232449   3.827   0.862  18.997  0.0660  0.6985  0.8593
 2752TIP3   OH232450   5.653   5.801  17.987  0.1808  0.2964  0.2540
 2752TIP3    H132451   5.673   5.726  18.044  1.2046  0.0326 -0.4291
 2752TIP3    H232452   5.566   5.830  18.016  0.2274 -0.4812  1.2448
 2753TIP3   OH232453   0.956   2.218  17.275 -0.7292  0.7074 -0.0790
 2753TIP3    H132454   0.930   2.288  17.216 -0.1554 -0.1175 -1.3668
 2753TIP3    H232455   1.022   2.169  17.225 -1.7746 -1.2779  0.4029
 2754TIP3   OH232456   4.975   3.975  17.283 -0.0526  0.6017  0.2186
 2754TIP3    H132457   5.062   3.979  17.243 -1.0621 -1.4480 -2.4135
 2754TIP3    H232458   4.915   3.988  17.210 -2.0117 -2.7113  1.0645
 2755TIP3   OH232459   3.941   4.303  18.574 -0.4436  0.1870  0.2934
 2755TIP3    H132460   3.953   4.366  18.645 -1.0049 -1.9765  2.4482
 2755TIP3    H232461   3.856   4.262  18.592 -0.6830 -0.3408 -1.7431
 2756TIP3   OH232462   2.312   6.465  17.774 -0.1306 -0.3900  0.0522
 2756TIP3    H132463   2.349   6.549  17.747 -0.8058  0.1160  0.6261
 2756TIP3    H232464   2.274   6.484  17.860  0.2133 -1.4358  0.4421
 2757TIP3   OH232465   7.391   5.355  18.510 -0.3135  0.2371  0.0162
 2757TIP3    H132466   7.432   5.269  18.499  0.2569  0.4647  0.3507
 2757TIP3    H232467   7.459   5.409  18.550  0.6451  1.8874 -3.4903
 2758TIP3   OH232468   6.863   1.365  18.871 -0.2080 -0.1551 -0.1850
 2758TIP3    H132469   6.857   1.456  18.901 -2.1647 -0.0618 -0.6925
 2758TIP3    H232470   6.856   1.312  18.950 -0.3866  0.1335 -0.0064
 2759TIP3   OH232471   7.406   5.689  17.942 -0.4764  0.3294 -0.3654
 2759TIP3    H132472   7.490   5.651  17.967 -0.3989  0.3823 -0.5382
 2759TIP3    H232473   7.427   5.746  17.868 -0.4382  1.3965  0.4431
 2760TIP3   OH232474   7.392   0.218  17.541  0.3747  0.2982  0.3616
 2760TIP3    H132475   7.355   0.233  17.454 -0.2483 -1.2214  0.3335
 2760TIP3    H232476   7.360   0.292  17.594 -0.2109  0.6067 -0.4099
 2761TIP3   OH232477   5.167   1.459  17.291  0.5251 -0.5080 -0.1785
 2761TIP3    H132478   5.104   1.414  17.348 -1.2697 -0.9999 -2.3902
 2761TIP3    H232479   5.198   1.391  17.231  2.2965  0.0016  0.1143
 2762TIP3   OH232480   0.874   6.244  18.404  0.2949  0.3320 -0.1299
 2762TIP3    H132481   0.890   6.264  18.311 -0.0552 -0.3986 -0.3527
 2762TIP3    H232482   0.790   6.198  18.404  0.0852  0.7087  0.6024
 2763TIP3   OH232483   5.311   0.917  17.948  0.3158  0.1571 -0.1675
 2763TIP3    H132484   5.264   0.993  17.982  0.3103  0.8313 -1.6212
 2763TIP3    H232485   5.351   0.947  17.866 -1.0181 -1.7986 -1.6513
 2764TIP3   OH232486   1.760   2.988  18.282  0.4450 -0.6827 -0.4687
 2764TIP3    H132487   1.683   2.932  18.275  0.5138 -0.8731  0.2034
 2764TIP3    H232488   1.744   3.060  18.221 -0.3725 -0.5973 -0.1597
 2765TIP3   OH232489   4.359   0.091  16.719  0.1122  0.6701  0.0055
 2765TIP3    H132490   4.306   0.062  16.645  0.4697 -1.6169  0.5857
 2765TIP3    H232491   4.298   0.096  16.793  0.2224  0.5620  0.1037
 2766TIP3   OH232492   4.726   3.486  19.100  0.2487 -0.2402 -0.0710
 2766TIP3    H132493   4.697   3.396  19.084  1.3387 -0.1350 -3.4262
 2766TIP3    H232494   4.659   3.540  19.057  0.0563  0.5499  1.1769
 2767TIP3   OH232495   1.200   0.988  19.222  0.1031 -0.4745  0.0750
 2767TIP3    H132496   1.134   0.947  19.167 -0.8924  0.1594  0.7683
 2767TIP3    H232497   1.183   0.954  19.310  1.1943 -0.9006  0.1371
 2768TIP3   OH232498   1.576   2.210  19.037  0.0971 -0.2050  0.1369
 2768TIP3    H132499   1.671   2.207  19.053  0.1055  1.0842  0.4530
 2768TIP3    H232500   1.565   2.165  18.953  0.7376 -2.0590  1.0058
 2769TIP3   OH232501   6.932   5.111  19.067 -0.0909  0.0929 -0.0456
 2769TIP3    H132502   6.971   5.156  18.991  0.5670  1.8815  1.2596
 2769TIP3    H232503   7.007   5.084  19.119 -0.5259  1.1597  1.1847
 2770TIP3   OH232504   5.289   7.652  18.030 -0.6169  0.0158  0.2134
 2770TIP3    H132505   5.233   7.730  18.023 -0.7928 -0.1596 -0.3899
 2770TIP3    H232506   5.233   7.580  18.001 -0.0172 -0.1351 -0.5682
 2771TIP3   OH232507   4.684   6.526  18.266  0.9303  0.0012 -0.0642
 2771TIP3    H132508   4.756   6.521  18.328  1.2893  0.3783 -0.4487
 2771TIP3    H232509   4.657   6.617  18.266 -0.5622 -0.3940  1.2001
 2772TIP3   OH232510   5.785   7.289  17.642  0.0093 -0.3715  0.2277
 2772TIP3    H132511   5.696   7.289  17.677 -0.7735  1.9415 -1.4793
 2772TIP3    H232512   5.775   7.256  17.553  1.3131 -2.4569  0.8073
 2773TIP3   OH232513   3.782   5.944  17.049  0.0471  0.1386  0.1415
 2773TIP3    H132514   3.813   6.007  16.984  1.3674  1.1520  1.6620
 2773TIP3    H232515   3.692   5.925  17.024  0.3227  0.9507 -1.6051
 2774TIP3   OH232516   4.370   7.122  18.166 -0.1205 -0.2686 -0.4096
 2774TIP3    H132517   4.312   7.181  18.213  1.8326  1.4909 -0.0465
 2774TIP3    H232518   4.393   7.168  18.086  1.4008 -0.5052 -0.1519
 2775TIP3   OH232519   2.593   7.350  19.071 -0.4235  0.2925 -0.0639
 2775TIP3    H132520   2.604   7.287  19.142 -1.2045  1.0271  0.7428
 2775TIP3    H232521   2.669   7.408  19.077 -0.4710  0.3322  0.1586
 2776TIP3   OH232522   0.089   4.988  18.120  0.7019  0.1582 -0.1510
 2776TIP3    H132523  -0.006   4.990  18.122  0.7020  0.4529  1.8701
 2776TIP3    H232524   0.115   5.077  18.095  0.4754 -0.1846 -1.6929
 2777TIP3   OH232525   3.361   2.622  18.901 -0.3135  0.0068  0.5317
 2777TIP3    H132526   3.366   2.557  18.971  0.2265 -0.4946  0.0319
 2777TIP3    H232527   3.435   2.602  18.844 -1.1239  0.0159 -0.5332
 2778TIP3   OH232528   0.564   3.763  19.747 -0.1836  0.1339 -0.4100
 2778TIP3    H132529   0.568   3.677  19.788 -3.1332  0.0188 -0.1996
 2778TIP3    H232530   0.548   3.746  19.655 -2.4517  0.4009 -0.1066
 2779TIP3   OH232531   4.173   4.937  17.865 -0.0560  0.1362 -0.4475
 2779TIP3    H132532   4.203   4.886  17.941 -0.2786 -0.0832 -0.5051
 2779TIP3    H232533   4.231   5.013  17.863  0.1417 -0.0070 -0.2320
 2780TIP3   OH232534   2.159   5.769  18.753 -0.5893  0.2231  0.0638
 2780TIP3    H132535   2.078   5.720  18.771 -1.0801  1.1662  0.4977
 2780TIP3    H232536   2.135   5.831  18.684 -0.1267  0.2450 -0.0823
 2781TIP3   OH232537   0.699   4.669  19.658 -0.2573 -0.5883  0.0288
 2781TIP3    H132538   0.784   4.624  19.657 -0.0476 -0.1864 -0.1754
 2781TIP3    H232539   0.635   4.598  19.653  0.0641 -0.8996  0.2926
 2782TIP3   OH232540   2.848   0.879  17.341  0.1136 -0.8163  0.2448
 2782TIP3    H132541   2.769   0.891  17.288 -0.2221 -1.2938  0.6320
 2782TIP3    H232542   2.920   0.902  17.282 -0.3859  1.6816  0.4783
 2783TIP3   OH232543   0.043   0.964  18.128  0.0476 -0.2815  1.0150
 2783TIP3    H132544   0.086   1.050  18.131  0.4021 -0.4255  0.3258
 2783TIP3    H232545   0.054   0.929  18.216 -0.6703  0.6485  1.4927
 2784TIP3   OH232546   3.109   0.394  16.973  0.7052 -0.3544 -0.0014
 2784TIP3    H132547   3.021   0.417  17.001  0.6670 -0.5344  0.0317
 2784TIP3    H232548   3.138   0.327  17.036  1.2105  0.3463  0.5228
 2785TIP3   OH232549   5.412   5.592  18.501  0.2814  0.2871  0.8130
 2785TIP3    H132550   5.398   5.672  18.552  0.3691  0.2352  0.9199
 2785TIP3    H232551   5.492   5.555  18.538 -0.0657 -0.1430  1.1437
 2786TIP3   OH232552   7.400   2.497  17.803 -0.2386 -0.2542  0.2141
 2786TIP3    H132553   7.434   2.407  17.801  1.2889  0.2960 -0.4948
 2786TIP3    H232554   7.339   2.499  17.877 -0.0757 -1.7908  0.4150
 2787TIP3   OH232555   7.480   0.600  17.446 -0.6667  0.4693 -0.2255
 2787TIP3    H132556   7.396   0.637  17.420 -2.1825 -0.9883  2.1892
 2787TIP3    H232557   7.479   0.511  17.410 -0.5989  0.1429  0.5485
 2788TIP3   OH232558   7.562   3.949  19.667  0.1528  0.3403  1.0681
 2788TIP3    H132559   7.570   4.019  19.601  1.8994 -0.3323  0.5228
 2788TIP3    H232560   7.490   3.979  19.724 -2.8105  0.0521 -2.1693
 2789TIP3   OH232561   4.491   3.059  18.615  0.1891 -0.0953 -0.2210
 2789TIP3    H132562   4.498   3.002  18.539  1.7069  0.3896 -0.4803
 2789TIP3    H232563   4.464   3.144  18.580  1.3545  0.2583 -0.3147
 2790TIP3   OH232564   6.692   0.582  16.865 -0.1457  0.4270  0.3702
 2790TIP3    H132565   6.738   0.499  16.853 -0.0739  0.3571  1.0826
 2790TIP3    H232566   6.600   0.559  16.865 -0.1523  0.4525 -0.2118
 2791TIP3   OH232567   0.365   7.593  17.533 -0.1483 -0.2958 -0.3830
 2791TIP3    H132568   0.275   7.612  17.559  0.3027 -0.4476  1.4370
 2791TIP3    H232569   0.410   7.677  17.537  0.4364 -0.6480  1.6661
 2792TIP3   OH232570   6.740   3.083  17.640  0.1156 -0.1705  0.3366
 2792TIP3    H132571   6.714   3.051  17.726 -0.1228  0.9196  0.6959
 2792TIP3    H232572   6.817   3.031  17.616 -0.3494 -1.0778  0.8090
 2793TIP3   OH232573   1.035   4.816  16.613  0.7320 -0.9896 -0.6680
 2793TIP3    H132574   1.023   4.793  16.521 -0.6481 -3.6474  0.0614
 2793TIP3    H232575   0.958   4.779  16.657  0.7901  1.1652  1.4421
 2794TIP3   OH232576   2.833   2.369  18.763 -0.5323 -0.3842  0.0591
 2794TIP3    H132577   2.813   2.293  18.709 -1.9080 -1.2539  1.6675
 2794TIP3    H232578   2.908   2.411  18.720 -1.0804 -1.4199 -2.0433
 2795TIP3   OH232579   6.143   3.938  19.692  0.0323  0.1888  0.3429
 2795TIP3    H132580   6.162   3.882  19.617 -0.1043  2.0546 -1.1712
 2795TIP3    H232581   6.158   4.027  19.660  0.5593  1.0365  2.7376
 2796TIP3   OH232582   3.423   3.591  18.552  0.1932  0.0716 -0.1976
 2796TIP3    H132583   3.466   3.676  18.545 -1.8762  1.3030  1.1396
 2796TIP3    H232584   3.459   3.553  18.633  0.1239  0.2751 -0.0712
 2797TIP3   OH232585   6.099   6.581  17.549  0.4914  0.2120  0.1087
 2797TIP3    H132586   6.049   6.549  17.625  1.3557 -1.2998  0.0752
 2797TIP3    H232587   6.124   6.501  17.502  2.8620  0.9242  0.0699
 2798TIP3   OH232588   3.635   7.461  18.318  0.0366  0.1886 -0.5745
 2798TIP3    H132589   3.659   7.547  18.281  0.9770 -0.2562 -1.0273
 2798TIP3    H232590   3.627   7.404  18.241 -0.1277 -0.2363 -0.2409
 2799TIP3   OH232591   5.032   5.924  18.446 -0.5877 -0.0239  0.1528
 2799TIP3    H132592   5.119   5.892  18.424  0.1605  3.2389 -2.4107
 2799TIP3    H232593   5.042   5.962  18.534  0.4783  0.0729 -0.0008
 2800TIP3   OH232594   5.453   0.822  18.152  0.2223  0.1197  0.1295
 2800TIP3    H132595   5.412   0.852  18.071  0.5054  1.7058  0.5370
 2800TIP3    H232596   5.406   0.742  18.175 -0.5138  0.1893 -1.0728
 2801TIP3   OH232597   6.813   5.553  19.086  0.1222  0.3600  0.1500
 2801TIP3    H132598   6.792   5.467  19.049 -0.6567  1.0837 -1.1724
 2801TIP3    H232599   6.813   5.539  19.180  1.7474 -1.4681 -0.0590
 2802TIP3   OH232600   5.789   6.699  19.004  0.2424  0.4097 -0.5307
 2802TIP3    H132601   5.837   6.651  19.071  1.0324 -1.4449 -2.2916
 2802TIP3    H232602   5.720   6.638  18.976 -1.5411  2.0216  0.1413
 2803TIP3   OH232603   0.511   2.813  18.802  0.0560  0.1820  0.1741
 2803TIP3    H132604   0.534   2.733  18.754  0.6781  0.3098  0.2604
 2803TIP3    H232605   0.582   2.826  18.864 -0.0202  0.8318  0.1332
 2804TIP3   OH232606   7.489   1.368  18.783  0.0355 -0.5391  0.0702
 2804TIP3    H132607   7.442   1.366  18.700 -0.1478  1.0679  0.1137
 2804TIP3    H232608   7.467   1.284  18.825 -0.8923 -0.8132 -0.9289
 2805TIP3   OH232609   2.940   2.636  17.799 -0.2785 -0.0280 -0.4254
 2805TIP3    H132610   2.967   2.548  17.773 -1.6021 -0.3055 -0.9010
 2805TIP3    H232611   2.994   2.694  17.745 -1.8180 -0.5817 -2.7047
 2806TIP3   OH232612   7.052   6.114  16.993  0.1421 -0.1775 -0.7267
 2806TIP3    H132613   7.130   6.112  16.939 -0.5659 -0.2695 -1.7766
 2806TIP3    H232614   7.004   6.191  16.963 -0.1747 -0.1176 -0.0909
 2807TIP3   OH232615   1.428   4.573  17.093 -0.4690 -0.6089 -0.3953
 2807TIP3    H132616   1.382   4.599  17.172  0.7486  1.5363 -0.3254
 2807TIP3    H232617   1.490   4.506  17.123 -0.9992 -0.8583  0.1708
 2808TIP3   OH232618   0.332   2.066  17.176 -0.3257  0.1524 -0.2862
 2808TIP3    H132619   0.295   2.066  17.087  1.0712  0.3886 -0.8904
 2808TIP3    H232620   0.297   1.987  17.216 -1.9740  0.6823 -0.6076
 2809TIP3   OH232621   1.932   0.181  16.749  0.2275 -0.1786 -0.1033
 2809TIP3    H132622   2.019   0.160  16.713  0.3998 -1.2445  0.8779
 2809TIP3    H232623   1.935   0.275  16.764  1.7710 -0.4112  1.2851
 2810TIP3   OH232624   3.256   5.957  18.213 -0.0186 -0.0230 -0.8414
 2810TIP3    H132625   3.332   5.978  18.159  0.4083 -2.7319 -1.4506
 2810TIP3    H232626   3.187   5.934  18.150  0.2098 -2.3265 -0.3415
 2811TIP3   OH232627   1.749   1.601  19.176 -0.6329  0.4493 -0.2004
 2811TIP3    H132628   1.805   1.525  19.161  1.0051  1.5155  0.2146
 2811TIP3    H232629   1.730   1.633  19.088 -1.4055 -0.4724 -0.3810
 2812TIP3   OH232630   2.141   5.044  17.218 -0.0827  0.2695  0.0320
 2812TIP3    H132631   2.228   5.056  17.180  0.4882  1.8916  1.7405
 2812TIP3    H232632   2.087   5.110  17.175  0.0052  0.5340  0.3204
 2813TIP3   OH232633   6.815   5.120  16.880  0.0563 -0.3797 -1.2462
 2813TIP3    H132634   6.728   5.138  16.844 -0.0380  0.2033 -0.7531
 2813TIP3    H232635   6.806   5.139  16.974  1.4516  2.7209 -1.5991
 2814TIP3   OH232636   3.895   0.719  19.263 -0.5132 -0.7188 -0.2799
 2814TIP3    H132637   3.878   0.781  19.192  0.2733 -0.7164 -0.4664
 2814TIP3    H232638   3.907   0.774  19.340 -0.4651 -0.6749 -0.3185
 2815TIP3   OH232639   5.151   6.085  18.225  0.1537  0.1028  0.1447
 2815TIP3    H132640   5.183   6.016  18.283  0.3090  2.0532  2.5507
 2815TIP3    H232641   5.076   6.123  18.271  0.0650  1.5353 -1.1003
 2816TIP3   OH232642   3.338   4.128  19.020 -0.2098 -0.0899 -0.0997
 2816TIP3    H132643   3.343   4.118  19.115 -1.3250  1.1785  0.1333
 2816TIP3    H232644   3.295   4.049  18.989  1.6321 -1.2786  0.2298
 2817TIP3   OH232645   6.678   5.154  17.126  0.4914 -0.2300 -0.0138
 2817TIP3    H132646   6.590   5.120  17.140  0.4816  0.1292  0.8991
 2817TIP3    H232647   6.674   5.244  17.160  1.7914 -0.9411  2.2101
 2818TIP3   OH232648   2.634   5.507  17.682  0.3837  0.0176 -0.1016
 2818TIP3    H132649   2.674   5.438  17.628  1.0188 -0.0588  0.4552
 2818TIP3    H232650   2.548   5.471  17.707 -0.4413  0.5343 -2.0154
 2819TIP3   OH232651   0.634   6.983  17.797 -0.6554 -0.0230 -0.7244
 2819TIP3    H132652   0.575   7.055  17.822 -2.7455 -1.5596 -0.9084
 2819TIP3    H232653   0.629   6.922  17.870  2.1002  0.5196  0.0030
 2820TIP3   OH232654   5.340   2.678  17.419  0.0487 -0.2901 -0.1684
 2820TIP3    H132655   5.272   2.684  17.352  0.0629  0.9302 -0.0952
 2820TIP3    H232656   5.326   2.755  17.474  3.0774  1.5109 -1.6691
 2821TIP3   OH232657   1.545   6.025  18.815  0.5000 -0.4581  0.0007
 2821TIP3    H132658   1.546   6.118  18.836 -0.1425 -0.1363 -1.2223
 2821TIP3    H232659   1.551   6.022  18.719  0.1848 -1.6572 -0.0059
 2822TIP3   OH232660   1.743   1.250  18.930 -0.1161  0.2487  0.4785
 2822TIP3    H132661   1.668   1.208  18.888  0.9631  0.4270 -1.7791
 2822TIP3    H232662   1.813   1.186  18.924  0.2465  0.5247  1.5189
 2823TIP3   OH232663   2.905   7.110  19.151  0.2999  0.4709 -0.4723
 2823TIP3    H132664   2.827   7.071  19.189  0.9300 -0.8460 -0.4816
 2823TIP3    H232665   2.954   7.145  19.225  1.4450 -1.9408 -0.0001
 2824TIP3   OH232666   2.770   7.188  17.365 -0.1551 -0.0626 -0.0560
 2824TIP3    H132667   2.748   7.122  17.298  0.0017  0.2656 -0.4374
 2824TIP3    H232668   2.787   7.137  17.444  0.9085 -0.5627 -0.5837
 2825TIP3   OH232669   1.700   1.973  19.536 -0.4527 -0.2655 -0.1708
 2825TIP3    H132670   1.630   1.965  19.472  0.8860  0.2291 -1.7842
 2825TIP3    H232671   1.763   1.905  19.511  0.3005  0.2264  0.3316
 2826TIP3   OH232672   6.297   3.677  19.155  0.0598  0.6826  0.3753
 2826TIP3    H132673   6.323   3.593  19.193  0.8968  1.8900  2.6557
 2826TIP3    H232674   6.378   3.727  19.150 -0.6055  1.7752  0.1928
 2827TIP3   OH232675   4.005   2.891  17.611  0.3626 -0.5541  0.2112
 2827TIP3    H132676   4.032   2.951  17.681  1.6788  0.0466 -0.7824
 2827TIP3    H232677   3.922   2.928  17.580  0.4154 -0.0958  0.5941
 2828TIP3   OH232678   6.235   0.911  18.945  0.2159 -0.3091 -0.0783
 2828TIP3    H132679   6.328   0.898  18.925 -0.1381 -1.3643 -1.1674
 2828TIP3    H232680   6.209   0.831  18.991  0.1471  0.5748  1.4956
 2829TIP3   OH232681   0.588   7.587  18.263 -0.0732  0.0773 -0.1007
 2829TIP3    H132682   0.560   7.594  18.354  1.7023  0.2672  0.4643
 2829TIP3    H232683   0.513   7.547  18.218 -1.0740  0.2059  1.3769
 2830TIP3   OH232684   2.997   2.123  19.067 -0.0090 -0.0795 -0.3628
 2830TIP3    H132685   3.040   2.200  19.104 -0.0188 -0.2495  0.0118
 2830TIP3    H232686   2.911   2.121  19.109 -0.6693  0.6512 -1.6182
 2831TIP3   OH232687   2.084   3.302  17.360 -0.3868  0.1057  0.1064
 2831TIP3    H132688   2.063   3.313  17.267 -1.4219 -1.0115  0.1915
 2831TIP3    H232689   2.018   3.354  17.406 -1.2441 -1.0841  0.2702
 2832TIP3   OH232690   6.853   5.918  17.026  0.2103 -0.2735  0.1488
 2832TIP3    H132691   6.896   6.001  17.009 -0.5266  0.2961  0.9921
 2832TIP3    H232692   6.924   5.853  17.025  0.8055  0.3686 -0.3740
 2833TIP3   OH232693   6.252   1.462  16.784 -0.2456  0.4503  0.0844
 2833TIP3    H132694   6.214   1.376  16.803 -1.9249  1.1883  0.2696
 2833TIP3    H232695   6.299   1.450  16.701 -0.1499 -0.7201  0.2929
 2834TIP3   OH232696   2.857   5.926  19.296 -0.8304  0.0073 -0.8472
 2834TIP3    H132697   2.771   5.963  19.320 -0.4846  0.0655  0.3454
 2834TIP3    H232698   2.894   5.991  19.236 -0.3853  1.5047  0.9425
 2835TIP3   OH232699   3.693   4.035  16.859 -0.3052 -0.5430 -0.6252
 2835TIP3    H132700   3.674   4.120  16.900  0.2185 -0.9246  0.4509
 2835TIP3    H232701   3.627   3.976  16.895 -2.0081 -0.1923 -2.9630
 2836TIP3   OH232702   3.878   3.877  18.066 -0.1211  0.5376 -0.3519
 2836TIP3    H132703   3.896   3.972  18.062  0.6075  0.3817 -1.1235
 2836TIP3    H232704   3.843   3.863  18.154  0.1592  1.4646 -0.0780
 2837TIP3   OH232705   2.188   4.371  19.384 -0.0707 -0.0988 -0.3532
 2837TIP3    H132706   2.149   4.303  19.439 -0.4551  1.2512  1.1039
 2837TIP3    H232707   2.217   4.324  19.306  0.0150 -1.9924  0.7514
 2838TIP3   OH232708   4.420   3.111  18.868 -0.4875  0.3436 -0.8109
 2838TIP3    H132709   4.461   3.040  18.918 -1.2766  0.2968 -0.2202
 2838TIP3    H232710   4.431   3.084  18.776 -0.3297 -0.2903 -0.6143
 2839TIP3   OH232711   3.707   0.300  17.024 -0.0242  0.5165 -0.3098
 2839TIP3    H132712   3.677   0.380  16.982 -0.8876 -0.9354 -2.6263
 2839TIP3    H232713   3.802   0.299  17.010  0.0691  1.3569  0.2014
 2840TIP3   OH232714   0.436   1.378  18.948 -0.4656  0.4317 -0.0546
 2840TIP3    H132715   0.470   1.417  19.028  2.2809 -2.0387  0.1729
 2840TIP3    H232716   0.368   1.317  18.978 -0.6664  0.7841  0.2065
 2841TIP3   OH232717   6.478   4.850  18.331  0.5590 -0.6814 -0.6175
 2841TIP3    H132718   6.440   4.792  18.396  0.7902  1.3444  1.4485
 2841TIP3    H232719   6.559   4.807  18.304 -0.9145 -2.9206 -1.8013
 2842TIP3   OH232720   0.102   3.356  16.949  0.6304 -0.0270 -0.1961
 2842TIP3    H132721   0.125   3.339  17.041 -0.1680 -0.0489  0.0080
 2842TIP3    H232722   0.049   3.435  16.953  1.3171  0.4739 -0.7474
 2843TIP3   OH232723   6.715   3.794  17.141  0.0663  0.2885  0.1822
 2843TIP3    H132724   6.735   3.857  17.211  1.5991  2.6161 -2.1469
 2843TIP3    H232725   6.620   3.799  17.130  0.1111  1.9285  0.3400
 2844TIP3   OH232726   1.252   3.387  19.372  0.2774 -0.0261  0.3089
 2844TIP3    H132727   1.187   3.326  19.408 -1.5735  1.8550  0.3978
 2844TIP3    H232728   1.233   3.390  19.278  1.7925 -1.1621 -0.0627
 2845TIP3   OH232729   2.069   3.360  17.102  0.6450  0.7749  0.2988
 2845TIP3    H132730   2.116   3.290  17.057  0.1673  0.0544  0.8934
 2845TIP3    H232731   2.019   3.404  17.033 -1.6330 -1.5440  0.3051
 2846TIP3   OH232732   5.842   1.196  16.977  0.1157 -0.1003 -0.0909
 2846TIP3    H132733   5.870   1.108  17.002 -0.9775 -0.2606  0.6577
 2846TIP3    H232734   5.752   1.185  16.947  0.2123  0.6612 -0.7109
 2847TIP3   OH232735   0.367   7.361  18.629  0.0404 -0.2358  1.3769
 2847TIP3    H132736   0.426   7.352  18.704  0.8033  0.0909  0.8388
 2847TIP3    H232737   0.280   7.341  18.664  0.5635 -1.5025  2.0231
 2848TIP3   OH232738   6.362   6.736  18.644  0.6800  0.2002 -0.6291
 2848TIP3    H132739   6.329   6.737  18.734 -0.9760  0.7471 -1.2036
 2848TIP3    H232740   6.426   6.664  18.644 -2.5686 -3.0156 -0.0677
 2849TIP3   OH232741   5.872   0.066  16.917 -0.1683  0.1770 -0.2262
 2849TIP3    H132742   5.827   0.048  16.999 -0.4756 -0.6756 -0.5707
 2849TIP3    H232743   5.946   0.121  16.942 -1.0644  1.1128  0.4174
 2850TIP3   OH232744   5.702   5.209  17.204  0.1901  0.0354 -0.0221
 2850TIP3    H132745   5.621   5.253  17.177 -0.5642 -1.3566 -0.1338
 2850TIP3    H232746   5.715   5.141  17.137 -0.2541 -1.7566  1.6434
 2851TIP3   OH232747   5.819   6.089  18.520 -0.4420 -0.6332  0.0661
 2851TIP3    H132748   5.882   6.018  18.531 -1.3688 -1.4027  0.6492
 2851TIP3    H232749   5.785   6.104  18.609  1.3549  2.1359  0.4093
 2852TIP3   OH232750   0.133   4.084  19.269  0.3967  0.5881  0.4031
 2852TIP3    H132751   0.213   4.118  19.309  1.1311 -0.1776 -0.3745
 2852TIP3    H232752   0.144   3.989  19.271 -0.7268  0.4439  0.7304
 2853TIP3   OH232753   4.156   4.907  17.200  0.4014 -0.0909 -0.1964
 2853TIP3    H132754   4.170   4.892  17.106 -1.8820 -0.0787 -0.5875
 2853TIP3    H232755   4.240   4.939  17.231  1.0557  0.5007 -2.3788
 2854TIP3   OH232756   5.895   0.546  17.600 -0.4623 -0.1117  0.4595
 2854TIP3    H132757   5.937   0.601  17.534 -0.7925  1.2229  1.3350
 2854TIP3    H232758   5.863   0.607  17.666 -2.3800 -1.2093  0.6110
 2855TIP3   OH232759   7.032   1.122  18.925  0.4750 -0.2007 -0.4012
 2855TIP3    H132760   6.991   1.204  18.900  1.1338  0.6545  1.1994
 2855TIP3    H232761   7.126   1.138  18.917  0.6157 -0.7339  0.0622
 2856TIP3   OH232762   2.671   7.665  19.264 -0.1964  0.7868  0.1991
 2856TIP3    H132763   2.717   7.735  19.219 -0.8510  1.4447  0.5438
 2856TIP3    H232764   2.707   7.584  19.226  0.3476  1.3067 -0.4027
 2857TIP3   OH232765   5.305   4.172  16.835  0.2542 -0.9877 -0.0928
 2857TIP3    H132766   5.311   4.263  16.804  0.7265 -0.3979  1.6558
 2857TIP3    H232767   5.225   4.139  16.794  0.8495 -0.2784 -1.9431
 2858TIP3   OH232768   3.834   4.336  18.999  0.2402  0.1346  0.7198
 2858TIP3    H132769   3.749   4.341  18.955  0.5248  0.6544  0.2022
 2858TIP3    H232770   3.897   4.330  18.927  0.6174 -0.7472  1.1115
 2859TIP3   OH232771   4.603   6.018  18.651  0.2622 -0.3905  0.8658
 2859TIP3    H132772   4.511   6.035  18.630  0.2646 -2.3125 -1.1874
 2859TIP3    H232773   4.604   5.929  18.686  1.3628 -0.4978  0.6191
 2860TIP3   OH232774   0.904   6.493  19.202  0.3137 -0.2080  0.0610
 2860TIP3    H132775   0.923   6.422  19.263  2.7270 -0.1187 -0.5084
 2860TIP3    H232776   0.912   6.454  19.115  0.2993  0.4421 -0.2397
 2861TIP3   OH232777   4.009   1.780  18.651 -0.4334  0.2443 -0.2463
 2861TIP3    H132778   4.063   1.730  18.712 -3.1093 -2.1199  0.4418
 2861TIP3    H232779   4.012   1.729  18.569 -0.1763  1.0949 -0.7710
 2862TIP3   OH232780   2.124   4.098  18.478 -0.0968 -0.3363  0.2462
 2862TIP3    H132781   2.199   4.123  18.533  1.1287 -1.4799 -0.8400
 2862TIP3    H232782   2.122   4.003  18.482 -1.2698 -0.3347 -0.0644
 2863TIP3   OH232783   0.639   4.885  19.115  0.5484  0.0555 -0.2612
 2863TIP3    H132784   0.726   4.898  19.153  0.0426  1.7469  0.3897
 2863TIP3    H232785   0.596   4.823  19.174  0.2317  1.6425  1.2223
 2864TIP3   OH232786   0.970   1.870  18.713 -0.0910  0.1459 -0.0424
 2864TIP3    H132787   0.945   1.798  18.655 -0.7189  0.8076 -0.6048
 2864TIP3    H232788   0.938   1.949  18.670  0.9741  0.8234  0.3509
 2865TIP3   OH232789   7.593   1.707  18.695 -0.3505 -0.1554 -0.3413
 2865TIP3    H132790   7.589   1.793  18.736 -2.1704 -0.1563 -0.4119
 2865TIP3    H232791   7.543   1.718  18.614 -1.7495 -1.5648  0.2747
 2866TIP3   OH232792   1.017   4.686  16.942 -0.6764  0.1486 -0.2021
 2866TIP3    H132793   0.984   4.664  17.029  0.2106  0.5415  0.2409
 2866TIP3    H232794   0.938   4.703  16.890 -1.2032  0.1413  0.5786
 2867TIP3   OH232795   1.561   6.963  18.233 -0.0977 -0.1088 -0.7264
 2867TIP3    H132796   1.582   6.941  18.142 -0.5295 -0.2220 -0.7981
 2867TIP3    H232797   1.569   6.881  18.281  1.4166  0.1918 -0.4166
 2868TIP3   OH232798   3.843   4.815  17.175 -0.2141  0.3900 -0.3730
 2868TIP3    H132799   3.884   4.763  17.106  0.3522  0.7139 -0.2869
 2868TIP3    H232800   3.856   4.906  17.147  1.3584  0.5929  0.8847
 2869TIP3   OH232801   4.607   7.105  17.891 -0.1601 -0.3447  0.1418
 2869TIP3    H132802   4.672   7.072  17.829  0.8520  2.1689 -0.2512
 2869TIP3    H232803   4.660   7.142  17.962 -1.1738  0.8311  0.3108
 2870TIP3   OH232804   7.384   1.569  16.715 -0.0938  0.5990  0.5146
 2870TIP3    H132805   7.293   1.587  16.739 -0.2374  1.0687 -0.3603
 2870TIP3    H232806   7.421   1.655  16.694  0.0294  0.2277 -0.9110
 2871TIP3   OH232807   3.896   0.258  18.006  0.0225  0.7695 -0.5046
 2871TIP3    H132808   3.830   0.275  18.073  0.3160  0.4685 -0.1310
 2871TIP3    H232809   3.905   0.341  17.959 -0.8815  0.7083 -0.7963
 2872TIP3   OH232810   6.300   1.574  17.978  0.0422 -0.7270  0.8530
 2872TIP3    H132811   6.248   1.582  18.058 -0.9303 -1.1644  0.2800
 2872TIP3    H232812   6.324   1.481  17.974 -1.4880 -1.1083 -0.2984
 2873TIP3   OH232813   2.787   3.431  17.040 -0.0784 -0.0690  0.2405
 2873TIP3    H132814   2.813   3.507  17.093  1.2903 -0.5318  0.2731
 2873TIP3    H232815   2.827   3.447  16.955 -0.4012 -0.4106  0.0226
 2874TIP3   OH232816   0.158   4.810  18.327 -0.2959  0.2146  0.0215
 2874TIP3    H132817   0.134   4.901  18.345 -0.3113  0.0917  0.6603
 2874TIP3    H232818   0.075   4.768  18.304 -0.2778  0.3753 -0.3442
 2875TIP3   OH232819   2.474   0.625  18.770  0.2482 -0.1869  0.5630
 2875TIP3    H132820   2.530   0.699  18.794  0.4470  0.3015 -1.2937
 2875TIP3    H232821   2.531   0.567  18.720 -0.2907 -0.8697  0.7350
 2876TIP3   OH232822   3.771   0.972  17.530 -0.2034 -0.5645 -0.2818
 2876TIP3    H132823   3.706   0.905  17.550  0.4334 -0.8801  0.7251
 2876TIP3    H232824   3.721   1.054  17.533 -0.3998 -0.7215  1.3422
 2877TIP3   OH232825   0.214   4.456  17.283  0.0464  0.4353  0.0188
 2877TIP3    H132826   0.207   4.464  17.187 -1.8753  1.4017  0.1854
 2877TIP3    H232827   0.250   4.368  17.297  0.0889  0.1582 -1.5814
 2878TIP3   OH232828   5.176   6.405  17.621  0.2254  0.0283  0.5230
 2878TIP3    H132829   5.197   6.436  17.533  0.7014 -0.4795  0.4534
 2878TIP3    H232830   5.157   6.485  17.670 -0.8696  0.2587 -0.2495
 2879TIP3   OH232831   5.287   5.211  17.812 -0.4441 -0.2084 -0.2646
 2879TIP3    H132832   5.283   5.304  17.834  1.6179 -0.1865  0.2860
 2879TIP3    H232833   5.309   5.209  17.719  0.8974 -0.0595  0.0156
 2880TIP3   OH232834   5.025   3.703  17.968 -0.7809 -0.0545  0.2538
 2880TIP3    H132835   5.083   3.629  17.985 -1.5251 -0.4590  1.0983
 2880TIP3    H232836   5.069   3.752  17.898 -0.3782 -1.3854 -0.4544
 2881TIP3   OH232837   2.344   1.990  18.348 -0.3704 -0.0496  0.1951
 2881TIP3    H132838   2.362   1.973  18.441  1.0290  2.6295  0.5021
 2881TIP3    H232839   2.256   1.956  18.335 -1.3477  1.0720  3.0055
 2882TIP3   OH232840   5.461   4.458  19.085  0.3599  0.1135 -0.2197
 2882TIP3    H132841   5.414   4.403  19.148 -0.1291  0.2048 -0.5000
 2882TIP3    H232842   5.536   4.492  19.134 -0.6575  1.1492  0.6970
 2883TIP3   OH232843   0.842   5.748  19.054 -0.3429  0.4826 -0.1074
 2883TIP3    H132844   0.915   5.778  19.109  1.0233 -0.3089 -1.4175
 2883TIP3    H232845   0.819   5.663  19.091 -1.3550  1.2077  0.9747
 2884TIP3   OH232846   2.898   7.400  18.070 -0.4074  0.2371 -0.1293
 2884TIP3    H132847   2.833   7.351  18.121 -1.3542  2.5104  0.9807
 2884TIP3    H232848   2.980   7.352  18.083 -1.3014 -1.1280  0.7315
 2885TIP3   OH232849   1.331   0.431  19.275  0.0908  0.0863  0.0909
 2885TIP3    H132850   1.285   0.498  19.326  0.8990  0.7155  0.0022
 2885TIP3    H232851   1.264   0.365  19.257 -0.7057  0.8447  0.2115
 2886TIP3   OH232852   5.403   6.080  18.844 -0.1634 -0.2575 -0.6476
 2886TIP3    H132853   5.442   5.994  18.861 -0.8640 -1.4525 -4.1873
 2886TIP3    H232854   5.309   6.061  18.833 -0.7331  1.4204  0.8446
 2887TIP3   OH232855   3.721   5.328  18.735  0.0634  0.2224 -0.2269
 2887TIP3    H132856   3.671   5.402  18.700 -0.2875  1.0124  1.7886
 2887TIP3    H232857   3.766   5.365  18.811 -0.1966 -1.6520  0.8904
 2888TIP3   OH232858   5.618   2.909  18.756 -0.1852  0.4586  0.1889
 2888TIP3    H132859   5.613   2.822  18.716  1.8339  0.1250  0.5480
 2888TIP3    H232860   5.656   2.964  18.687 -0.1665  0.7310  0.4174
 2889TIP3   OH232861   0.327   7.393  17.085  0.1663 -0.0488 -0.7281
 2889TIP3    H132862   0.395   7.456  17.111  0.7644 -0.8620 -0.2595
 2889TIP3    H232863   0.372   7.308  17.086 -1.8562 -1.3823  4.2259
 2890TIP3   OH232864   5.782   6.976  19.117  0.8664 -0.0320 -0.1482
 2890TIP3    H132865   5.777   6.881  19.111  1.7143 -0.0402 -0.8423
 2890TIP3    H232866   5.746   7.007  19.034 -0.8260  0.3227  0.6688
 2891TIP3   OH232867   6.437   7.634  17.698 -0.2754  0.3262 -0.0016
 2891TIP3    H132868   6.462   7.722  17.726 -1.4980  0.8009 -0.3381
 2891TIP3    H232869   6.355   7.646  17.649 -0.4659 -0.9983 -0.0594
 2892TIP3   OH232870   5.658   5.923  18.722  0.5982 -0.0606  0.2191
 2892TIP3    H132871   5.571   5.919  18.683  0.6043 -0.5155  0.2400
 2892TIP3    H232872   5.668   6.014  18.749  0.6297  0.2852 -0.9008
 2893TIP3   OH232873   1.239   0.009  18.695 -0.2142 -0.6869  0.0587
 2893TIP3    H132874   1.144   0.014  18.702 -0.1828  0.1183 -0.0444
 2893TIP3    H232875   1.263  -0.066  18.749 -0.9356 -1.0885 -0.1639
 2894TIP3   OH232876   6.708   7.246  18.552  0.2777  0.3474  0.0618
 2894TIP3    H132877   6.643   7.186  18.587 -0.4302  1.0701  0.0013
 2894TIP3    H232878   6.763   7.191  18.495 -1.4510  0.0940 -1.4319
 2895TIP3   OH232879   7.350   0.817  19.692 -0.4821  0.3483 -0.1661
 2895TIP3    H132880   7.302   0.814  19.609 -0.0275  1.3169 -0.4759
 2895TIP3    H232881   7.282   0.831  19.758 -0.7171  0.9343 -0.5222
 2896TIP3   OH232882   2.254   0.585  18.568  0.0837  0.3712 -0.1157
 2896TIP3    H132883   2.302   0.571  18.486  0.7340  0.5441  0.2287
 2896TIP3    H232884   2.322   0.589  18.635 -0.4586  0.0425  0.4630
 2897TIP3   OH232885   3.149   3.644  18.469 -0.2204  0.1697 -0.0942
 2897TIP3    H132886   3.149   3.627  18.375 -1.0701  1.8020 -0.4335
 2897TIP3    H232887   3.234   3.611  18.500 -0.0097 -0.5565 -1.3909
 2898TIP3   OH232888   3.049   6.294  19.220 -0.2641 -0.4367 -0.8840
 2898TIP3    H132889   3.016   6.225  19.162 -1.0368  0.6350 -1.7857
 2898TIP3    H232890   2.979   6.308  19.284 -0.3612 -0.1150 -1.0542
 2899TIP3   OH232891   7.451   1.328  19.097 -0.0817 -0.1199 -0.8625
 2899TIP3    H132892   7.529   1.286  19.060 -0.4478 -2.0981  0.4035
 2899TIP3    H232893   7.435   1.279  19.178 -0.2931  2.8641  1.0653
 2900TIP3   OH232894   1.625   2.570  18.473  0.3590  0.8041 -0.3972
 2900TIP3    H132895   1.671   2.487  18.471 -0.3295  0.4209 -1.0346
 2900TIP3    H232896   1.577   2.569  18.556 -1.0898 -0.2701 -1.1927
 2901TIP3   OH232897   6.576   6.332  18.352 -0.0303  0.1975 -0.3158
 2901TIP3    H132898   6.498   6.368  18.395  0.0560 -0.0410  0.0424
 2901TIP3    H232899   6.644   6.335  18.419  0.0979 -0.2071 -0.4225
 2902TIP3   OH232900   4.102   1.312  18.353  0.0970 -0.1897 -0.0027
 2902TIP3    H132901   4.040   1.252  18.393 -1.0609  1.1567  0.3222
 2902TIP3    H232902   4.155   1.345  18.426 -0.3758  0.4113  0.0795
 2903TIP3   OH232903   3.518   6.620  17.550 -0.4276  0.2719 -1.1014
 2903TIP3    H132904   3.488   6.537  17.513 -0.0978 -0.7400  0.7530
 2903TIP3    H232905   3.612   6.606  17.566 -0.4344  0.8892 -0.4776
 2904TIP3   OH232906   0.608   1.195  17.877  0.1657 -0.1216 -0.2822
 2904TIP3    H132907   0.642   1.238  17.955  0.7271 -1.1238  0.0430
 2904TIP3    H232908   0.523   1.237  17.861  0.4017  0.6267  0.4046
 2905TIP3   OH232909   5.394   1.970  17.969 -0.1869 -0.0360 -0.2044
 2905TIP3    H132910   5.443   2.003  17.894  2.8350 -1.4227  0.9954
 2905TIP3    H232911   5.392   1.875  17.957  0.3040 -0.2811  1.4071
 2906TIP3   OH232912   2.958   3.291  18.984 -0.0839  0.2556  0.3685
 2906TIP3    H132913   2.864   3.296  18.999  0.0365 -1.4895  2.0677
 2906TIP3    H232914   2.996   3.277  19.071  1.7074  0.3660 -0.3425
 2907TIP3   OH232915   5.431   0.938  18.413  0.6893  0.2015  0.0245
 2907TIP3    H132916   5.457   0.879  18.342 -0.2011  1.4033 -1.3863
 2907TIP3    H232917   5.363   0.890  18.460  0.7007 -0.3176 -0.4711
 2908TIP3   OH232918   1.827   1.544  18.748  0.1498  0.2701  0.0919
 2908TIP3    H132919   1.835   1.516  18.839  0.8545 -0.1380 -0.0822
 2908TIP3    H232920   1.737   1.521  18.723  0.1051 -0.0529  0.5418
 2909TIP3   OH232921   0.368   6.945  17.655 -0.0416  0.5823  0.4157
 2909TIP3    H132922   0.400   7.006  17.721 -0.7883 -0.2972  1.6303
 2909TIP3    H232923   0.390   6.859  17.689 -4.1693 -0.1963  1.7973
 2910TIP3   OH232924   6.697   4.867  17.699  0.6352 -0.1942  0.0864
 2910TIP3    H132925   6.601   4.863  17.702  0.6510 -3.5910 -0.1624
 2910TIP3    H232926   6.725   4.846  17.789  1.1516  0.0853 -0.0047
 2911TIP3   OH232927   6.650   2.976  19.406  0.2108  0.5681  0.0654
 2911TIP3    H132928   6.704   2.995  19.483  0.3389 -1.7911  0.6115
 2911TIP3    H232929   6.561   3.001  19.432  0.2487 -0.2235  0.9904
 2912TIP3   OH232930   2.694   3.305  18.189 -0.1535 -0.4037  0.1968
 2912TIP3    H132931   2.725   3.231  18.241 -1.1272 -0.9257  0.0465
 2912TIP3    H232932   2.621   3.341  18.239  1.1002  1.2771  0.9189
 2913TIP3   OH232933   6.745   2.703  19.621  0.6489  0.6667 -0.4005
 2913TIP3    H132934   6.805   2.776  19.640  0.1128  1.1305 -0.4537
 2913TIP3    H232935   6.704   2.684  19.706  0.2805  0.8959 -0.5244
 2914TIP3   OH232936   7.033   3.027  17.053  0.1626  0.1870 -0.4783
 2914TIP3    H132937   6.944   3.053  17.077  0.5424 -0.4249  1.8232
 2914TIP3    H232938   7.021   2.959  16.987 -1.0944 -0.1222  0.0452
 2915TIP3   OH232939   0.402   3.694  17.982 -0.2206  0.1159  0.0203
 2915TIP3    H132940   0.482   3.744  17.992 -0.0711  0.1257 -1.0422
 2915TIP3    H232941   0.332   3.758  17.992 -0.2023 -0.1573  2.5668
 2916TIP3   OH232942   6.106   4.176  18.579 -0.3428 -0.3923  0.3665
 2916TIP3    H132943   6.018   4.158  18.545 -0.0953 -1.5000  0.2716
 2916TIP3    H232944   6.146   4.234  18.515 -1.0729  0.2894  0.5160
 2917TIP3   OH232945   4.786   4.749  18.818 -0.6159 -0.6259  0.4422
 2917TIP3    H132946   4.772   4.806  18.742  1.1180  0.7508  1.0823
 2917TIP3    H232947   4.880   4.730  18.816 -0.6897 -1.2087  1.8162
 2918TIP3   OH232948   5.423   7.665  17.217 -0.1833 -0.1599  0.2781
 2918TIP3    H132949   5.492   7.628  17.273  2.4175  0.9535 -1.9323
 2918TIP3    H232950   5.403   7.596  17.155 -0.8945 -0.3912  0.7586
 2919TIP3   OH232951   0.912   7.580  17.537  0.0579  0.0996 -0.1731
 2919TIP3    H132952   0.845   7.615  17.477  0.0503  1.7612  0.7402
 2919TIP3    H232953   0.913   7.486  17.519 -1.4754  0.2400 -1.2575
 2920TIP3   OH232954   5.691   4.724  18.632  0.0815 -0.0603  0.1223
 2920TIP3    H132955   5.623   4.782  18.667  0.1518  0.4881 -0.6445
 2920TIP3    H232956   5.695   4.745  18.539  0.9203 -0.4821  0.0586
 2921TIP3   OH232957   2.741   3.699  18.596 -0.0654 -0.5741 -0.4011
 2921TIP3    H132958   2.758   3.639  18.523  0.2870  1.1551 -1.8040
 2921TIP3    H232959   2.824   3.702  18.645 -0.1281 -1.3231 -0.2458
 2922TIP3   OH232960   4.704   6.638  17.265 -0.4905 -0.1571 -0.0179
 2922TIP3    H132961   4.637   6.635  17.197 -1.1641  0.3298  0.6124
 2922TIP3    H232962   4.663   6.596  17.340 -0.0590  0.0827  0.3541
 2923TIP3   OH232963   1.533   1.500  18.401 -0.0086  0.0192 -0.3757
 2923TIP3    H132964   1.518   1.419  18.352 -1.0106  0.3624 -0.6531
 2923TIP3    H232965   1.621   1.527  18.376  0.2683 -0.8787 -0.4294
 2924TIP3   OH232966   4.366   4.504  19.653  0.3726  0.0510 -0.5907
 2924TIP3    H132967   4.410   4.579  19.693  0.4061 -1.1200  1.6783
 2924TIP3    H232968   4.428   4.472  19.587  1.1171  0.9112 -0.3244
 2925TIP3   OH232969   5.309   4.953  19.327 -0.2895  0.2157 -0.9562
 2925TIP3    H132970   5.365   5.023  19.294  0.1178 -0.1371 -1.0170
 2925TIP3    H232971   5.220   4.979  19.303 -0.3408  1.5977  0.5708
 2926TIP3   OH232972   0.588   4.541  16.736 -0.0831 -0.1727 -0.2294
 2926TIP3    H132973   0.632   4.480  16.796  0.7297 -1.1847 -1.7890
 2926TIP3    H232974   0.496   4.536  16.760  0.3465  0.3723  1.7111
 2927TIP3   OH232975   4.189   3.040  18.262 -0.2505  0.0417 -0.1538
 2927TIP3    H132976   4.155   2.950  18.261  0.3800 -0.2274 -2.4457
 2927TIP3    H232977   4.278   3.032  18.296 -0.4557 -0.0728  0.3704
 2928TIP3   OH232978   1.185   6.506  17.676  0.2609  0.3428  0.0419
 2928TIP3    H132979   1.119   6.466  17.619  1.5806  0.7550 -1.9065
 2928TIP3    H232980   1.224   6.575  17.622  1.4528  0.9176  1.5492
 2929TIP3   OH232981   4.259   4.265  18.066 -0.3026  0.0306  0.2368
 2929TIP3    H132982   4.224   4.255  17.978  0.6244  0.5643 -0.2128
 2929TIP3    H232983   4.236   4.354  18.091  0.9049  0.4764 -0.1670
 2930TIP3   OH232984   4.419   1.374  18.103 -0.3924 -0.5112 -0.1210
 2930TIP3    H132985   4.417   1.280  18.122  0.5500 -0.8165 -1.4607
 2930TIP3    H232986   4.479   1.410  18.169  0.2410 -1.0475 -0.3925
 2931TIP3   OH232987   1.465   4.216  19.127 -0.1475 -0.2370 -0.5871
 2931TIP3    H132988   1.407   4.280  19.086 -1.0167  0.4373  1.5510
 2931TIP3    H232989   1.406   4.149  19.161  0.1790  0.6623  1.9952
 2932TIP3   OH232990   0.974   7.084  17.763 -0.1291  0.4304  0.3809
 2932TIP3    H132991   0.918   7.036  17.823  0.6074  1.4846  1.9744
 2932TIP3    H232992   0.936   7.171  17.759  1.6611  1.3581  1.9963
 2933TIP3   OH232993   3.476   2.885  18.021 -0.1386 -0.6512  0.0630
 2933TIP3    H132994   3.441   2.965  17.982 -2.1283 -1.2707  0.4233
 2933TIP3    H232995   3.458   2.817  17.956 -0.0868 -1.0732  0.4846
 2934TIP3   OH232996   7.108   4.437  17.761  0.1977 -0.1890 -0.1571
 2934TIP3    H132997   7.169   4.363  17.760  0.7074  0.2018  0.5401
 2934TIP3    H232998   7.116   4.476  17.674  1.9339  0.6105  0.3023
 2935TIP3   OH232999   4.269   3.088  17.143 -0.2509 -0.1364 -0.3591
 2935TIP3    H133000   4.328   3.087  17.068 -1.1691  0.2770 -1.1077
 2935TIP3    H233001   4.291   3.168  17.190 -0.2585  0.0567 -0.6778
 2936TIP3   OH233002   5.900   1.286  17.527 -0.0273  0.4856 -0.0007
 2936TIP3    H133003   5.978   1.231  17.523  0.8738  1.7500 -3.1325
 2936TIP3    H233004   5.933   1.372  17.552 -0.8985  0.4238  1.4520
 2937TIP3   OH233005   6.642   0.239  19.340  0.2327  0.4462  0.3922
 2937TIP3    H133006   6.566   0.294  19.360  0.1925 -0.0200  1.5645
 2937TIP3    H233007   6.608   0.174  19.278 -0.0445  0.9143  0.0420
 2938TIP3   OH233008   7.542   3.959  18.967  0.5000 -0.2967 -0.2393
 2938TIP3    H133009   7.499   3.950  18.882  1.4726  1.1311 -0.9148
 2938TIP3    H233010   7.470   3.978  19.028 -0.2022 -1.3525 -0.7039
 2939TIP3   OH233011   2.715   1.200  19.026  0.4201  0.0881 -0.3622
 2939TIP3    H133012   2.718   1.135  18.956  1.2499 -1.5160  1.0798
 2939TIP3    H233013   2.684   1.151  19.103  1.5267  1.2700  0.8874
 2940TIP3   OH233014   4.405   3.726  17.961  0.4480 -0.1372  0.3339
 2940TIP3    H133015   4.320   3.710  18.002  0.2813 -1.9316 -0.5709
 2940TIP3    H233016   4.469   3.716  18.031 -0.0540  0.6157  0.9006
 2941TIP3   OH233017   2.303   6.887  19.202  0.2269  0.2042  0.4638
 2941TIP3    H133018   2.372   6.887  19.270 -1.2436  0.1941  2.0298
 2941TIP3    H233019   2.262   6.801  19.211 -0.0632  0.2531 -0.3786
 2942TIP3   OH233020   2.775   5.760  17.983  0.6998 -0.7163 -0.2600
 2942TIP3    H133021   2.711   5.830  17.972 -0.8720 -2.1553 -0.8017
 2942TIP3    H233022   2.860   5.804  17.982 -0.2565  1.5320  2.3915
 2943TIP3   OH233023   4.534   0.819  17.633  0.0023  0.1317 -0.2800
 2943TIP3    H133024   4.488   0.764  17.696 -1.4902  0.1437 -1.3166
 2943TIP3    H233025   4.569   0.757  17.569  2.3051  0.0287  0.9499
 2944TIP3   OH233026   6.730   5.416  18.091  0.4210  0.6318 -0.2852
 2944TIP3    H133027   6.742   5.366  18.172 -0.1096 -0.9121 -1.0998
 2944TIP3    H233028   6.670   5.486  18.114 -1.0389 -0.7590  0.3228
 2945TIP3   OH233029   5.447   5.589  19.228 -0.3023  0.1434 -0.0843
 2945TIP3    H133030   5.541   5.599  19.210 -0.2147  0.5755  0.5672
 2945TIP3    H233031   5.429   5.497  19.211  0.3516 -0.0623  0.2907
 2946TIP3   OH233032   3.988   4.501  18.763  0.1514 -0.1882  0.2537
 2946TIP3    H133033   3.945   4.587  18.762 -1.3176 -0.8860  0.0844
 2946TIP3    H233034   4.066   4.513  18.817  1.2441  1.8115 -1.6338
 2947TIP3   OH233035   6.436   0.715  18.405  0.1969  0.7894  0.3632
 2947TIP3    H133036   6.481   0.729  18.487  1.4514 -1.5282  0.1698
 2947TIP3    H233037   6.374   0.644  18.423  0.7142  0.0229 -0.7330
 2948TIP3   OH233038   1.754   6.243  18.738 -0.3287  0.5639  0.1986
 2948TIP3    H133039   1.685   6.266  18.677  0.2420 -1.0119 -1.1078
 2948TIP3    H233040   1.825   6.305  18.718 -0.7057  1.0479  0.3409
 2949TIP3   OH233041   0.986   0.082  19.029 -0.1443 -0.1739 -0.2581
 2949TIP3    H133042   1.000  -0.007  19.062 -1.3132 -0.3178 -0.1336
 2949TIP3    H233043   0.965   0.071  18.937  0.1460  0.0156 -0.3496
 2950TIP3   OH233044   2.318   0.892  18.331 -0.3373 -0.2293  0.5427
 2950TIP3    H133045   2.325   0.908  18.237 -1.0397  2.5584  0.8699
 2950TIP3    H233046   2.246   0.829  18.340  0.4011 -1.3184 -0.7905
 2951TIP3   OH233047   5.135   5.394  18.143  0.1555  0.1954  0.1262
 2951TIP3    H133048   5.207   5.339  18.174  0.1030  0.8758  1.5407
 2951TIP3    H233049   5.061   5.371  18.198  0.5747  2.7951  1.9353
 2952TIP3   OH233050   3.452   4.768  18.910 -0.1878 -0.7418  0.2476
 2952TIP3    H133051   3.519   4.732  18.851 -0.2533 -0.2037 -0.1614
 2952TIP3    H233052   3.451   4.861  18.890 -0.5094 -0.6246  0.8153
 2953TIP3   OH233053   2.670   5.421  18.886  0.4090  1.0603  0.5805
 2953TIP3    H133054   2.620   5.340  18.889  0.4945  1.0240  1.0647
 2953TIP3    H233055   2.631   5.476  18.954 -0.5357  1.9481 -0.6458
 2954TIP3   OH233056   0.749   6.224  18.097 -0.2338 -0.1368 -0.4997
 2954TIP3    H133057   0.665   6.251  18.059  0.5143  0.1701 -2.0217
 2954TIP3    H233058   0.793   6.306  18.117 -0.7388 -0.2921  1.4173
 2955TIP3   OH233059   3.639   2.536  19.057 -0.0663  0.4740  0.4461
 2955TIP3    H133060   3.567   2.587  19.095  2.2618  0.9729  4.8391
 2955TIP3    H233061   3.717   2.589  19.073  1.7387 -1.6430 -0.7659
 2956TIP3   OH233062   3.595   0.882  19.452 -0.2248  0.1623 -0.0675
 2956TIP3    H133063   3.620   0.868  19.361  1.7052 -1.1232  0.5969
 2956TIP3    H233064   3.570   0.975  19.456 -2.0829 -0.1667 -2.2160
 2957TIP3   OH233065   5.447   3.691  17.191  0.0961 -0.1038  0.6984
 2957TIP3    H133066   5.466   3.603  17.159  1.1570 -0.2262  1.6044
 2957TIP3    H233067   5.505   3.748  17.140 -1.6356  0.2819 -0.9372
 2958TIP3   OH233068   2.650   3.015  17.185 -0.0521  0.1824 -0.1629
 2958TIP3    H133069   2.580   3.034  17.123  0.7975  1.3793 -0.7782
 2958TIP3    H233070   2.708   2.954  17.139 -0.2212 -0.1336  0.0328
 2959TIP3   OH233071   4.589   6.499  17.462 -0.3482 -0.1191 -0.4758
 2959TIP3    H133072   4.592   6.464  17.552 -0.0148 -0.3414 -0.5725
 2959TIP3    H233073   4.559   6.425  17.409  1.8073 -0.7317 -0.9081
 2960TIP3   OH233074   3.703   4.208  18.646 -0.3595 -0.4339 -0.1345
 2960TIP3    H133075   3.693   4.133  18.704 -0.7093 -1.0033 -0.9258
 2960TIP3    H233076   3.690   4.174  18.558 -2.4776  0.8943 -0.4055
 2961TIP3   OH233077   6.890   1.454  17.222  1.1123  0.5864  0.0074
 2961TIP3    H133078   6.945   1.412  17.288 -0.3257  0.4825  1.1740
 2961TIP3    H233079   6.837   1.517  17.270 -0.5990 -0.1104 -0.8623
 2962TIP3   OH233080   0.652   6.907  18.054 -0.4286 -0.0211 -0.4696
 2962TIP3    H133081   0.717   6.975  18.035 -0.9534  0.1796 -1.6557
 2962TIP3    H233082   0.599   6.943  18.125  1.1315 -0.4665  0.9918
 2963TIP3   OH233083   6.661   5.614  17.838  0.7493  0.2110 -0.8456
 2963TIP3    H133084   6.626   5.704  17.834 -2.0614 -0.7249 -0.0447
 2963TIP3    H233085   6.717   5.613  17.915 -0.1675  1.0333 -0.1341
 2964TIP3   OH233086   6.739   1.387  17.869  0.7655  0.0138 -0.5461
 2964TIP3    H133087   6.787   1.452  17.921 -0.3325 -1.8270  3.0931
 2964TIP3    H233088   6.787   1.305  17.883 -0.9201 -1.0064 -0.4218
 2965TIP3   OH233089   4.278   7.559  18.146  0.2003 -0.2665  0.2884
 2965TIP3    H133090   4.198   7.510  18.131 -0.0822 -0.5335  2.3217
 2965TIP3    H233091   4.248   7.645  18.178  0.7256  0.2239 -0.4965
 2966TIP3   OH233092   3.385   5.012  18.745 -0.2026  0.3648 -0.0729
 2966TIP3    H133093   3.313   5.016  18.808  0.3028 -3.8690  1.1020
 2966TIP3    H233094   3.379   4.924  18.708  2.3790  1.0586 -2.4780
 2967TIP3   OH233095   1.451   7.292  18.625 -0.5901 -0.4301  0.3270
 2967TIP3    H133096   1.502   7.314  18.702 -0.1409 -0.8568  0.1570
 2967TIP3    H233097   1.446   7.197  18.625  0.6426 -0.5284 -0.9359
 2968TIP3   OH233098   6.144   4.045  18.840 -0.0941  0.1948 -0.0713
 2968TIP3    H133099   6.079   4.112  18.862 -0.5052  0.0717 -0.8599
 2968TIP3    H233100   6.114   3.967  18.886 -1.0997 -0.1351 -1.2247
 2969TIP3   OH233101   3.518   5.507  19.239 -0.4796 -0.1131  0.2153
 2969TIP3    H133102   3.458   5.527  19.310 -1.7019  2.1773 -1.3232
 2969TIP3    H233103   3.473   5.441  19.187 -0.9175  0.3415  0.0067
 2970TIP3   OH233104   4.353   0.724  17.374  0.0256 -0.1524 -0.4956
 2970TIP3    H133105   4.442   0.692  17.388 -0.5300 -0.9246  1.5315
 2970TIP3    H233106   4.358   0.817  17.396  0.3704 -0.1436 -0.5955
 2971TIP3   OH233107   2.688   5.760  16.708 -0.2483 -0.4262  0.3487
 2971TIP3    H133108   2.703   5.680  16.658  1.2628 -1.6047  2.5020
 2971TIP3    H233109   2.648   5.729  16.790 -0.2851  1.1034  0.9300
 2972TIP3   OH233110   7.494   0.213  19.207 -0.5287 -0.3599  0.2365
 2972TIP3    H133111   7.550   0.261  19.147 -0.4014  0.0201  0.6525
 2972TIP3    H233112   7.467   0.135  19.158  0.0145 -0.3329 -0.1164
 2973TIP3   OH233113   5.972   5.088  18.500  0.4395 -0.0676  0.0609
 2973TIP3    H133114   5.981   5.000  18.464 -0.2480  0.3324 -1.1520
 2973TIP3    H233115   6.060   5.111  18.531  0.9571 -0.5992 -0.9818
 2974TIP3   OH233116   4.226   0.931  18.248  0.1853  0.5561  0.0539
 2974TIP3    H133117   4.305   0.975  18.217  0.5024  0.0510  0.1299
 2974TIP3    H233118   4.253   0.891  18.331 -0.1496  0.3804  0.0787
 2975TIP3   OH233119   5.767   2.314  17.836  0.2499  0.1420  0.3053
 2975TIP3    H133120   5.806   2.395  17.804  0.1810 -0.0178 -0.1889
 2975TIP3    H233121   5.717   2.280  17.762  0.1694 -0.2819  0.5494
 2976TIP3   OH233122   7.162   4.293  18.508  0.0547 -0.1171 -0.1844
 2976TIP3    H133123   7.191   4.355  18.574 -0.8418  1.9100 -1.5720
 2976TIP3    H233124   7.093   4.340  18.460  0.3576 -1.6485 -2.2560
 2977TIP3   OH233125   4.381   6.621  19.039  0.6285 -0.2444  0.2581
 2977TIP3    H133126   4.380   6.690  18.974 -2.0446  0.6443  1.0982
 2977TIP3    H233127   4.471   6.590  19.040  1.0187  0.4028 -3.0521
 2978TIP3   OH233128   6.021   0.449  17.820  0.7129  0.2361 -0.5457
 2978TIP3    H133129   5.965   0.469  17.745  2.1012 -0.2153 -1.7377
 2978TIP3    H233130   6.094   0.400  17.784  1.2509 -0.3112  1.1693
 2979TIP3   OH233131   1.990   4.231  17.974  0.0356  0.3743  0.3686
 2979TIP3    H133132   1.932   4.155  17.980  0.8477 -0.3799 -1.0394
 2979TIP3    H233133   1.987   4.270  18.062 -1.4713 -0.4679  0.7232
 2980TIP3   OH233134   2.862   6.268  17.183  0.5930  0.2806  0.3236
 2980TIP3    H133135   2.829   6.181  17.160  2.3132 -0.7041  1.4177
 2980TIP3    H233136   2.861   6.316  17.101 -0.5044 -0.7089 -0.2798
 2981TIP3   OH233137   5.783   6.957  16.807  0.1862 -0.4511  0.5458
 2981TIP3    H133138   5.688   6.958  16.820  0.1328 -1.0307  0.2586
 2981TIP3    H233139   5.818   6.909  16.882  0.4140  1.2069  1.5278
 2982TIP3   OH233140   0.401   3.177  17.544 -0.0875 -0.4180  0.5693
 2982TIP3    H133141   0.436   3.123  17.615 -1.4392 -1.1349  0.7409
 2982TIP3    H233142   0.477   3.208  17.496  0.8465 -0.2088  2.1253
 2983TIP3   OH233143   7.275   4.460  18.015 -0.0363  0.0975  0.0552
 2983TIP3    H133144   7.199   4.410  17.985 -0.2967  0.4762  0.0750
 2983TIP3    H233145   7.253   4.486  18.105 -0.6254  1.6451 -0.5075
 2984TIP3   OH233146   5.643   5.835  19.099  0.1094 -0.1961  0.5857
 2984TIP3    H133147   5.577   5.815  19.033  0.0966 -1.7389  1.0156
 2984TIP3    H233148   5.669   5.750  19.133  0.8583  0.5029  1.8499
 2985TIP3   OH233149   1.123   1.817  18.118  0.7629 -0.0836 -0.1639
 2985TIP3    H133150   1.132   1.753  18.188 -3.1231 -1.3104 -0.5315
 2985TIP3    H233151   1.106   1.764  18.040  0.6660  1.3531 -1.1560
 2986TIP3   OH233152   4.955   1.082  19.764 -0.4205  0.3637  0.9947
 2986TIP3    H133153   4.878   1.049  19.810 -0.4940 -3.4388 -1.3598
 2986TIP3    H233154   4.921   1.148  19.704 -1.8673 -0.9811  0.2599
 2987TIP3   OH233155   1.698   6.958  17.944 -0.0041  0.0440 -0.2014
 2987TIP3    H133156   1.641   6.929  17.873  0.7336  1.1431 -1.2737
 2987TIP3    H233157   1.730   7.043  17.916 -0.8786  1.2395  2.1488
 2988TIP3   OH233158   0.040   4.874  19.445  0.2708  0.1400  0.0074
 2988TIP3    H133159   0.136   4.879  19.446  0.2697  1.2336 -1.4860
 2988TIP3    H233160   0.011   4.956  19.485 -0.0267  0.2693 -0.4673
 2989TIP3   OH233161   4.059   7.542  17.226  0.7242  0.4281 -0.4334
 2989TIP3    H133162   4.104   7.494  17.295  0.9549 -0.2385 -1.0280
 2989TIP3    H233163   4.043   7.629  17.262 -0.5447 -0.3619  1.0332
 2990TIP3   OH233164   6.771   4.951  19.633  0.2621  0.0751  0.3025
 2990TIP3    H133165   6.778   4.948  19.729  0.0002  1.8025  0.4043
 2990TIP3    H233166   6.802   4.865  19.604  0.0863 -0.5734  1.9482
 2991TIP3   OH233167   6.595   2.328  18.193  0.2862  0.2228  0.3043
 2991TIP3    H133168   6.532   2.275  18.145  0.5599  0.6916 -0.6072
 2991TIP3    H233169   6.546   2.406  18.220  0.9545  1.7758 -2.5059
 2992TIP3   OH233170   6.318   7.645  18.373 -0.1135 -0.4825 -0.5226
 2992TIP3    H133171   6.231   7.663  18.410  1.4104  2.5335  2.1506
 2992TIP3    H233172   6.365   7.601  18.444  1.3140  0.4240 -0.8724
 2993TIP3   OH233173   2.316   4.112  17.121  1.0441  0.6058  0.0999
 2993TIP3    H133174   2.335   4.177  17.053 -1.4316  1.6482  0.2930
 2993TIP3    H233175   2.396   4.108  17.173  2.2113  1.4429 -1.5362
 2994TIP3   OH233176   3.710   6.854  19.410 -0.3770 -0.2889 -0.2888
 2994TIP3    H133177   3.674   6.939  19.432 -1.2215 -0.4423 -1.0193
 2994TIP3    H233178   3.678   6.836  19.322  0.5902 -0.9351 -0.5328
 2995TIP3   OH233179   4.337   0.807  18.513  0.4496 -0.0608 -0.8579
 2995TIP3    H133180   4.389   0.873  18.559  1.7153  0.5429 -3.0244
 2995TIP3    H233181   4.253   0.807  18.559  1.4641  0.8080  1.1241
 2996TIP3   OH233182   1.752   0.177  18.633  0.5143 -0.0072 -0.2070
 2996TIP3    H133183   1.657   0.188  18.640  0.1906 -1.9744 -0.7226
 2996TIP3    H233184   1.787   0.216  18.714 -0.9594 -1.2991  1.1280
 2997TIP3   OH233185   3.115   2.183  18.813  0.1214  0.1571  0.0942
 2997TIP3    H133186   3.188   2.210  18.869  0.1177  0.7789 -0.1903
 2997TIP3    H233187   3.037   2.209  18.862  0.1106  0.3527 -0.0262
 2998TIP3   OH233188   0.259   1.361  17.943  0.1961 -0.3922 -0.3047
 2998TIP3    H133189   0.322   1.431  17.957 -1.3004  0.6689  1.5908
 2998TIP3    H233190   0.246   1.359  17.848 -0.5423  2.7126 -0.3823
 2999TIP3   OH233191   3.666   3.795  17.912 -0.0610  0.5536 -0.4590
 2999TIP3    H133192   3.747   3.839  17.939 -0.2346  0.1623  0.7513
 2999TIP3    H233193   3.657   3.816  17.819  0.7341  1.6906 -0.2969
 3000TIP3   OH233194   1.108   1.593  18.568  0.0099 -0.5214  0.2162
 3000TIP3    H133195   1.169   1.613  18.640 -1.3745 -0.7282  1.5076
 3000TIP3    H233196   1.031   1.555  18.612 -0.7212 -1.0395 -1.4290
 3001TIP3   OH233197   4.194   5.303  18.239 -0.3898  0.0059 -0.1910
 3001TIP3    H133198   4.119   5.249  18.214 -0.6594 -0.4913  1.5505
 3001TIP3    H233199   4.169   5.391  18.213 -1.7230 -0.1079  0.5883
 3002TIP3   OH233200   7.535   1.948  18.804 -0.4414 -0.1690  0.6134
 3002TIP3    H133201   7.577   2.034  18.794  0.6589 -0.8274 -0.8477
 3002TIP3    H233202   7.513   1.943  18.897 -0.8821  1.8315  0.6730
 3003TIP3   OH233203   2.453   5.755  18.886  0.5067  0.4592 -0.3009
 3003TIP3    H133204   2.472   5.846  18.909  1.0123 -0.1599  1.9988
 3003TIP3    H233205   2.361   5.743  18.910  0.5831  0.2429 -0.1075
 3004TIP3   OH233206   6.613   7.059  18.992  0.1307  0.2801 -0.1139
 3004TIP3    H133207   6.550   6.992  18.965  0.9864  0.7148 -3.8537
 3004TIP3    H233208   6.696   7.011  19.001  0.0703  0.3219  0.6596
 3005TIP3   OH233209   1.943   5.784  18.030  0.6922 -0.0459 -0.2675
 3005TIP3    H133210   1.852   5.759  18.010  0.6792  0.7440 -1.2573
 3005TIP3    H233211   1.946   5.878  18.015  1.1512  0.3342  1.8699
 3006TIP3   OH233212   5.720   6.140  17.186  0.3861 -0.6180  1.0826
 3006TIP3    H133213   5.753   6.229  17.200  2.7579 -1.4236  1.0246
 3006TIP3    H233214   5.689   6.140  17.095  1.7850 -0.2209  0.5731
 3007TIP3   OH233215   0.889   0.335  17.968  0.5715 -0.0185  0.1068
 3007TIP3    H133216   0.808   0.295  17.936  0.6824  0.8076 -1.2697
 3007TIP3    H233217   0.953   0.320  17.898  1.4199  0.0033  0.8511
 3008TIP3   OH233218   1.119   2.558  18.547 -0.0791 -0.7185  0.1041
 3008TIP3    H133219   1.155   2.558  18.636 -0.4615 -3.4213  0.3346
 3008TIP3    H233220   1.139   2.646  18.513  1.2606 -0.0719  2.3591
 3009TIP3   OH233221   7.337   4.145  18.325 -0.1265  0.1258 -0.1877
 3009TIP3    H133222   7.292   4.214  18.373  0.3409 -0.5074  1.2013
 3009TIP3    H233223   7.356   4.184  18.240 -0.7295  1.3728  0.2288
 3010TIP3   OH233224   0.762   2.580  18.007 -0.2413  0.3426 -0.1299
 3010TIP3    H133225   0.722   2.518  17.946 -0.5332 -0.7694  1.1291
 3010TIP3    H233226   0.844   2.539  18.033  0.2681  1.1849 -0.3810
 3011TIP3   OH233227   3.341   5.489  16.760 -0.1497 -0.1235  0.8323
 3011TIP3    H133228   3.262   5.541  16.748 -0.1767 -0.1505  0.8900
 3011TIP3    H233229   3.411   5.553  16.772 -0.3582 -0.0964  2.0193
 3012TIP3   OH233230   4.467   0.643  19.233 -0.4988  0.7116 -0.0093
 3012TIP3    H133231   4.404   0.714  19.235 -1.3073  0.0630 -1.2355
 3012TIP3    H233232   4.475   0.620  19.141  1.9730  1.1304  0.0145
 3013TIP3   OH233233   4.764   3.727  19.564  0.0131  0.0088 -0.0465
 3013TIP3    H133234   4.790   3.696  19.477 -0.6089 -0.5094 -0.0534
 3013TIP3    H233235   4.765   3.823  19.556  0.6336 -0.0225 -0.4193
 3014TIP3   OH233236   7.324   5.122  18.284 -0.3249 -0.3214  0.1100
 3014TIP3    H133237   7.395   5.109  18.347  0.6381 -1.1537 -1.1011
 3014TIP3    H233238   7.354   5.078  18.205 -2.1905 -0.6452 -0.4574
 3015TIP3   OH233239   4.937   0.010  17.576  0.0754  0.2840  0.0981
 3015TIP3    H133240   4.884  -0.046  17.520 -2.4281 -0.2970  2.8231
 3015TIP3    H233241   4.898   0.097  17.568 -0.2512  0.2122  0.8754
 3016TIP3   OH233242   4.569   4.906  19.045  0.6140  0.3285 -0.1909
 3016TIP3    H133243   4.626   4.922  19.120 -0.3719 -0.5324  0.7660
 3016TIP3    H233244   4.615   4.840  18.993  0.2831 -0.7488  0.8486
 3017TIP3   OH233245   4.916   6.851  18.023 -0.8362  0.7206  0.4981
 3017TIP3    H133246   4.932   6.776  18.080  1.0680  0.1978 -0.6366
 3017TIP3    H233247   4.998   6.900  18.024 -1.1290  1.2918 -0.9297
 3018TIP3   OH233248   5.122   1.590  18.850 -0.0159 -0.6360 -0.0423
 3018TIP3    H133249   5.095   1.592  18.758  2.2122 -0.8364 -0.7456
 3018TIP3    H233250   5.135   1.682  18.873  1.1472 -0.6798 -0.4877
 3019TIP3   OH233251   6.035   4.588  19.450  0.0975  0.1345  1.0357
 3019TIP3    H133252   6.085   4.635  19.517 -0.9275  1.2073  1.0795
 3019TIP3    H233253   5.993   4.516  19.497  1.4250 -0.6570  1.0365
 3020TIP3   OH233254   2.663   0.868  17.831  0.1887 -0.7457 -0.3283
 3020TIP3    H133255   2.649   0.915  17.913 -1.3758 -1.9912  0.1672
 3020TIP3    H233256   2.603   0.910  17.769 -1.0906 -1.9033  0.0725
 3021TIP3   OH233257   4.661   3.784  16.814  0.0638 -0.1256  0.5184
 3021TIP3    H133258   4.667   3.692  16.840  0.9976 -0.0636  0.5483
 3021TIP3    H233259   4.751   3.816  16.817  0.1869  0.0348 -2.3009
 3022TIP3   OH233260   3.115   4.248  17.697 -0.1036 -0.5843 -0.2936
 3022TIP3    H133261   3.085   4.167  17.739 -0.4733 -0.7482 -0.8496
 3022TIP3    H233262   3.068   4.249  17.613  0.9519 -0.4973 -0.8989
 3023TIP3   OH233263   1.156   6.208  18.454  0.7418  0.0224  0.1739
 3023TIP3    H133264   1.186   6.188  18.366 -0.3221 -0.6494 -0.0697
 3023TIP3    H233265   1.060   6.202  18.448  0.5413  1.9771  0.9084
 3024TIP3   OH233266   2.946   6.882  17.309 -0.4846 -0.5451 -0.0437
 3024TIP3    H133267   2.865   6.910  17.266  0.0161  0.1979 -0.5323
 3024TIP3    H233268   2.933   6.788  17.326 -1.1430 -0.6082 -0.8154
 3025TIP3   OH233269   4.534   0.423  19.385 -0.2435 -0.2678  0.4296
 3025TIP3    H133270   4.478   0.352  19.353  0.2196  0.5322 -2.5122
 3025TIP3    H233271   4.506   0.500  19.334  2.9102  0.3445 -0.6277
 3026TIP3   OH233272   0.055   6.705  18.000 -0.6149 -0.2967  0.5890
 3026TIP3    H133273   0.004   6.713  18.080 -1.3496 -0.7838  0.1845
 3026TIP3    H233274   0.133   6.655  18.026 -1.4533 -1.5640  0.7592
 3027TIP3   OH233275   3.013   3.544  17.829  0.0188  0.1804 -0.1738
 3027TIP3    H133276   2.971   3.486  17.892  2.2882 -2.5171 -0.9421
 3027TIP3    H233277   2.973   3.520  17.745 -0.4108  1.1941 -0.2793
 3028TIP3   OH233278   6.393   6.254  17.171  0.3329 -0.2614 -0.0183
 3028TIP3    H133279   6.434   6.313  17.108 -0.1455  0.4202  0.2934
 3028TIP3    H233280   6.320   6.215  17.124  0.3013 -0.1661 -0.0481
 3029TIP3   OH233281   3.175   3.459  17.075 -0.1450  0.4477 -0.0942
 3029TIP3    H133282   3.171   3.480  16.982 -2.4385 -0.5425 -0.2947
 3029TIP3    H233283   3.174   3.545  17.119 -0.9991  0.9111 -0.9710
 3030TIP3   OH233284   3.241   3.368  17.822  0.0607  0.2899  0.2027
 3030TIP3    H133285   3.267   3.419  17.745 -0.4954  1.1956  0.6120
 3030TIP3    H233286   3.149   3.390  17.836  0.0891 -0.0520  0.9877
 3031TIP3   OH233287   5.673   7.056  17.828  0.1412 -0.8151  0.2491
 3031TIP3    H133288   5.664   7.132  17.886  0.8641  1.0079 -1.8759
 3031TIP3    H233289   5.584   7.038  17.798  0.0746 -0.2114  0.0706
 3032TIP3   OH233290   6.879   4.571  17.853  0.0949 -0.1272  0.0348
 3032TIP3    H133291   6.961   4.527  17.834  1.7380  2.2341  1.2082
 3032TIP3    H233292   6.841   4.590  17.768  0.5788 -1.5092 -0.5124
 3033TIP3   OH233293   5.919   0.095  17.703 -0.6565  0.1140  0.2247
 3033TIP3    H133294   5.910   0.001  17.716 -1.8963  0.0758 -0.7698
 3033TIP3    H233295   5.871   0.134  17.776 -0.7374 -0.0316  0.2492
 3034TIP3   OH233296   4.160   3.604  18.589 -0.0861 -0.4124  0.2862
 3034TIP3    H133297   4.067   3.593  18.572 -0.3457 -0.1883  1.5222
 3034TIP3    H233298   4.166   3.626  18.682  1.1788 -0.1887  0.1732
 3035TIP3   OH233299   6.183   3.511  18.115 -0.4424 -0.2836 -0.0998
 3035TIP3    H133300   6.089   3.525  18.108 -0.2449  2.0168  0.7546
 3035TIP3    H233301   6.212   3.495  18.025 -1.4124  0.9968 -0.6748
 3036TIP3   OH233302   2.481   2.341  18.635 -0.3292  0.0886 -0.4480
 3036TIP3    H133303   2.518   2.358  18.721  0.2474  1.8253 -0.9901
 3036TIP3    H233304   2.399   2.295  18.652  0.3227 -0.6175  0.9510
 3037TIP3   OH233305   2.933   7.051  18.868 -0.0233  0.3559 -0.3675
 3037TIP3    H133306   2.929   7.122  18.932 -1.0616 -0.4987  0.5475
 3037TIP3    H233307   2.920   6.971  18.919  2.1994 -0.6368 -1.2015
 3038TIP3   OH233308   1.178   2.932  16.862 -0.2421  0.1282 -0.0421
 3038TIP3    H133309   1.168   3.026  16.874  0.7870  0.4221 -1.3430
 3038TIP3    H233310   1.176   2.919  16.767 -1.4377 -1.2956  0.1337
 3039TIP3   OH233311   7.108   1.216  18.657  0.1686  0.3632 -0.4043
 3039TIP3    H133312   7.131   1.254  18.573 -0.0377  1.4664  0.0235
 3039TIP3    H233313   7.034   1.269  18.688 -0.1367 -0.3976  0.2067
 3040TIP3   OH233314   7.140   7.454  18.374  0.2219 -0.7516  0.1779
 3040TIP3    H133315   7.159   7.547  18.383  1.4449 -1.1867  3.2864
 3040TIP3    H233316   7.044   7.449  18.377  0.1602  0.3905  0.5405
 3041TIP3   OH233317   7.265   1.305  18.126  0.3172 -0.2975  0.1489
 3041TIP3    H133318   7.287   1.380  18.070 -0.3002 -0.5965 -0.5184
 3041TIP3    H233319   7.340   1.297  18.186 -0.1518  1.6027  1.0675
 3042TIP3   OH233320   0.000   6.717  16.926  0.1007 -0.7671 -0.3219
 3042TIP3    H133321   0.017   6.752  16.839  0.2439 -1.1675 -0.4588
 3042TIP3    H233322  -0.047   6.787  16.972 -0.9075 -0.9552 -1.0585
 3043TIP3   OH233323   3.276   2.357  19.289  0.8751  0.7113  0.2967
 3043TIP3    H133324   3.209   2.335  19.225  0.5085  2.3365  0.0709
 3043TIP3    H233325   3.236   2.425  19.344  1.7816  0.5752  1.1637
 3044TIP3   OH233326   5.855   2.001  18.195  0.0750  0.4482  0.2796
 3044TIP3    H133327   5.804   1.950  18.258 -0.4260  0.0041 -0.4665
 3044TIP3    H233328   5.879   1.937  18.127  0.8473  0.8529  0.1529
 3045TIP3   OH233329   4.375   4.615  18.377 -0.1620  0.0344  0.5461
 3045TIP3    H133330   4.315   4.582  18.311  0.9429 -4.0676  1.3197
 3045TIP3    H233331   4.340   4.583  18.461  1.9388 -0.7290  1.2016
 3046TIP3   OH233332   1.828   3.942  19.434 -0.3236  0.4381  0.4102
 3046TIP3    H133333   1.846   3.850  19.454  2.4203  0.7548 -0.2014
 3046TIP3    H233334   1.823   3.945  19.339  3.3936  1.3611  0.0935
 3047TIP3   OH233335   1.402   2.485  19.022 -0.3568 -0.0486  0.5548
 3047TIP3    H133336   1.369   2.403  18.984  1.9501 -0.9875  0.3510
 3047TIP3    H233337   1.496   2.482  19.005 -0.0342  2.1006  1.6312
 3048TIP3   OH233338   4.839   1.644  19.557 -0.0845  0.2075  0.0764
 3048TIP3    H133339   4.921   1.627  19.603  0.4240  1.6714 -0.2320
 3048TIP3    H233340   4.783   1.569  19.577  1.0914 -0.4757  0.8439
 3049TIP3   OH233341   6.918   5.651  18.852 -0.5657  0.3327 -0.2182
 3049TIP3    H133342   6.862   5.636  18.928 -0.6270 -1.1755 -0.5365
 3049TIP3    H233343   7.005   5.623  18.880  0.0134  2.3101  0.1488
 3050TIP3   OH233344   5.571   3.197  18.074  0.0056  0.1910  1.0261
 3050TIP3    H133345   5.551   3.286  18.102 -1.0438 -0.2238  1.6668
 3050TIP3    H233346   5.545   3.194  17.982  0.1103  0.5631  0.9850
 3051TIP3   OH233347   6.571   4.666  19.598  0.3163  0.4892 -0.2334
 3051TIP3    H133348   6.537   4.633  19.681 -0.8886  1.6712 -0.2181
 3051TIP3    H233349   6.665   4.677  19.613 -0.0046  1.4931  1.2815
 3052TIP3   OH233350   0.755   1.948  18.084  0.3350  0.3916 -0.3538
 3052TIP3    H133351   0.767   2.033  18.127 -0.1086  1.0355 -1.4362
 3052TIP3    H233352   0.796   1.959  17.998  0.8020 -0.6975 -0.2818
 3053TIP3   OH233353   6.400   0.689  17.876 -0.3777 -0.1175  0.3788
 3053TIP3    H133354   6.386   0.760  17.939  1.1596 -0.5357  1.2332
 3053TIP3    H233355   6.393   0.731  17.791 -0.5864  0.8335  0.8487
 3054TIP3   OH233356   0.421   5.096  17.938 -0.3850 -0.1412 -0.7367
 3054TIP3    H133357   0.495   5.093  17.998 -0.1614  1.6338 -0.8712
 3054TIP3    H233358   0.429   5.015  17.887 -0.5674 -1.6986  1.5321
 3055TIP3   OH233359   5.958   0.925  17.643  0.1234  0.6312 -0.0304
 3055TIP3    H133360   6.016   0.911  17.568 -0.0012 -0.8378  0.1181
 3055TIP3    H233361   6.017   0.933  17.718  0.2268  1.6435 -0.2070
 3056TIP3   OH233362   1.334   3.418  18.419  0.3427 -0.1202  0.6684
 3056TIP3    H133363   1.239   3.404  18.420 -0.0169  2.0564  1.7588
 3056TIP3    H233364   1.368   3.343  18.369 -1.9547 -0.7447 -0.1002
 3057TIP3   OH233365   0.670   0.436  19.295 -0.0320 -0.0609 -1.0201
 3057TIP3    H133366   0.726   0.406  19.366  0.0002 -2.2298 -1.8968
 3057TIP3    H233367   0.729   0.444  19.220 -0.2217  1.4361 -1.0541
 3058TIP3   OH233368   3.904   3.382  17.303 -0.2997 -0.3265  0.4282
 3058TIP3    H133369   3.965   3.338  17.362 -0.7577 -1.5887  0.0019
 3058TIP3    H233370   3.818   3.352  17.332 -0.6262  0.3006  0.1165
 3059TIP3   OH233371   1.164   5.919  16.747  0.3994  0.1497 -0.2857
 3059TIP3    H133372   1.120   5.952  16.825  0.0051 -0.5170 -0.2197
 3059TIP3    H233373   1.155   5.989  16.683  1.6222  1.1488  0.5671
 3060TIP3   OH233374   3.645   2.259  19.011  0.2621  0.2628  0.1526
 3060TIP3    H133375   3.725   2.246  19.061 -0.9769  0.7420  2.3874
 3060TIP3    H233376   3.640   2.354  18.998  1.3668  0.0728 -2.4315
 3061TIP3   OH233377   2.525   3.029  18.036 -0.2591 -0.0686 -0.2680
 3061TIP3    H133378   2.566   3.082  17.968  0.8987  0.2627  0.6613
 3061TIP3    H233379   2.488   3.092  18.097  2.1970 -0.2212  1.4985
 3062TIP3   OH233380   1.038   0.487  18.138 -0.1896 -0.3208 -0.4707
 3062TIP3    H133381   0.986   0.556  18.179 -1.1565 -2.0190  1.3324
 3062TIP3    H233382   0.974   0.425  18.103  0.5510 -1.9911  0.9662
 3063TIP3   OH233383   4.703   3.518  19.761  0.3994 -0.4205 -0.3302
 3063TIP3    H133384   4.712   3.589  19.698  1.4275 -1.1834 -1.0779
 3063TIP3    H233385   4.641   3.551  19.826 -0.0129  0.7107 -1.2686
 3064TIP3   OH233386   7.444   3.031  17.842  1.0070 -0.1051  0.0924
 3064TIP3    H133387   7.387   3.041  17.766  0.1628 -0.4928  0.6552
 3064TIP3    H233388   7.513   2.972  17.813 -0.7086 -2.3688  0.3378
 3065TIP3   OH233389   7.676   2.448  16.860 -0.0588  0.2412 -0.1371
 3065TIP3    H133390   7.707   2.464  16.771 -0.5483  0.1527 -0.3245
 3065TIP3    H233391   7.752   2.465  16.915  0.5742 -0.7684 -0.6545
 3066TIP3   OH233392   0.956   5.614  17.945 -0.0159 -0.3583 -0.2767
 3066TIP3    H133393   1.007   5.544  17.906  0.8561  0.8399 -1.3480
 3066TIP3    H233394   0.908   5.654  17.872  0.5831  1.0367  0.0533
 3067TIP3   OH233395   7.673   0.246  17.655  0.3097  0.0636  0.2998
 3067TIP3    H133396   7.664   0.331  17.699  1.5208  0.2421  0.2399
 3067TIP3    H233397   7.583   0.222  17.631 -0.4400 -0.0799  2.8972
 3068TIP3   OH233398   6.629   7.271  18.078  0.0867  0.1228 -0.6589
 3068TIP3    H133399   6.644   7.363  18.102  0.2188  0.0227 -0.3481
 3068TIP3    H233400   6.536   7.257  18.098 -0.3035  0.5851 -2.0545
 3069TIP3   OH233401   2.126   5.020  17.894 -0.5353 -0.2423 -0.5528
 3069TIP3    H133402   2.103   4.947  17.951 -1.2957 -0.4245 -1.0788
 3069TIP3    H233403   2.202   4.989  17.845 -0.5568 -0.4973 -0.4265
 3070TIP3   OH233404   7.308   1.866  17.550 -0.3844  0.1924  0.3720
 3070TIP3    H133405   7.317   1.805  17.624  0.9607  0.7490  0.7002
 3070TIP3    H233406   7.383   1.925  17.558  0.1956 -0.1455 -1.8221
 3071TIP3   OH233407   5.647   2.976  19.109  0.0531  0.5868  0.7617
 3071TIP3    H133408   5.584   2.912  19.076 -1.7314  1.7570  1.7394
 3071TIP3    H233409   5.694   2.930  19.178  1.2661 -0.7136 -0.8370
 3072TIP3   OH233410   3.207   1.665  18.916  0.1788 -0.6035 -0.0600
 3072TIP3    H133411   3.180   1.701  18.832 -0.7464 -0.7417  0.1696
 3072TIP3    H233412   3.212   1.741  18.975 -0.2699 -0.6544  0.0429
 3073TIP3   OH233413   7.583   3.606  18.828 -0.3045 -0.4763 -0.0899
 3073TIP3    H133414   7.521   3.573  18.893  0.3954 -1.2604  0.2009
 3073TIP3    H233415   7.565   3.554  18.749 -0.9675  0.2849 -0.4575
 3074TIP3   OH233416   1.373   3.989  18.501 -0.2117 -0.1771  0.5726
 3074TIP3    H133417   1.318   3.955  18.572 -0.6504 -0.1324  0.2553
 3074TIP3    H233418   1.327   4.066  18.470 -0.7369 -0.9699 -0.6834
 3075TIP3   OH233419   1.764   2.809  18.621 -0.0825  0.3211 -0.1540
 3075TIP3    H133420   1.796   2.753  18.551  0.7396 -0.7355  1.0065
 3075TIP3    H233421   1.834   2.806  18.687 -0.5762  1.7341  0.4621
 3076TIP3   OH233422   0.299   2.699  16.513  0.1626 -0.1483  0.1983
 3076TIP3    H133423   0.326   2.718  16.603  0.8741 -0.0813 -0.0247
 3076TIP3    H233424   0.381   2.693  16.464 -0.2667  1.2825 -0.7483
 3077TIP3   OH233425   1.897   2.734  19.432  0.5752 -0.0672  0.0686
 3077TIP3    H133426   1.844   2.735  19.512  0.8297  0.4904  0.2341
 3077TIP3    H233427   1.866   2.809  19.382 -0.6070 -1.2323 -1.0537
 3078TIP3   OH233428   3.506   3.814  17.013  0.9334 -0.0786  0.2441
 3078TIP3    H133429   3.565   3.740  16.999 -0.2122 -1.1475  0.8127
 3078TIP3    H233430   3.546   3.864  17.084  1.5852 -0.3088  0.0447
 3079TIP3   OH233431   3.080   1.081  19.084  0.5273  0.7121 -0.3730
 3079TIP3    H133432   3.165   1.039  19.068  0.8743  1.6533 -1.0772
 3079TIP3    H233433   3.037   1.082  18.998 -0.9219 -1.2075  0.2435
 3080TIP3   OH233434   3.996   1.380  18.838  0.0073  0.0968  0.2147
 3080TIP3    H133435   3.925   1.430  18.877  1.0530  1.5235  0.3425
 3080TIP3    H233436   4.034   1.332  18.912  0.2693  0.6823  0.4646
 3081TIP3   OH233437   1.982   0.384  19.364  0.2720  0.0738 -0.0574
 3081TIP3    H133438   2.030   0.302  19.367 -0.0097 -0.0642  1.1653
 3081TIP3    H233439   1.925   0.376  19.288 -0.9544 -1.5600  0.9853
 3082TIP3   OH233440   0.177   5.111  17.272 -0.2708  0.0959  0.0174
 3082TIP3    H133441   0.141   5.153  17.194 -1.9310  0.2425  0.8197
 3082TIP3    H233442   0.116   5.133  17.342  0.5614 -0.9743  1.1331
 3083TIP3   OH233443   5.328   0.310  19.013  0.1784 -0.7201 -0.1042
 3083TIP3    H133444   5.405   0.297  18.958  0.1270 -0.3150 -0.2741
 3083TIP3    H233445   5.278   0.229  19.002 -0.3997 -0.2063 -1.5685
 3084TIP3   OH233446   0.730   5.269  17.843  0.0192  0.1969 -0.0198
 3084TIP3    H133447   0.699   5.319  17.919  0.8878  0.8374 -0.0606
 3084TIP3    H233448   0.714   5.327  17.768  0.7331  0.2871 -0.1100
 3085TIP3   OH233449   5.775   3.159  18.936  0.3076 -0.1172 -0.1413
 3085TIP3    H133450   5.730   3.109  19.004 -0.9062  1.9520  0.6639
 3085TIP3    H233451   5.865   3.126  18.938 -0.1024 -1.2664  1.2973
 3086TIP3   OH233452   5.727   5.609  18.577  0.4506 -0.3048  0.2226
 3086TIP3    H133453   5.729   5.653  18.662  1.3554 -1.6940  0.9620
 3086TIP3    H233454   5.816   5.616  18.544  0.2345 -0.2570 -0.3642
 3087TIP3   OH233455   4.781   0.392  19.062 -0.0100  0.0095  0.0363
 3087TIP3    H133456   4.784   0.303  19.097  2.0006  0.3426  0.8482
 3087TIP3    H233457   4.866   0.429  19.084 -1.2096  2.5553  0.7868
 3088TIP3   OH233458   2.872   6.607  17.368 -0.0147 -0.2363  0.4814
 3088TIP3    H133459   2.890   6.552  17.292  0.6328  3.3677 -2.3009
 3088TIP3    H233460   2.940   6.586  17.431  0.3223 -2.3353 -0.5233
 3089TIP3   OH233461   3.068   0.691  18.433  0.6974 -0.3771 -0.8452
 3089TIP3    H133462   3.070   0.782  18.404  0.0931 -0.3391 -0.7837
 3089TIP3    H233463   3.106   0.641  18.361  0.6347 -0.1221 -1.0546
 3090TIP3   OH233464   6.168   2.995  18.705  0.3095  0.3944  0.0516
 3090TIP3    H133465   6.167   2.902  18.725  1.6679  0.1675 -0.7750
 3090TIP3    H233466   6.167   2.999  18.609  2.3533  1.1228  0.0039
 3091TIP3   OH233467   7.252   2.631  18.690 -0.2026 -0.2583  0.3947
 3091TIP3    H133468   7.225   2.561  18.630 -1.5766  0.3084  0.3444
 3091TIP3    H233469   7.198   2.618  18.767  1.5069 -0.9420  1.5438
 3092TIP3   OH233470   0.295   2.257  19.242 -0.0655 -0.1718 -0.0060
 3092TIP3    H133471   0.369   2.196  19.249  0.3599  0.2485 -0.7483
 3092TIP3    H233472   0.221   2.202  19.217 -0.1866 -0.7073  1.3902
 3093TIP3   OH233473   6.279   4.567  17.919 -0.0208  0.2006  0.3577
 3093TIP3    H133474   6.214   4.620  17.966 -0.8306 -1.1739  0.8346
 3093TIP3    H233475   6.243   4.558  17.831  0.5544  1.1593  0.0111
 3094TIP3   OH233476   6.399   4.314  16.902 -0.2656 -0.3508  0.1067
 3094TIP3    H133477   6.471   4.373  16.882  0.4163 -1.3958 -0.6262
 3094TIP3    H233478   6.359   4.351  16.981  1.5339 -0.1464  0.9727
 3095TIP3   OH233479   6.734   7.395  18.806 -0.4936 -0.8127 -0.2852
 3095TIP3    H133480   6.775   7.358  18.728  1.6419  1.0243 -0.1487
 3095TIP3    H233481   6.806   7.407  18.868 -1.0010  3.0502 -0.2013
 3096TIP3   OH233482   5.971   7.410  18.806 -0.0260 -0.0359  0.4836
 3096TIP3    H133483   6.024   7.400  18.727 -1.2503 -1.8648 -0.1811
 3096TIP3    H233484   5.998   7.337  18.862 -0.9954 -0.3111  0.6177
 3097TIP3   OH233485   4.473   3.404  18.236 -0.4238 -0.0797 -0.1175
 3097TIP3    H133486   4.404   3.420  18.300  0.3179  1.2769  0.3888
 3097TIP3    H233487   4.489   3.310  18.241 -2.4475 -0.4995 -0.4986
 3098TIP3   OH233488   6.298   6.390  18.155 -0.2785 -0.1135 -0.1584
 3098TIP3    H133489   6.233   6.322  18.138 -1.3967  1.0465 -0.6459
 3098TIP3    H233490   6.292   6.405  18.249 -0.6432 -0.0851 -0.1845
 3099TIP3   OH233491   7.608   7.440  18.003 -0.4340 -0.1739 -0.8765
 3099TIP3    H133492   7.600   7.363  18.059 -1.2093  0.5594  0.0386
 3099TIP3    H233493   7.568   7.413  17.920 -1.0617 -0.6320 -0.4348
 3100TIP3   OH233494   1.098   6.944  17.549  0.2323  0.4684  0.1861
 3100TIP3    H133495   1.061   6.981  17.629 -0.5640  2.5676 -1.0812
 3100TIP3    H233496   1.091   7.014  17.484 -0.4387 -1.5705 -2.1122
 3101TIP3   OH233497   4.616   4.099  18.784  0.7799 -0.1547  0.2065
 3101TIP3    H133498   4.670   4.171  18.814 -0.5730  1.3872 -0.8573
 3101TIP3    H233499   4.658   4.020  18.819  2.1864  1.1479  1.5704
 3102TIP3   OH233500   6.019   5.925  19.454  0.0775  0.0995 -0.6429
 3102TIP3    H133501   6.063   5.843  19.430  0.2592 -0.2120  0.6915
 3102TIP3    H233502   5.929   5.900  19.471  0.2690  0.0606  0.3503
 3103TIP3   OH233503   3.591   7.245  18.102  0.2926 -0.1536  0.0162
 3103TIP3    H133504   3.651   7.181  18.065 -0.3575 -0.6302 -0.2374
 3103TIP3    H233505   3.505   7.221  18.067  0.2716  1.9660 -1.6288
 3104TIP3   OH233506   6.342   6.731  16.911 -0.2450  0.7192  0.2852
 3104TIP3    H133507   6.299   6.646  16.912  0.4516  0.3327 -0.8820
 3104TIP3    H233508   6.416   6.721  16.971  0.4917  0.1285 -0.6984
 3105TIP3   OH233509   0.841   3.505  17.249 -0.5506  0.2471 -0.1044
 3105TIP3    H133510   0.754   3.497  17.288  0.1616 -1.2292  1.2555
 3105TIP3    H233511   0.850   3.427  17.194  0.6652 -0.6749  1.3524
 3106TIP3   OH233512   2.046   5.179  17.550 -0.1112 -0.0788 -0.2534
 3106TIP3    H133513   1.976   5.177  17.484 -0.7555  1.4428  0.3407
 3106TIP3    H233514   2.106   5.109  17.523 -1.1525 -0.5212 -1.5554
 3107TIP3   OH233515   1.664   0.167  16.867  0.1725 -0.5687 -0.1150
 3107TIP3    H133516   1.600   0.219  16.819 -0.8847 -0.2734  1.5221
 3107TIP3    H233517   1.745   0.177  16.818 -0.6252  0.4744 -1.2862
 3108TIP3   OH233518   5.904   3.596  18.425 -0.0082 -0.2382  0.1215
 3108TIP3    H133519   5.883   3.684  18.396  1.7156 -0.3963 -1.8954
 3108TIP3    H233520   5.999   3.598  18.443 -0.0895 -1.4806  0.8686
 3109TIP3   OH233521   6.975   4.621  16.692 -0.2089  0.0339 -0.7512
 3109TIP3    H133522   6.959   4.539  16.738 -1.0392  1.1436  1.0460
 3109TIP3    H233523   6.891   4.644  16.653 -0.5054  0.9855  0.4093
 3110TIP3   OH233524   0.463   6.527  17.360 -0.4621 -0.0021 -0.4896
 3110TIP3    H133525   0.501   6.508  17.274 -0.0669  0.3251 -0.3931
 3110TIP3    H233526   0.488   6.618  17.377  0.2668 -0.3444  0.3775
 3111TIP3   OH233527   3.786   2.854  19.623  0.8265 -0.3186 -0.0222
 3111TIP3    H133528   3.720   2.916  19.596  0.0377 -0.1885  2.0151
 3111TIP3    H233529   3.765   2.773  19.576 -1.5382 -0.6235  1.4160
 3112TIP3   OH233530   3.189   3.946  18.063 -0.4471 -0.0556 -0.4323
 3112TIP3    H133531   3.187   3.862  18.017 -1.3081 -0.7332  0.7768
 3112TIP3    H233532   3.224   3.924  18.150 -0.2356  0.9187 -0.2676
 3113TIP3   OH233533   3.152   3.374  17.477  0.3345 -0.3371  0.2976
 3113TIP3    H133534   3.199   3.447  17.438 -0.5602  0.5203  0.7771
 3113TIP3    H233535   3.220   3.313  17.504  0.9962 -0.8719 -2.3367
 3114TIP3   OH233536   2.170   1.747  18.502  0.3244  0.2145  0.0318
 3114TIP3    H133537   2.242   1.690  18.476 -0.5966 -0.4247 -1.2266
 3114TIP3    H233538   2.137   1.784  18.420 -0.3981  0.9690  0.6395
 3115TIP3   OH233539   6.240   6.217  17.578 -0.4009 -0.9757 -0.2257
 3115TIP3    H133540   6.195   6.195  17.660 -3.1370  0.5547 -1.1583
 3115TIP3    H233541   6.207   6.153  17.515 -1.9867  0.5576 -1.0725
 3116TIP3   OH233542   0.865   4.500  18.854  0.2769 -0.3526 -0.0459
 3116TIP3    H133543   0.954   4.468  18.841 -0.0428 -1.2111 -0.1862
 3116TIP3    H233544   0.874   4.577  18.910  1.2983  0.7822 -1.6985
 3117TIP3   OH233545   5.469   5.741  17.739  0.1013  0.0048  0.0593
 3117TIP3    H133546   5.454   5.830  17.772 -0.1620  0.2201 -0.6215
 3117TIP3    H233547   5.468   5.686  17.817  0.7583  0.6584  0.5389
 3118TIP3   OH233548   5.868   5.828  18.310  0.5997  0.3362  0.1262
 3118TIP3    H133549   5.894   5.738  18.288 -0.3633  0.0436  0.1081
 3118TIP3    H233550   5.897   5.840  18.400 -1.3806 -0.8845  1.0026
 3119TIP3   OH233551   5.133   0.862  19.707  0.3669  0.2041 -0.4124
 3119TIP3    H133552   5.192   0.855  19.781 -0.8058 -0.8191  0.4644
 3119TIP3    H233553   5.070   0.930  19.733  0.4350  0.4214 -0.8099
 3120TIP3   OH233554   5.149   0.398  17.731 -0.0881  0.3945  0.2263
 3120TIP3    H133555   5.215   0.460  17.761 -0.4968  0.8966  0.0853
 3120TIP3    H233556   5.195   0.345  17.665  0.1348  0.8381  0.0179
 3121TIP3   OH233557   6.431   4.307  18.328 -0.1868 -0.1968  0.3615
 3121TIP3    H133558   6.520   4.324  18.297  0.3919 -0.8242  1.5959
 3121TIP3    H233559   6.374   4.340  18.259  0.9541  2.0645  0.4272
 3122TIP3   OH233560   1.845   3.978  19.166  0.1932 -0.5523 -0.4652
 3122TIP3    H133561   1.784   4.017  19.103  1.0454  0.3585 -0.7560
 3122TIP3    H233562   1.910   4.046  19.181 -0.6717 -0.2343  2.4287
 3123TIP3   OH233563   1.212   2.992  18.062  0.0160  0.3346 -0.0286
 3123TIP3    H133564   1.290   2.938  18.077  0.6337  1.0042 -0.7536
 3123TIP3    H233565   1.227   3.031  17.976 -1.4187 -0.0257 -0.4612
 3124TIP3   OH233566   5.633   7.425  16.816 -0.2108  0.1735  0.5930
 3124TIP3    H133567   5.566   7.485  16.847 -0.1955  0.3530  0.2881
 3124TIP3    H233568   5.595   7.338  16.826 -0.4432  0.2677  0.5269
 3125TIP3   OH233569   3.460   7.525  17.495  0.3977 -0.2534  0.1066
 3125TIP3    H133570   3.494   7.597  17.549  1.7836  0.1138 -1.2077
 3125TIP3    H233571   3.437   7.567  17.412 -0.0338 -1.1199 -0.2165
 3126TIP3   OH233572   0.965   4.022  19.328 -0.5043  0.2065  0.7045
 3126TIP3    H133573   0.965   4.065  19.414 -2.2880  0.5941  0.5501
 3126TIP3    H233574   0.884   4.052  19.287 -0.4935 -1.2765 -0.4644
 3127TIP3   OH233575   2.103   4.266  17.707 -0.6803  0.4528 -0.6286
 3127TIP3    H133576   2.068   4.267  17.796 -0.5013  0.0856 -0.5501
 3127TIP3    H233577   2.030   4.237  17.653 -0.8606  0.9139 -0.6369
 3128TIP3   OH233578   4.288   5.739  17.525 -0.3952  0.4808  0.3227
 3128TIP3    H133579   4.215   5.690  17.562 -1.2219  2.1387  0.9811
 3128TIP3    H233580   4.257   5.829  17.520  1.8669  1.3969  1.3279
 3129TIP3   OH233581   1.641   5.587  18.892  0.2823  0.4509 -0.1591
 3129TIP3    H133582   1.554   5.626  18.879 -0.5789 -1.3657 -0.2190
 3129TIP3    H233583   1.634   5.543  18.977  1.6223  1.4235  0.4835
 3130TIP3   OH233584   5.593   1.184  19.161 -0.3685 -0.4671 -0.0879
 3130TIP3    H133585   5.566   1.182  19.069 -1.9108  3.8470  0.0266
 3130TIP3    H233586   5.527   1.131  19.206 -0.9094 -0.8254 -1.2440
 3131TIP3   OH233587   3.912   0.873  19.491  0.0776 -0.4835  0.2154
 3131TIP3    H133588   3.832   0.915  19.460  0.3667 -1.6856 -2.5240
 3131TIP3    H233589   3.966   0.945  19.522 -0.4534  0.9193 -1.8425
 3132TIP3   OH233590   4.430   3.595  17.244 -0.0340  0.4239  0.4802
 3132TIP3    H133591   4.403   3.667  17.188  1.1140 -0.7301 -1.6740
 3132TIP3    H233592   4.506   3.628  17.292 -0.8318  1.3169  1.1566
 3133TIP3   OH233593   1.592   3.891  18.624  0.1512 -0.3219 -0.1555
 3133TIP3    H133594   1.516   3.914  18.570  0.2775  0.3369 -0.0691
 3133TIP3    H233595   1.637   3.975  18.637  0.4029 -0.5623  0.5424
 3134TIP3   OH233596   4.082   4.694  17.366  0.0695 -0.4702 -0.0827
 3134TIP3    H133597   4.090   4.744  17.285 -0.5207 -1.2754 -0.6601
 3134TIP3    H233598   4.026   4.748  17.422 -1.0437 -0.7255 -0.9154
 3135TIP3   OH233599   6.306   6.412  17.391  0.4173 -0.3908  0.2376
 3135TIP3    H133600   6.272   6.358  17.462 -0.5147 -0.3892 -0.1946
 3135TIP3    H233601   6.327   6.350  17.322  0.3241 -0.2971  0.1242
 3136TIP3   OH233602   5.694   6.557  17.938 -0.6168 -0.1413  0.0852
 3136TIP3    H133603   5.735   6.633  17.978  1.7428 -1.0406 -0.4382
 3136TIP3    H233604   5.637   6.593  17.870  0.4927  1.1885 -0.1894
 3137TIP3   OH233605   7.630   7.100  18.459  0.1464  0.2832 -0.3452
 3137TIP3    H133606   7.603   7.070  18.372 -0.0614  0.9730 -0.5267
 3137TIP3    H233607   7.588   7.185  18.469  1.4888  0.9578 -0.2321
 3138TIP3   OH233608   7.623   4.510  18.943  0.3579  0.5071 -0.0126
 3138TIP3    H133609   7.713   4.515  18.975  0.2743 -0.4203  0.3949
 3138TIP3    H233610   7.593   4.423  18.970 -0.2321  0.3066 -1.2581
 3139TIP3   OH233611   6.082   6.828  17.866 -0.3902 -0.2293  0.0827
 3139TIP3    H133612   6.148   6.797  17.805  0.9754  0.5505  1.1021
 3139TIP3    H233613   6.040   6.902  17.822  1.3111  1.0112  0.4520
 3140TIP3   OH233614   7.629   4.119  18.136 -0.8073 -0.1707  0.1122
 3140TIP3    H133615   7.677   4.202  18.133  0.5005 -0.8419  1.4391
 3140TIP3    H233616   7.628   4.089  18.045  0.8209  0.1433 -0.0380
 3141TIP3   OH233617   2.285   5.786  19.112  0.0135  0.3792 -0.4826
 3141TIP3    H133618   2.197   5.822  19.119 -0.0301  0.2270 -0.2512
 3141TIP3    H233619   2.278   5.715  19.049 -0.5167 -1.1619  1.2600
 3142TIP3   OH233620   1.960   7.362  17.656 -0.1619 -0.3592  0.4841
 3142TIP3    H133621   2.026   7.431  17.656  1.0881 -1.4470 -1.7172
 3142TIP3    H233622   1.982   7.308  17.733 -0.3768  0.9396  1.4918
 3143TIP3   OH233623   5.927   5.969  17.295 -0.7114  0.0472  0.0490
 3143TIP3    H133624   5.947   6.018  17.374 -0.8380  1.1490 -0.5855
 3143TIP3    H233625   5.868   6.026  17.246  0.7582  0.1866 -1.6655
 3144TIP3   OH233626   4.012   0.923  18.084  0.1761  0.2709 -0.0536
 3144TIP3    H133627   4.082   0.924  18.149 -0.4014 -0.7350  0.6069
 3144TIP3    H233628   4.055   0.944  18.002  1.0708  0.6814  0.5027
 3145TIP3   OH233629   4.836   4.502  18.387 -0.2454 -0.1384  0.4684
 3145TIP3    H133630   4.794   4.426  18.428  0.2545  0.2899  1.8229
 3145TIP3    H233631   4.764   4.549  18.345 -0.4761 -1.6982 -0.9910
 3146TIP3   OH233632   3.133   4.709  18.372 -0.0672  0.3546 -0.3315
 3146TIP3    H133633   3.173   4.627  18.402 -0.0023  0.1602 -0.9310
 3146TIP3    H233634   3.047   4.711  18.414  1.1068  1.5121  2.2055
 3147TIP3   OH233635   5.292   0.576  18.202 -0.2856  0.2461 -0.1519
 3147TIP3    H133636   5.285   0.576  18.297  1.8163  1.8300  0.0788
 3147TIP3    H233637   5.208   0.610  18.171 -1.4072 -1.2915  1.0157
 3148TIP3   OH233638   4.746   2.486  17.316  0.1120 -0.8285 -0.0553
 3148TIP3    H133639   4.657   2.454  17.328 -0.1212 -0.0497  0.4160
 3148TIP3    H233640   4.802   2.417  17.351 -0.1643 -2.2745 -2.2289
 3149TIP3   OH233641   0.834   6.940  17.338  0.1889 -0.5196  0.0821
 3149TIP3    H133642   0.829   6.997  17.415 -0.1286 -0.9418  0.3844
 3149TIP3    H233643   0.742   6.929  17.311  0.3924  0.7428 -1.1992
 3150TIP3   OH233644   3.731   4.699  17.382  0.4380  0.5285  0.0883
 3150TIP3    H133645   3.760   4.747  17.304  0.0810  0.3293 -0.1716
 3150TIP3    H233646   3.750   4.757  17.455 -0.6789  1.3982 -0.2792
 3151TIP3   OH233647   2.651   7.269  19.347  0.2199  0.5613  0.0368
 3151TIP3    H133648   2.687   7.181  19.360 -0.4235  0.4631  1.2378
 3151TIP3    H233649   2.718   7.327  19.384  1.0596  0.6610 -1.5594
 3152TIP3   OH233650   6.063   0.652  17.387  0.7698 -0.0253 -0.0882
 3152TIP3    H133651   6.124   0.627  17.317  1.0421  0.7902 -0.1528
 3152TIP3    H233652   6.060   0.747  17.383 -2.4674 -0.0565 -1.7437
 3153TIP3   OH233653   1.088   5.253  18.431  0.2368 -0.0802  0.1743
 3153TIP3    H133654   1.136   5.184  18.478 -0.8153 -0.6174  0.5033
 3153TIP3    H233655   1.111   5.334  18.477 -0.0737 -0.4803  1.0672
 3154TIP3   OH233656   4.572   0.533  18.152  0.1188 -0.2359  0.4533
 3154TIP3    H133657   4.562   0.621  18.115  0.0123  0.4341  2.0108
 3154TIP3    H233658   4.627   0.545  18.230  0.3158 -1.5948  0.5500
 3155TIP3   OH233659   7.105   4.636  16.952  0.6856 -0.2370 -0.4717
 3155TIP3    H133660   7.119   4.724  16.989 -0.8218 -0.1547 -0.0201
 3155TIP3    H233661   7.075   4.653  16.862  2.2351 -0.3795 -1.0579
 3156TIP3   OH233662   3.493   3.793  17.336 -0.0681  0.1646  0.4656
 3156TIP3    H133663   3.537   3.846  17.402  2.0720 -0.6374 -0.2289
 3156TIP3    H233664   3.475   3.854  17.264  1.6676  0.1876 -0.0046
 3157TIP3   OH233665   0.214   2.900  17.503 -0.2861  0.2670  0.6049
 3157TIP3    H133666   0.127   2.940  17.491 -0.5849 -0.8534 -1.4717
 3157TIP3    H233667   0.264   2.929  17.426  0.3258 -1.1835  0.4386
 3158TIP3   OH233668   1.714   3.702  18.880  0.1239  0.0906 -0.0028
 3158TIP3    H133669   1.788   3.751  18.845 -0.0749  1.4745  1.3905
 3158TIP3    H233670   1.720   3.714  18.975 -0.5544 -1.7471  0.3183
 3159TIP3   OH233671   4.247   5.941  17.233 -0.3365 -0.3104  0.1986
 3159TIP3    H133672   4.313   5.882  17.268  0.4312 -0.2086 -1.0537
 3159TIP3    H233673   4.284   6.029  17.246 -0.6794 -0.1951  0.4192
 3160TIP3   OH233674   6.971   4.275  18.770 -0.0313 -0.1166  0.0339
 3160TIP3    H133675   7.001   4.300  18.857  1.2981 -1.0792 -0.1213
 3160TIP3    H233676   6.945   4.183  18.779  0.5074 -0.3457 -0.6562
 3161TIP3   OH233677   1.873   2.198  17.761  0.4829  0.0778 -0.2494
 3161TIP3    H133678   1.930   2.145  17.816  1.6210  2.1234  0.6362
 3161TIP3    H233679   1.787   2.190  17.801  0.9701  0.2036  0.8700
 3162TIP3   OH233680   6.323   7.285  19.187 -0.2931  0.6356  0.2516
 3162TIP3    H133681   6.284   7.221  19.127 -0.2688 -1.0135  1.8957
 3162TIP3    H233682   6.259   7.295  19.257  1.0964 -0.2076  1.7310
 3163TIP3   OH233683   5.507   0.108  16.854 -0.1569  0.0628 -0.4124
 3163TIP3    H133684   5.546   0.094  16.768 -0.2693  0.0487 -0.4613
 3163TIP3    H233685   5.473   0.022  16.879 -0.4807  0.1529 -0.5321
 3164TIP3   OH233686   1.018   7.418  19.383 -0.3955 -0.9391  0.5989
 3164TIP3    H133687   0.946   7.479  19.396 -0.3673 -0.6876 -0.3625
 3164TIP3    H233688   1.095   7.474  19.372 -0.2084 -1.1766  0.6859
 3165TIP3   OH233689   2.916   0.968  18.114  0.0839  0.4203 -0.1341
 3165TIP3    H133690   2.933   0.993  18.023  0.1004 -0.4641 -0.3857
 3165TIP3    H233691   2.872   0.883  18.107  0.5953  0.0815  0.7031
 3166TIP3   OH233692   6.805   2.320  19.366 -0.5389  0.0473 -0.1980
 3166TIP3    H133693   6.829   2.229  19.347 -0.6543  0.2077 -1.1653
 3166TIP3    H233694   6.738   2.341  19.302 -0.0718  1.0114 -0.3950
 3167TIP3   OH233695   5.545   2.445  18.497 -0.1830 -0.1283 -0.3836
 3167TIP3    H133696   5.449   2.453  18.501 -0.4050 -2.1698 -0.5469
 3167TIP3    H233697   5.560   2.357  18.463  1.7465 -1.3284  3.1352
 3168TIP3   OH233698   2.263   3.991  19.020 -0.3978  0.2082  0.6031
 3168TIP3    H133699   2.239   3.944  19.100 -0.6249 -2.3101 -0.8220
 3168TIP3    H233700   2.355   4.014  19.034 -0.8752  1.3525  2.2219
 3169TIP3   OH233701   3.397   1.187  18.486  0.8848  0.1689  0.6336
 3169TIP3    H133702   3.451   1.264  18.467 -1.0598  1.1013 -1.5470
 3169TIP3    H233703   3.308   1.222  18.497 -0.0230 -1.7395 -0.2339
 3170TIP3   OH233704   1.937   7.411  18.558  0.0117 -0.7571  0.7197
 3170TIP3    H133705   1.967   7.484  18.612  0.9175 -1.5399  1.2949
 3170TIP3    H233706   1.876   7.451  18.496  1.8723  0.8069 -0.2028
 3171TIP3   OH233707   7.678   1.744  19.127 -0.1531 -0.0842 -0.5212
 3171TIP3    H133708   7.638   1.719  19.044  0.7856 -1.7025 -0.5090
 3171TIP3    H233709   7.647   1.679  19.190  0.9162 -0.1995 -0.0870
 3172TIP3   OH233710   3.583   2.964  18.657  0.0319  0.1271 -0.1309
 3172TIP3    H133711   3.657   2.904  18.652  0.1334  0.2279  0.1747
 3172TIP3    H233712   3.613   3.035  18.713 -0.2152  0.2844 -0.1970
 3173TIP3   OH233713   1.701   5.796  19.374 -0.0775  0.4171  0.0616
 3173TIP3    H133714   1.668   5.828  19.290 -2.5730 -0.1847  0.7201
 3173TIP3    H233715   1.661   5.854  19.439 -0.8246 -1.0531  0.9746
 3174TIP3   OH233716   4.234   1.478  17.627 -0.4762  0.1114  0.0057
 3174TIP3    H133717   4.251   1.524  17.710 -2.0258  1.0812 -0.1931
 3174TIP3    H233718   4.290   1.522  17.563  0.2655 -0.2430  0.3939
 3175TIP3   OH233719   2.787   0.145  19.083  0.1126 -0.2603  0.1593
 3175TIP3    H133720   2.737   0.223  19.109  0.3599  0.3832 -1.1999
 3175TIP3    H233721   2.833   0.172  19.003  1.4243 -1.3218  0.5191
 3176TIP3   OH233722   3.549   1.600  17.888  0.1197 -0.1354 -0.5112
 3176TIP3    H133723   3.607   1.532  17.852 -0.4923  0.1620 -2.1414
 3176TIP3    H233724   3.609   1.661  17.932  0.7938 -1.0600 -0.1016
 3177TIP3   OH233725   1.949   0.639  17.317  0.3368 -0.0523 -0.0754
 3177TIP3    H133726   1.917   0.550  17.327  0.2240  0.1634  1.8338
 3177TIP3    H233727   1.878   0.685  17.271 -1.3340 -0.0806  2.2813
 3178TIP3   OH233728   2.694   6.431  16.732 -0.5255 -0.1728  0.7722
 3178TIP3    H133729   2.628   6.413  16.800  0.9358  0.1469  2.3525
 3178TIP3    H233730   2.645   6.471  16.661 -1.9220  0.8979  2.2558
 3179TIP3   OH233731   1.285   1.999  17.471 -0.1634 -0.4660  0.5199
 3179TIP3    H133732   1.194   2.014  17.497 -0.0542 -1.4937  1.6074
 3179TIP3    H233733   1.333   1.997  17.553  0.8801  0.2017 -0.0590
 3180TIP3   OH233734   2.386   1.507  18.645  0.2779  0.6696  0.1495
 3180TIP3    H133735   2.381   1.525  18.551  1.2181 -1.1032 -0.3107
 3180TIP3    H233736   2.297   1.484  18.671  0.5389 -2.5307 -1.2527
 3181TIP3   OH233737   0.457   2.604  17.900 -0.0479  0.1306  0.7064
 3181TIP3    H133738   0.483   2.513  17.913  5.5758  1.6184  2.8633
 3181TIP3    H233739   0.433   2.634  17.988 -1.6524  0.8313  0.0571
 3182TIP3   OH233740   4.358   7.583  18.581 -0.1293  0.5726  0.1693
 3182TIP3    H133741   4.286   7.563  18.522  0.6294 -1.7420 -0.0560
 3182TIP3    H233742   4.332   7.665  18.624 -1.5833  1.2690 -1.9110
 3183TIP3   OH233743   4.546   2.665  18.850 -0.0007 -0.2532 -0.2203
 3183TIP3    H133744   4.638   2.642  18.865 -0.0876 -0.9130 -0.6173
 3183TIP3    H233745   4.539   2.757  18.875  0.7640 -0.2032 -0.1736
 3184TIP3   OH233746   2.682   3.756  17.906  0.2413 -0.2198 -0.2745
 3184TIP3    H133747   2.717   3.725  17.990 -0.9216  0.5448  0.5227
 3184TIP3    H233748   2.738   3.830  17.882 -0.6201  0.8439  0.8708
 3185TIP3   OH233749   0.494   1.601  17.277  0.0453  0.3463  0.0792
 3185TIP3    H133750   0.424   1.558  17.229  0.1944 -0.5171  0.6189
 3185TIP3    H233751   0.569   1.542  17.268 -0.2992 -0.5497  2.5154
 3186TIP3   OH233752   2.495   4.920  18.574  0.1151  0.4401  0.2778
 3186TIP3    H133753   2.528   4.922  18.484  1.3536  2.4425  0.7239
 3186TIP3    H233754   2.476   4.827  18.590 -0.0292  0.0235 -1.9852
 3187TIP3   OH233755   3.072   4.850  19.259 -0.0893  0.6330 -0.1254
 3187TIP3    H133756   3.124   4.905  19.199  0.3652 -0.1183 -0.4323
 3187TIP3    H233757   3.138   4.803  19.310 -0.4658  1.7663  1.4507
 3188TIP3   OH233758   4.545   2.114  17.344  0.4828 -0.1088  0.1030
 3188TIP3    H133759   4.500   2.196  17.325  0.5933 -0.2865 -0.9848
 3188TIP3    H233760   4.496   2.047  17.296 -0.1823 -0.8532  1.7299
 3189TIP3   OH233761   6.625   1.234  19.349 -0.0204  0.6244 -0.2350
 3189TIP3    H133762   6.553   1.288  19.317 -1.5363 -0.6247  0.8947
 3189TIP3    H233763   6.603   1.216  19.440  0.7243 -1.3697 -0.4022
 3190TIP3   OH233764   2.807   3.850  17.538  0.1174 -0.9072 -0.3653
 3190TIP3    H133765   2.879   3.801  17.579  1.1905  0.3323 -0.6845
 3190TIP3    H233766   2.795   3.808  17.453  2.6537  0.7067 -1.6554
 3191TIP3   OH233767   6.091   0.736  18.537  0.0161 -0.5505 -0.1500
 3191TIP3    H133768   6.092   0.763  18.445 -0.7388  0.8259  0.2245
 3191TIP3    H233769   6.129   0.809  18.585 -1.2378 -0.4876  0.8020
 3192TIP3   OH233770   5.260   3.703  18.256 -0.1499  0.0663  0.5015
 3192TIP3    H133771   5.349   3.675  18.276  0.4470  2.1906  1.1311
 3192TIP3    H233772   5.231   3.645  18.186  1.7964 -0.5275  0.1350
 3193TIP3   OH233773   3.181   5.104  17.203 -0.2220 -0.0367  0.5389
 3193TIP3    H133774   3.157   5.187  17.243 -1.4886 -0.7374  1.2854
 3193TIP3    H233775   3.098   5.060  17.186  0.4103 -1.0151 -0.1606
 3194TIP3   OH233776   2.753   7.409  17.800  0.4677 -0.0867  0.1392
 3194TIP3    H133777   2.726   7.496  17.770  1.0069 -0.2467 -0.8707
 3194TIP3    H233778   2.716   7.401  17.888  0.2767  1.0992  0.1834
 3195TIP3   OH233779   7.143   3.080  18.428 -0.2623  0.8978 -0.0955
 3195TIP3    H133780   7.063   3.079  18.375  0.1287  0.2610 -0.6883
 3195TIP3    H233781   7.113   3.103  18.516 -1.1792  0.1465 -0.1902
 3196TIP3   OH233782   7.014   5.650  17.574  0.1046  0.3350  0.1996
 3196TIP3    H133783   7.094   5.672  17.526 -0.3051 -0.7729 -1.0746
 3196TIP3    H233784   7.025   5.690  17.660  1.7855  0.6537 -0.1327
 3197TIP3   OH233785   1.995   2.322  16.845 -0.6503 -0.2585  0.4763
 3197TIP3    H133786   1.916   2.375  16.845  0.2899  1.2231 -0.9041
 3197TIP3    H233787   1.982   2.259  16.774 -0.5499  0.0157  0.2190
 3198TIP3   OH233788   2.279   7.437  18.641 -0.3043 -0.0814 -0.3611
 3198TIP3    H133789   2.326   7.357  18.618  0.6971  0.8347 -1.6532
 3198TIP3    H233790   2.294   7.449  18.735 -0.1630 -1.1960 -0.2332
 3199TIP3   OH233791   3.836   1.222  19.078 -0.3588  0.6590  0.1756
 3199TIP3    H133792   3.823   1.292  19.142  0.7262  2.2506 -1.2753
 3199TIP3    H233793   3.768   1.158  19.099 -0.8095  1.6928  2.1211
 3200TIP3   OH233794   0.538   4.724  19.331 -0.1063  0.2574 -0.7028
 3200TIP3    H133795   0.547   4.796  19.394 -0.7065  0.3424 -0.7088
 3200TIP3    H233796   0.458   4.679  19.357  1.2506 -1.5913  0.4738
 3201TIP3   OH233797   0.192   3.681  17.456  0.0135  0.2173 -0.0596
 3201TIP3    H133798   0.286   3.665  17.452  0.0829 -0.4685  2.4675
 3201TIP3    H233799   0.182   3.752  17.518 -1.1389  0.3280 -0.3483
 3202TIP3   OH233800   1.033   5.148  17.932 -0.1462  0.4858 -0.4809
 3202TIP3    H133801   1.123   5.128  17.907  0.2082  2.2875 -0.7194
 3202TIP3    H233802   0.979   5.101  17.868  0.6721  1.4410 -1.9068
 3203TIP3   OH233803   3.683   3.093  17.844  0.2294 -0.5861 -0.2234
 3203TIP3    H133804   3.598   3.130  17.868  0.5627  0.6585 -0.8801
 3203TIP3    H233805   3.675   3.071  17.751  0.5502 -0.6515 -0.2374
 3204TIP3   OH233806   1.206   3.081  18.626 -0.3644 -0.4880  0.0103
 3204TIP3    H133807   1.136   3.033  18.670 -0.1470 -2.2048 -1.4113
 3204TIP3    H233808   1.196   3.059  18.533  1.1948  0.3746 -0.4018
 3205TIP3   OH233809   7.423   1.051  17.306  0.3171  0.4644  0.1069
 3205TIP3    H133810   7.423   0.975  17.247  0.4235  0.5287  0.0241
 3205TIP3    H233811   7.369   1.023  17.380 -0.1408  0.5275 -0.2058
 3206TIP3   OH233812   1.848   2.237  19.319 -0.0823 -0.2178  0.1081
 3206TIP3    H133813   1.864   2.281  19.402  0.5379  1.0698 -0.6459
 3206TIP3    H233814   1.753   2.243  19.306 -0.1486 -0.2002  0.5996
 3207TIP3   OH233815   7.193   5.253  19.497  0.2578 -0.0920  0.4886
 3207TIP3    H133816   7.205   5.158  19.499 -1.1278 -0.2853  0.8028
 3207TIP3    H233817   7.272   5.287  19.455 -0.5143 -1.6393 -2.4913
 3208TIP3   OH233818   3.950   1.778  19.054  0.0620  0.0006 -0.3787
 3208TIP3    H133819   3.888   1.844  19.024 -0.1334 -0.1094 -0.2278
 3208TIP3    H233820   3.952   1.789  19.149  3.7595  3.0957 -0.5878
 3209TIP3   OH233821   0.732   6.861  16.976 -0.1282  0.2015  0.2589
 3209TIP3    H133822   0.824   6.843  16.953 -0.3532 -0.2319 -0.3276
 3209TIP3    H233823   0.730   6.955  16.995  0.2972  0.3466 -0.3884
 3210TIP3   OH233824   2.443   6.748  17.105 -0.2945 -0.6787 -0.4905
 3210TIP3    H133825   2.374   6.716  17.163 -0.1304  1.3998  0.9759
 3210TIP3    H233826   2.515   6.771  17.164  0.4319  0.1676 -1.6536
 3211TIP3   OH233827   5.758   0.549  18.862  0.4484  0.5527  0.1593
 3211TIP3    H133828   5.792   0.622  18.810  1.9612 -0.6000 -0.5630
 3211TIP3    H233829   5.824   0.480  18.853 -0.6161 -0.6919  1.3350
 3212TIP3   OH233830   1.800   3.556  18.334 -0.3055  0.1089 -0.7256
 3212TIP3    H133831   1.831   3.473  18.371 -0.9667  0.7148  1.3069
 3212TIP3    H233832   1.709   3.562  18.363 -0.5285  1.1486 -1.6023
 3213TIP3   OH233833   0.721   5.790  17.706 -0.0414 -0.0515  0.3571
 3213TIP3    H133834   0.698   5.826  17.621  1.8148  0.3852  0.0022
 3213TIP3    H233835   0.637   5.768  17.746 -0.9559 -0.1646 -1.5232
 3214TIP3   OH233836   6.781   3.963  17.649  0.0103  0.2786 -0.5439
 3214TIP3    H133837   6.820   3.882  17.682  1.1226  0.3952 -1.5225
 3214TIP3    H233838   6.823   4.033  17.699  0.6284  0.3671 -1.1731
 3215TIP3   OH233839   4.739   1.775  18.679  0.0788 -0.1641  0.3436
 3215TIP3    H133840   4.654   1.809  18.649  1.1475  1.7363 -0.7251
 3215TIP3    H233841   4.722   1.744  18.768 -1.9445 -0.7591 -0.1836
 3216TIP3   OH233842   4.387   5.040  17.302  0.6174  0.4331  0.2363
 3216TIP3    H133843   4.403   4.995  17.385 -0.2682  0.3199  0.3492
 3216TIP3    H233844   4.453   5.004  17.243 -1.5168 -2.9123 -0.3718
 3217TIP3   OH233845   5.574   2.665  16.779  0.0449  0.7608 -0.0031
 3217TIP3    H133846   5.660   2.640  16.746 -0.4765 -0.9913 -0.1369
 3217TIP3    H233847   5.551   2.743  16.728  0.8706  0.3137 -1.1126
 3218TIP3   OH233848   2.102   4.654  18.784  0.1214  0.9490 -0.3179
 3218TIP3    H133849   2.091   4.734  18.835 -0.2711  0.9834 -0.4497
 3218TIP3    H233850   2.019   4.607  18.795 -0.1162  1.1287 -1.2196
 3219TIP3   OH233851   5.658   6.377  18.538  0.7690  0.4877  0.1504
 3219TIP3    H133852   5.692   6.462  18.567 -0.3547  0.9681  0.1109
 3219TIP3    H233853   5.663   6.322  18.616 -0.8604  1.3507  0.9133
 3220TIP3   OH233854   3.440   0.236  17.104  0.3683 -0.3684  0.0044
 3220TIP3    H133855   3.528   0.261  17.073 -0.7054  0.8642 -2.3173
 3220TIP3    H233856   3.425   0.149  17.068  0.3363 -0.2418 -0.2900
 3221TIP3   OH233857   3.175   0.428  18.973 -0.3420  0.3905  0.2279
 3221TIP3    H133858   3.133   0.436  19.059 -1.0719  0.2295 -0.0991
 3221TIP3    H233859   3.218   0.512  18.958 -0.4001  0.4942  0.6548
 3222TIP3   OH233860   2.899   2.269  17.452 -0.2568  0.4608  0.6000
 3222TIP3    H133861   2.908   2.272  17.357 -1.9524 -1.4604  0.2936
 3222TIP3    H233862   2.813   2.229  17.466  0.5188 -0.5617  2.9199
 3223TIP3   OH233863   1.762   1.377  17.265  0.3242  0.6191  0.4454
 3223TIP3    H133864   1.744   1.309  17.200  0.7142  1.2329 -0.3181
 3223TIP3    H233865   1.836   1.426  17.229 -0.4133  1.8973  0.6275
 3224TIP3   OH233866   0.545   3.475  19.617  0.2927  0.0855 -0.8461
 3224TIP3    H133867   0.463   3.434  19.590 -0.3404  1.2891 -0.7955
 3224TIP3    H233868   0.612   3.413  19.590 -0.6459 -1.0718 -0.5908
 3225TIP3   OH233869   7.143   5.706  19.353  0.7311 -0.0180 -0.2846
 3225TIP3    H133870   7.096   5.732  19.274  1.6453  1.1386 -0.4787
 3225TIP3    H233871   7.233   5.693  19.324  0.7747 -1.0907  0.2901
 3226TIP3   OH233872   6.543   4.512  18.584 -0.3543 -0.1425 -0.9200
 3226TIP3    H133873   6.505   4.556  18.508 -0.1478  0.0095 -0.9351
 3226TIP3    H233874   6.634   4.540  18.585  0.1459 -1.6366 -1.7217
 3227TIP3   OH233875   1.876   0.460  16.721 -0.2642  0.3148  0.2619
 3227TIP3    H133876   1.909   0.536  16.672 -0.3171 -0.2331 -0.6558
 3227TIP3    H233877   1.786   0.449  16.689 -0.4109  0.1441  0.7323
 3228TIP3   OH233878   2.395   0.100  18.385  0.3442  0.4346  0.0733
 3228TIP3    H133879   2.340   0.128  18.458 -0.1790 -1.5763  0.5034
 3228TIP3    H233880   2.460   0.041  18.425  0.6863  0.1102 -0.9224
 3229TIP3   OH233881   1.009   2.988  17.702  0.2665  0.2019  0.0566
 3229TIP3    H133882   0.969   2.999  17.615 -0.7818  1.4376  0.6530
 3229TIP3    H233883   1.082   2.928  17.687 -0.0153  0.2105 -1.6391
 3230TIP3   OH233884   6.046   4.824  17.666 -0.7429  0.2734 -0.2273
 3230TIP3    H133885   5.975   4.822  17.602 -0.7572 -0.9025 -0.1948
 3230TIP3    H233886   6.047   4.736  17.704 -1.9772  1.4150  2.7543
 3231TIP3   OH233887   4.682   5.430  18.022 -0.3509 -0.1794  0.3042
 3231TIP3    H133888   4.586   5.428  18.019 -0.3778 -1.4396  1.0268
 3231TIP3    H233889   4.707   5.338  18.028  0.9789  0.0581 -1.1821
 3232TIP3   OH233890   7.021   2.799  18.837  0.4637 -0.1546 -0.0908
 3232TIP3    H133891   6.975   2.869  18.789 -0.4782  1.2516  2.6188
 3232TIP3    H233892   7.002   2.720  18.787 -1.5284  0.9963 -1.3403
 3233TIP3   OH233893   6.944   3.441  18.809 -0.3594  0.5175  0.6864
 3233TIP3    H133894   6.933   3.490  18.728 -1.1318  1.5480  1.3906
 3233TIP3    H233895   6.914   3.352  18.788 -2.3826  1.2455  0.3523
 3234TIP3   OH233896   6.741   4.038  19.461 -0.1941 -0.2514 -0.1217
 3234TIP3    H133897   6.763   3.974  19.393  0.6751  0.3430 -0.4151
 3234TIP3    H233898   6.811   4.031  19.525 -0.8073 -0.5292  0.5302
 3235TIP3   OH233899   0.274   2.049  18.000  0.1967  0.2723 -0.3290
 3235TIP3    H133900   0.350   2.095  18.037  1.2227 -1.3272 -0.3237
 3235TIP3    H233901   0.224   2.117  17.955 -0.2952  2.0704  2.6049
 3236TIP3   OH233902   0.861   5.903  18.600  0.0535 -0.1964 -0.4246
 3236TIP3    H133903   0.838   5.811  18.584 -1.9312  0.2507 -0.4663
 3236TIP3    H233904   0.900   5.933  18.518 -2.2826 -0.1880 -1.6283
 3237TIP3   OH233905   2.216   1.607  16.908  0.0948  0.6496  0.1239
 3237TIP3    H133906   2.148   1.541  16.895  0.1414  0.9453 -2.2414
 3237TIP3    H233907   2.298   1.562  16.887  0.4923  0.6834  1.5240
 3238TIP3   OH233908   4.505   2.911  17.284 -0.0023 -0.0496  0.9311
 3238TIP3    H133909   4.554   2.959  17.216 -0.9553  0.6347  0.7165
 3238TIP3    H233910   4.432   2.871  17.237 -0.0604 -0.4642  1.3756
 3239TIP3   OH233911   6.234   3.460  17.857  0.1186 -0.0295  0.3636
 3239TIP3    H133912   6.229   3.374  17.814  0.3015  0.3749 -0.4870
 3239TIP3    H233913   6.292   3.511  17.800 -0.3031  0.7830  0.6558
 3240TIP3   OH233914   6.768   5.756  18.103 -0.2511 -0.4651  0.8017
 3240TIP3    H133915   6.700   5.787  18.164 -0.2730  0.1235  0.4851
 3240TIP3    H233916   6.797   5.835  18.058 -0.2511 -0.9030  0.0257
 3241TIP3   OH233917   5.157   1.739  19.245 -0.2158 -0.7194 -0.3192
 3241TIP3    H133918   5.183   1.803  19.312 -0.3394 -2.7664  1.8364
 3241TIP3    H233919   5.065   1.759  19.228 -0.3350 -0.4830  0.5464
 3242TIP3   OH233920   4.717   6.385  16.985  0.9887  0.0564 -0.9930
 3242TIP3    H133921   4.766   6.434  16.918  0.7437  0.2449 -1.0333
 3242TIP3    H233922   4.655   6.448  17.020  0.4270 -0.3227 -1.2915
 3243TIP3   OH233923   5.528   0.023  18.357  0.1944 -0.1632  0.1899
 3243TIP3    H133924   5.598  -0.008  18.413  0.6140  0.2917 -0.0813
 3243TIP3    H233925   5.570   0.082  18.294 -0.4663  0.3633  0.2172
 3244TIP3   OH233926   5.065   5.503  17.520 -0.2249 -0.1197  0.1420
 3244TIP3    H133927   5.022   5.585  17.494 -1.3946  0.0444  2.3270
 3244TIP3    H233928   5.142   5.532  17.569 -0.8128 -0.2854  1.1903
 3245TIP3   OH233929   7.202   0.103  19.486  0.4689  0.2054 -0.2506
 3245TIP3    H133930   7.239   0.191  19.490  2.7252 -0.7109  0.0603
 3245TIP3    H233931   7.164   0.089  19.573  0.8126  0.5754 -0.0392
 3246TIP3   OH233932   2.481   2.978  18.456 -0.0638  0.0174 -0.0243
 3246TIP3    H133933   2.530   2.914  18.406 -1.5030 -1.0397 -0.1182
 3246TIP3    H233934   2.506   2.962  18.547  0.2352 -0.1006 -0.1289
 3247TIP3   OH233935   4.630   2.698  18.297 -0.1130  0.1608 -0.1585
 3247TIP3    H133936   4.581   2.654  18.367  0.5532  0.5352  0.5637
 3247TIP3    H233937   4.695   2.633  18.269 -0.8366 -0.2405 -0.9298
 3248TIP3   OH233938   2.685   4.393  18.435 -0.2067  0.3689 -0.6210
 3248TIP3    H133939   2.594   4.401  18.465  0.0638 -0.4873  0.5185
 3248TIP3    H233940   2.696   4.299  18.419  0.9249  0.2089  0.8612
 3249TIP3   OH233941   6.961   3.405  18.275 -0.4238 -0.3397 -0.1935
 3249TIP3    H133942   6.946   3.499  18.265 -0.6564 -0.3072  0.3982
 3249TIP3    H233943   6.874   3.368  18.286 -0.2404 -0.4267  1.0960
 3250TIP3   OH233944   2.616   2.737  18.805 -0.3678  0.0472  1.0301
 3250TIP3    H133945   2.543   2.798  18.800  0.3827  0.9075 -0.2296
 3250TIP3    H233946   2.686   2.787  18.848  0.4028  0.3034 -0.4226
 3251TIP3   OH233947   0.985   3.951  17.764  0.1151 -0.3872 -0.2907
 3251TIP3    H133948   0.947   3.864  17.752  0.6648 -0.3790 -2.6404
 3251TIP3    H233949   1.079   3.938  17.751  0.9048 -0.1488  3.9312
 3252TIP3   OH233950   1.991   4.805  19.635 -0.6857  0.2947 -0.1965
 3252TIP3    H133951   1.919   4.765  19.684  0.6675 -1.3031  0.6050
 3252TIP3    H233952   2.041   4.731  19.600  0.7850  1.3144 -0.3730
 3253TIP3   OH233953   0.536   2.823  17.417 -0.0444 -0.3899  0.5619
 3253TIP3    H133954   0.537   2.891  17.484 -0.5351 -0.6497  0.8417
 3253TIP3    H233955   0.479   2.858  17.348 -1.6279 -1.1620  1.4189
 3254TIP3   OH233956   0.600   3.404  18.664  0.0243  0.2959 -0.0537
 3254TIP3    H133957   0.617   3.310  18.671  0.8902  0.5178  1.0673
 3254TIP3    H233958   0.525   3.411  18.605 -0.6543 -1.1502  0.6122
 3255TIP3   OH233959   0.037   0.169  18.906  0.2723 -0.1045  0.2367
 3255TIP3    H133960   0.094   0.091  18.908 -0.6401 -0.7898  0.1845
 3255TIP3    H233961  -0.052   0.133  18.901 -0.2520  0.9175  1.6190
 3256TIP3   OH233962   5.458   7.456  19.139 -0.0737 -0.2982  0.0314
 3256TIP3    H133963   5.506   7.468  19.221  2.2914  0.2188 -1.3198
 3256TIP3    H233964   5.460   7.542  19.097  2.2879 -1.3303 -2.2740
 3257TIP3   OH233965   6.639   1.891  17.642 -0.1818  0.2965  0.2487
 3257TIP3    H133966   6.587   1.813  17.622 -0.0369  0.3675 -0.4246
 3257TIP3    H233967   6.639   1.942  17.561  0.9921  0.2656  0.2096
 3258TIP3   OH233968   3.377   0.014  16.952 -0.0695  0.0758  0.3685
 3258TIP3    H133969   3.405  -0.077  16.961  1.3808  0.4205 -0.4071
 3258TIP3    H233970   3.361   0.026  16.859 -0.8189  0.4814  0.5356
 3259TIP3   OH233971   0.151   1.043  17.410  0.4693  0.0483  0.6931
 3259TIP3    H133972   0.101   0.983  17.466  0.6677 -0.5964  0.1964
 3259TIP3    H233973   0.242   1.034  17.439  0.5704 -0.2736  0.2869
 3260TIP3   OH233974   6.216   0.998  19.545  0.2104  0.2774 -0.1735
 3260TIP3    H133975   6.178   1.024  19.461 -0.3490 -1.3324 -0.4514
 3260TIP3    H233976   6.171   0.916  19.567  0.6958  0.4181  1.4617
 3261TIP3   OH233977   0.173   5.858  17.716  0.0739 -0.2684  0.4856
 3261TIP3    H133978   0.105   5.797  17.686  1.7588 -1.9128 -0.1630
 3261TIP3    H233979   0.131   5.944  17.711 -1.7819 -1.1600 -0.4181
 3262TIP3   OH233980   7.422   0.595  18.288  0.6353 -0.2657 -0.2560
 3262TIP3    H133981   7.413   0.674  18.342 -0.7933  1.1538 -2.4076
 3262TIP3    H233982   7.352   0.537  18.319 -0.6010  0.8081 -0.9277
 3263TIP3   OH233983   7.031   4.572  18.753  0.0399 -0.3772  0.0067
 3263TIP3    H133984   6.964   4.578  18.686  1.8087 -3.3399 -2.2413
 3263TIP3    H233985   7.034   4.479  18.776  2.0743 -0.0256  1.4154
 3264TIP3   OH233986   5.991   0.901  18.796 -0.0644  0.5534 -0.2935
 3264TIP3    H133987   5.974   0.969  18.730 -3.0892  0.9067  0.6874
 3264TIP3    H233988   6.081   0.918  18.824  0.8933  1.1941 -3.3361
 3265TIP3   OH233989   5.338   5.224  18.866  0.4893  0.0179  0.5411
 3265TIP3    H133990   5.432   5.239  18.855  0.6312 -0.0272  1.5729
 3265TIP3    H233991   5.304   5.223  18.777  1.5197 -0.2955  0.1257
 3266TIP3   OH233992   7.452   0.304  18.187 -0.5037 -0.4179 -0.5257
 3266TIP3    H133993   7.385   0.359  18.226 -0.1725 -0.3917  0.0222
 3266TIP3    H233994   7.534   0.348  18.208 -0.2767 -0.7910 -0.6230
 3267TIP3   OH233995   4.731   6.052  18.260 -0.4629  0.3233 -0.6395
 3267TIP3    H133996   4.690   5.986  18.315  0.9587 -1.5268 -1.6657
 3267TIP3    H233997   4.682   6.049  18.178  1.7673 -2.1804 -2.0163
 3268TIP3   OH233998   1.537   1.792  17.958 -0.0763  0.2437  0.0221
 3268TIP3    H133999   1.513   1.798  18.051  0.5720  0.4930  0.1807
 3268TIP3    H234000   1.621   1.746  17.958  0.0140  0.4051 -0.4279
 3269TIP3   OH234001   0.567   6.501  18.938 -0.2199  0.3550  0.0264
 3269TIP3    H134002   0.563   6.480  18.845  2.4236  0.0139 -0.0647
 3269TIP3    H234003   0.562   6.416  18.982  1.4192  0.2429  0.0406
 3270TIP3   OH234004   1.915   0.019  16.999  0.4052  0.5298 -0.3426
 3270TIP3    H134005   1.908   0.057  16.911  1.2338  2.5670  0.4249
 3270TIP3    H234006   1.826  -0.011  17.019  0.2015  0.0327 -1.8566
 3271TIP3   OH234007   5.105   4.409  19.539 -0.3025 -0.1469  0.2208
 3271TIP3    H134008   5.173   4.387  19.475 -0.9768  0.4018 -0.6948
 3271TIP3    H234009   5.066   4.490  19.506  0.7012  1.3230  2.4112
 3272TIP3   OH234010   7.119   1.337  19.206  0.3129 -0.1793  0.1693
 3272TIP3    H134011   7.062   1.292  19.144  0.5614  0.0495 -0.2323
 3272TIP3    H234012   7.154   1.411  19.157  0.5614 -0.0268  0.5672
 3273TIP3   OH234013   6.136   6.712  16.593 -0.2204 -0.0346  0.4046
 3273TIP3    H134014   6.105   6.650  16.527  0.5977 -0.1566  0.1297
 3273TIP3    H234015   6.170   6.786  16.542  0.7052 -0.2662  0.6724
 3274TIP3   OH234016   1.109   6.785  18.047  0.7698  0.3030 -0.1662
 3274TIP3    H134017   1.094   6.778  18.141 -0.0575 -0.4151 -0.3338
 3274TIP3    H234018   1.166   6.711  18.026 -0.6345 -0.7437 -0.5094
 3275TIP3   OH234019   3.148   3.472  18.189 -0.2941  0.2808  0.3339
 3275TIP3    H134020   3.186   3.446  18.273  1.0681 -0.0579 -0.3623
 3275TIP3    H234021   3.098   3.395  18.162 -2.1050  0.9573  1.5613
 3276TIP3   OH234022   0.693   4.491  19.343  0.5850 -0.1418 -0.5580
 3276TIP3    H134023   0.651   4.571  19.312 -1.9956 -1.7966 -1.6474
 3276TIP3    H234024   0.710   4.440  19.264 -0.0187 -1.6525  0.2501
 3277TIP3   OH234025   7.547   7.260  17.423  0.1706  0.0515 -0.2197
 3277TIP3    H134026   7.541   7.355  17.412 -0.4150  0.2641  1.5678
 3277TIP3    H234027   7.535   7.225  17.335 -0.3610  1.6080 -0.8116
 3278TIP3   OH234028   0.478   6.756  18.934 -0.1970  0.4273  0.0518
 3278TIP3    H134029   0.563   6.799  18.940 -0.5364  1.5198 -2.0728
 3278TIP3    H234030   0.498   6.663  18.930  0.8244  0.6210  0.4187
 3279TIP3   OH234031   7.023   7.239  17.183  0.4424  0.3940  0.2604
 3279TIP3    H134032   7.117   7.223  17.172  0.1463 -1.0824 -0.4310
 3279TIP3    H234033   6.988   7.239  17.094 -0.0522  2.2943  0.4116
 3280TIP3   OH234034   5.688   6.932  18.652 -0.0717 -0.3751  0.2353
 3280TIP3    H134035   5.666   6.967  18.566 -0.8605  1.5952  1.1561
 3280TIP3    H234036   5.643   6.847  18.656  0.0807 -0.5531 -1.3067
 3281TIP3   OH234037   0.204   3.889  18.056  0.3306  0.5530 -0.2892
 3281TIP3    H134038   0.124   3.916  18.011  0.5584 -0.0760 -1.0957
 3281TIP3    H234039   0.175   3.823  18.119  0.4527 -1.3668 -2.1305
 3282TIP3   OH234040   3.272   1.663  18.547 -0.2704 -0.1178 -0.2045
 3282TIP3    H134041   3.337   1.605  18.586  0.7357  0.5249 -0.8810
 3282TIP3    H234042   3.273   1.741  18.602  0.6301  0.4989 -1.0723
 3283TIP3   OH234043   0.413   3.177  19.414 -0.2686  0.2187  0.0887
 3283TIP3    H134044   0.380   3.206  19.499  0.1220  1.2876 -0.1106
 3283TIP3    H234045   0.432   3.258  19.367  0.3235 -0.3689 -0.7036
 3284TIP3   OH234046   5.395   5.184  17.424  0.1994 -0.4321 -0.1175
 3284TIP3    H134047   5.301   5.192  17.408  0.0080 -0.0204  1.1329
 3284TIP3    H234048   5.432   5.264  17.387  0.0449 -0.5247 -0.4772
 3285TIP3   OH234049   6.013   2.389  16.653 -0.6629 -0.0876 -0.1685
 3285TIP3    H134050   6.047   2.441  16.727 -2.7111 -0.1669  0.9012
 3285TIP3    H234051   6.019   2.448  16.578  2.5218 -0.3818 -0.2636
 3286TIP3   OH234052   0.956   5.720  18.794 -0.0722 -0.0363  0.2659
 3286TIP3    H134053   0.967   5.808  18.758 -0.7609 -0.0754 -0.0597
 3286TIP3    H234054   0.927   5.734  18.884  2.8523  0.0762  1.2979
 3287TIP3   OH234055   4.041   4.061  18.500 -0.6530  1.0056  0.6100
 3287TIP3    H134056   4.084   4.059  18.414 -0.7346  0.5015  0.5750
 3287TIP3    H234057   4.022   4.153  18.515  1.3294  1.3797  1.0806
 3288TIP3   OH234058   1.554   6.991  19.100 -0.6107 -0.4613  0.1164
 3288TIP3    H134059   1.550   6.941  19.019 -1.4372 -0.4467  0.1379
 3288TIP3    H234060   1.477   6.962  19.150 -1.0560  0.7410  0.1703
 3289TIP3   OH234061   5.693   5.088  18.646 -0.0455  0.0459  0.1655
 3289TIP3    H134062   5.643   5.023  18.695  0.7327 -1.4254 -0.8944
 3289TIP3    H234063   5.774   5.042  18.621  0.4234  1.3394 -0.8238
 3290TIP3   OH234064   7.244   1.811  16.743  0.3397 -0.0998 -0.2604
 3290TIP3    H134065   7.223   1.838  16.832 -0.6337  1.3251 -0.8853
 3290TIP3    H234066   7.336   1.834  16.732  0.6165 -0.7759  0.5361
 3291TIP3   OH234067   1.006   2.697  16.697  0.0594 -0.6748  0.0579
 3291TIP3    H134068   0.965   2.614  16.720 -0.1486 -0.0716  2.0550
 3291TIP3    H234069   1.083   2.703  16.754  1.5985 -0.6643 -1.9074
 3292TIP3   OH234070   3.220   0.291  17.658  0.2567  0.2457  0.1261
 3292TIP3    H134071   3.180   0.272  17.743  0.1344 -1.1847 -0.2269
 3292TIP3    H234072   3.196   0.382  17.641 -1.2341  0.0215  0.8141
 3293TIP3   OH234073   1.510   2.066  17.285  0.3114 -0.0073 -0.1382
 3293TIP3    H134074   1.444   2.042  17.349  0.1682  0.9320  0.0780
 3293TIP3    H234075   1.482   2.023  17.204  0.1483 -0.6696  0.2623
 3294TIP3   OH234076   1.103   3.607  17.713  0.3862  0.5587  0.7674
 3294TIP3    H134077   1.107   3.546  17.787  1.0653 -0.8668 -0.3817
 3294TIP3    H234078   1.025   3.659  17.729 -0.3694 -0.7909  1.6889
 3295TIP3   OH234079   3.290   3.379  18.391 -0.5011  0.0758  0.1428
 3295TIP3    H134080   3.337   3.297  18.377 -0.8403 -0.6105  2.5601
 3295TIP3    H234081   3.343   3.427  18.455 -3.4342 -1.2805  3.9898
 3296TIP3   OH234082   1.741   4.188  19.010 -0.1161 -0.3364  0.4282
 3296TIP3    H134083   1.707   4.183  18.921 -0.3207  1.7443  0.3421
 3296TIP3    H234084   1.663   4.183  19.066 -0.0149 -1.3288  0.4974
 3297TIP3   OH234085   3.931   7.027  18.472  0.1622  0.0215  0.2996
 3297TIP3    H134086   3.954   7.026  18.565  0.1088 -1.2283  0.3069
 3297TIP3    H234087   3.934   7.120  18.449 -1.7983  0.5887  2.0292
 3298TIP3   OH234088   4.482   5.333  18.844 -0.2750 -0.0889  0.6158
 3298TIP3    H134089   4.438   5.273  18.784  1.2288  0.2213 -0.8900
 3298TIP3    H234090   4.495   5.282  18.924 -0.3093 -1.2945 -0.1253
 3299TIP3   OH234091   5.124   6.294  19.034 -0.0007 -0.2353  0.2390
 3299TIP3    H134092   5.086   6.295  18.946  1.5762  0.0711 -0.4666
 3299TIP3    H234093   5.096   6.210  19.071 -0.2118 -0.6171 -0.7645
 3300TIP3   OH234094   5.082   0.672  18.733  0.3458 -0.1119 -0.2581
 3300TIP3    H134095   4.995   0.644  18.762  0.8095 -2.2565 -0.7464
 3300TIP3    H234096   5.141   0.640  18.801  0.7623  1.5591  0.2028
 3301TIP3   OH234097   6.713   6.898  18.740  0.1745 -0.1014  0.0582
 3301TIP3    H134098   6.640   6.931  18.687  0.2421  0.6918  0.4489
 3301TIP3    H234099   6.786   6.892  18.679 -0.0360 -0.2408 -0.1819
 3302TIP3   OH234100   7.558   4.237  18.700 -0.2036 -0.8986  0.1565
 3302TIP3    H134101   7.647   4.258  18.728 -0.6846 -0.1080  1.1616
 3302TIP3    H234102   7.566   4.153  18.655  0.9415 -1.1872  0.8636
 3303TIP3   OH234103   6.253   0.499  17.513 -0.3481 -0.7141  0.0148
 3303TIP3    H134104   6.198   0.567  17.475  0.1350 -0.1426  0.3155
 3303TIP3    H234105   6.314   0.546  17.570 -0.2960 -1.4384  0.5821
 3304TIP3   OH234106   4.281   1.467  18.528  0.1564 -0.0033 -0.0596
 3304TIP3    H134107   4.369   1.460  18.566  0.5961  2.0028 -0.5543
 3304TIP3    H234108   4.230   1.512  18.595 -0.3111 -0.5019 -0.0761
 3305TIP3   OH234109   4.762   3.274  18.197  0.6408 -0.0053  0.0798
 3305TIP3    H134110   4.720   3.188  18.199  0.5117  0.0590  0.1956
 3305TIP3    H234111   4.701   3.328  18.146  0.3791  0.1948  0.6018
 3306TIP3   OH234112   6.004   3.040  18.951  0.3692 -0.2343 -0.5580
 3306TIP3    H134113   6.066   3.056  18.881  0.1948 -0.2945 -0.7274
 3306TIP3    H234114   5.966   2.954  18.932 -0.1315  0.0189 -0.7375
 3307TIP3   OH234115   0.132   1.614  18.145  0.1564  0.5233 -0.4665
 3307TIP3    H134116   0.141   1.586  18.236 -3.1275 -0.3238 -0.2618
 3307TIP3    H234117   0.190   1.557  18.096 -1.0280 -1.8698  0.7508
 3308TIP3   OH234118   4.944   2.441  18.109 -0.3297  0.2279 -0.1841
 3308TIP3    H134119   5.029   2.410  18.140 -0.6723 -1.2962 -0.7238
 3308TIP3    H234120   4.935   2.404  18.022 -1.5107  0.4761 -0.1801
 3309TIP3   OH234121   2.017   2.788  17.511 -0.1398 -0.6081  0.6628
 3309TIP3    H134122   1.959   2.863  17.498  0.9886 -0.1245 -2.1444
 3309TIP3    H234123   2.103   2.825  17.526  0.5844 -1.2719 -1.5456
 3310TIP3   OH234124   0.064   1.205  19.013  0.4181 -0.4348 -0.2211
 3310TIP3    H134125   0.027   1.148  18.945 -1.3908  1.5579 -1.0176
 3310TIP3    H234126   0.079   1.147  19.087 -1.8437 -1.8870 -0.8088
 3311TIP3   OH234127   4.072   2.369  19.199  0.0567  0.5251 -0.0114
 3311TIP3    H134128   4.126   2.412  19.133 -0.9939  0.2902 -1.0695
 3311TIP3    H234129   4.047   2.439  19.259 -1.1118  1.3169 -1.3492
 3312TIP3   OH234130   6.252   2.126  19.408  0.3507  0.4149  0.2331
 3312TIP3    H134131   6.219   2.213  19.384 -0.3979  0.1960  0.4302
 3312TIP3    H234132   6.345   2.138  19.422  0.2346  1.2087  0.3443
 3313TIP3   OH234133   2.614   1.200  17.880  0.1422  0.0182 -0.6836
 3313TIP3    H134134   2.538   1.258  17.873  0.7345  1.3037  2.0358
 3313TIP3    H234135   2.689   1.258  17.865  0.7127 -0.1847  1.1900
 3314TIP3   OH234136   2.447   4.649  18.538  0.0419 -0.1991 -0.2707
 3314TIP3    H134137   2.445   4.681  18.448 -0.2217 -0.9092 -0.5287
 3314TIP3    H234138   2.358   4.616  18.554 -0.5343  1.8048  0.9788
 3315TIP3   OH234139   5.667   5.441  18.389  0.1797  0.1656  0.1837
 3315TIP3    H134140   5.733   5.373  18.404 -1.2734 -1.5877 -0.8714
 3315TIP3    H234141   5.671   5.497  18.467  2.8333  0.1188  0.1614
 3316TIP3   OH234142   0.530   7.678  16.931  0.1558  0.5478 -0.2653
 3316TIP3    H134143   0.557   7.599  16.978  1.2902  0.5065 -0.9358
 3316TIP3    H234144   0.478   7.647  16.858 -0.4307  0.5160  0.1588
 3317TIP3   OH234145   0.319   6.914  18.076  0.1429  0.2145  0.1355
 3317TIP3    H134146   0.350   6.906  17.985  0.5761 -0.7527  0.3527
 3317TIP3    H234147   0.362   6.841  18.122  0.0226  0.7635  1.1439
 3318TIP3   OH234148   2.904   2.646  19.113  1.0391 -0.3113  0.3747
 3318TIP3    H134149   2.914   2.729  19.160  2.2560 -0.4225  0.3510
 3318TIP3    H234150   2.817   2.615  19.137 -0.4533  2.1050 -1.4657
 3319TIP3   OH234151   3.826   3.021  18.363  0.4670  0.0679 -0.3491
 3319TIP3    H134152   3.790   3.081  18.299  1.4703 -0.3937 -1.3896
 3319TIP3    H234153   3.859   3.077  18.433  1.3211  0.7409 -1.2675
 3320TIP3   OH234154   4.041   3.407  16.717  0.9742 -0.1263  0.7012
 3320TIP3    H134155   3.989   3.425  16.638  1.9080 -1.1166 -0.1632
 3320TIP3    H234156   3.980   3.424  16.789  0.5281  2.3431 -0.1256
 3321TIP3   OH234157   5.025   2.161  19.832 -0.0529  0.3632 -0.1852
 3321TIP3    H134158   4.970   2.084  19.841 -0.1852  0.6124  1.2852
 3321TIP3    H234159   5.103   2.129  19.786  0.2063 -0.8277  1.0109
 3322TIP3   OH234160   3.318   1.584  17.742  0.0075 -0.3509  0.2794
 3322TIP3    H134161   3.261   1.540  17.805 -0.4851 -0.1916 -0.0486
 3322TIP3    H234162   3.401   1.597  17.790  0.5517 -2.5759  0.0277
 3323TIP3   OH234163   1.393   3.229  18.224  0.3917  0.3904 -0.1224
 3323TIP3    H134164   1.485   3.251  18.243 -0.0960  1.2710  1.3718
 3323TIP3    H234165   1.392   3.209  18.131  1.9006  1.4989 -0.4116
 3324TIP3   OH234166   1.939   4.578  16.494  0.3524 -0.2772 -0.1970
 3324TIP3    H134167   1.849   4.607  16.509  0.6511  0.5649 -0.0186
 3324TIP3    H234168   1.993   4.640  16.542  1.0305 -0.8545 -0.2011
 3325TIP3   OH234169   2.178   0.749  17.999 -0.2388  0.2655 -0.3504
 3325TIP3    H134170   2.109   0.814  17.982 -0.9233 -0.2788  0.2524
 3325TIP3    H234171   2.130   0.671  18.028  0.2822 -1.5943 -3.9359
 3326TIP3   OH234172   2.069   0.388  18.666  0.0598 -0.3494 -0.5028
 3326TIP3    H134173   2.098   0.368  18.755  1.2497 -1.6418 -1.1295
 3326TIP3    H234174   2.122   0.463  18.639 -0.5534  0.2703 -0.0222
 3327TIP3   OH234175   5.488   2.773  16.541 -0.0746  0.2419  0.0565
 3327TIP3    H134176   5.554   2.763  16.472 -0.0945  1.3400 -0.1305
 3327TIP3    H234177   5.456   2.684  16.556 -0.2498  0.0008 -1.5269
 3328TIP3   OH234178   0.028   0.950  17.046  0.0475 -0.0672  0.2322
 3328TIP3    H134179   0.022   0.943  16.951  1.6050 -1.2860  0.1849
 3328TIP3    H234180  -0.061   0.933  17.077 -0.9272  2.1696 -1.0261
 3329TIP3   OH234181   0.423   6.241  18.595 -0.0468  0.2927 -0.6900
 3329TIP3    H134182   0.430   6.276  18.684  1.4165  0.5866 -0.9004
 3329TIP3    H234183   0.370   6.306  18.549 -1.1718 -0.0643  0.0382
 3330TIP3   OH234184   5.852   3.125  19.339  0.2344  0.0865  0.1608
 3330TIP3    H134185   5.834   3.031  19.349  0.4741  0.1135  0.8807
 3330TIP3    H234186   5.799   3.167  19.407 -0.3019  0.5288 -0.5184
 3331TIP3   OH234187   5.360   1.195  18.277 -0.0065 -0.7008 -0.2007
 3331TIP3    H134188   5.401   1.109  18.267  0.4271 -0.2753 -2.5160
 3331TIP3    H234189   5.272   1.175  18.310  0.8068 -1.8376  1.4523
 3332TIP3   OH234190   1.256   3.147  17.112  0.1958 -0.1499 -0.2427
 3332TIP3    H134191   1.222   3.230  17.146  2.0645  0.2977  0.6617
 3332TIP3    H234192   1.230   3.146  17.020  1.0522  1.9814 -0.5754
 3333TIP3   OH234193   3.873   2.582  17.316  0.3093 -0.2083  0.3955
 3333TIP3    H134194   3.879   2.492  17.284  2.3879  0.2376 -0.6338
 3333TIP3    H234195   3.910   2.635  17.245  0.0875  1.3607  1.4080
 3334TIP3   OH234196   4.653   0.225  17.834 -0.2933  0.2643 -0.1734
 3334TIP3    H134197   4.654   0.247  17.927 -0.1002 -1.2597  0.2148
 3334TIP3    H234198   4.559   0.218  17.813 -0.3499  1.1921 -0.2487
 3335TIP3   OH234199   5.804   5.995  17.872  0.3213  0.4964 -0.1124
 3335TIP3    H134200   5.815   6.033  17.959 -0.5130 -1.3061  0.8323
 3335TIP3    H234201   5.783   5.903  17.888 -0.1268  0.1739 -2.2167
 3336TIP3   OH234202   2.576   7.226  17.135 -0.2023 -0.0118 -0.2399
 3336TIP3    H134203   2.552   7.149  17.187 -0.3478 -0.0650 -0.3841
 3336TIP3    H234204   2.665   7.207  17.104  0.0694  0.2313  0.3826
 3337TIP3   OH234205   7.250   6.339  17.542 -0.1901 -0.0210 -0.0598
 3337TIP3    H134206   7.185   6.337  17.472 -1.1786  0.6790  0.8044
 3337TIP3    H234207   7.292   6.424  17.532  0.6874 -0.5126 -0.6765
 3338TIP3   OH234208   6.928   0.938  18.722 -0.0351 -0.2242 -0.6292
 3338TIP3    H134209   6.981   0.997  18.776 -2.4133 -0.1285  1.7753
 3338TIP3    H234210   6.969   0.852  18.733 -1.2195 -0.5035  2.6566
 3339TIP3   OH234211   1.060   5.243  16.753  0.1791  0.2493  0.4664
 3339TIP3    H134212   1.068   5.149  16.772  1.1109  0.1790 -0.1657
 3339TIP3    H234213   1.034   5.247  16.661  3.0008  0.5661 -0.4340
 3340TIP3   OH234214   6.275   4.723  19.607  0.4889  0.6934  0.0134
 3340TIP3    H134215   6.271   4.815  19.582  0.9175  1.1363  1.4394
 3340TIP3    H234216   6.362   4.694  19.580  0.0852  0.4988 -1.0866
 3341TIP3   OH234217   6.551   2.519  19.172 -0.1511 -0.2088 -0.1255
 3341TIP3    H134218   6.536   2.430  19.139 -2.5705  0.4840 -1.1157
 3341TIP3    H234219   6.641   2.539  19.146  0.2663 -2.1607 -0.3500
 3342TIP3   OH234220   4.098   2.304  18.815 -0.0169  0.1138  0.7530
 3342TIP3    H134221   4.189   2.332  18.802  0.0389  0.3178  1.5240
 3342TIP3    H234222   4.082   2.319  18.909 -0.5532 -0.7857  0.8119
 3343TIP3   OH234223   4.555   0.549  18.971  0.0750 -0.3002  0.2788
 3343TIP3    H134224   4.541   0.478  18.908  1.4404  0.5332 -1.0344
 3343TIP3    H234225   4.638   0.527  19.014 -0.1592 -0.1542  0.8167
 3344TIP3   OH234226   3.561   5.680  17.104 -0.2064 -0.1385 -0.5898
 3344TIP3    H134227   3.540   5.741  17.033 -0.0445 -0.9569 -1.3544
 3344TIP3    H234228   3.649   5.705  17.132 -0.8276  1.1300  0.3399
 3345TIP3   OH234229   1.257   5.135  18.619 -0.2158  0.3793  0.1476
 3345TIP3    H134230   1.290   5.057  18.665  1.0375  1.3924  1.0304
 3345TIP3    H234231   1.324   5.154  18.553 -1.6617 -0.6467 -1.7132
 3346TIP3   OH234232   3.117   4.424  19.188 -0.3952 -0.4153 -0.2558
 3346TIP3    H134233   3.209   4.400  19.204  0.2101  0.3714 -2.2134
 3346TIP3    H234234   3.068   4.344  19.208  0.8342 -1.1750 -0.1629
 3347TIP3   OH234235   4.214   3.636  19.186 -1.0664  0.1208 -0.6197
 3347TIP3    H134236   4.203   3.729  19.167  1.5530  1.2374  2.4623
 3347TIP3    H234237   4.207   3.630  19.281 -1.2291 -2.9056 -0.7184
 3348TIP3   OH234238   7.082   4.832  19.622  0.3509 -0.0557  0.7428
 3348TIP3    H134239   7.151   4.771  19.594  0.9889 -0.9244  3.8099
 3348TIP3    H234240   7.122   4.919  19.612  0.2034 -0.2077 -1.6753
 3349TIP3   OH234241   6.612   3.991  18.005  0.0745 -0.3662  0.1878
 3349TIP3    H134242   6.554   3.981  17.930  0.0725 -0.0598  0.1483
 3349TIP3    H234243   6.653   4.076  17.993  2.8309 -1.7812 -1.3819
 3350TIP3   OH234244   3.889   0.637  19.619 -0.1837  0.4550  0.2360
 3350TIP3    H134245   3.899   0.720  19.573  1.0084  0.5639  0.6467
 3350TIP3    H234246   3.960   0.637  19.683 -0.6210 -0.5590  0.7402
 3351TIP3   OH234247   2.752   6.904  17.937  0.3923  0.3480 -0.6109
 3351TIP3    H134248   2.789   6.949  18.013 -0.7924  0.6561 -0.2036
 3351TIP3    H234249   2.689   6.966  17.901 -0.2628 -0.4557 -0.8583
 3352TIP3   OH234250   1.211   5.850  17.716  0.5308 -0.1674 -0.5381
 3352TIP3    H134251   1.132   5.821  17.671 -0.2295 -0.9466  1.2177
 3352TIP3    H234252   1.263   5.771  17.726  0.7850  0.0332 -0.2442
 3353TIP3   OH234253   6.171   6.665  17.234  0.4919  0.5714  0.0029
 3353TIP3    H134254   6.171   6.657  17.139 -0.2401  2.3069 -0.1876
 3353TIP3    H234255   6.212   6.585  17.265  1.1413  0.1674 -1.7867
 3354TIP3   OH234256   0.430   2.272  18.056 -0.5762 -0.1245  0.3450
 3354TIP3    H134257   0.520   2.302  18.071 -0.4456 -1.0415  1.5085
 3354TIP3    H234258   0.382   2.299  18.134 -1.3074  0.2743 -0.2328
 3355TIP3   OH234259   5.170   5.903  17.975 -0.5941  0.5194 -0.3828
 3355TIP3    H134260   5.082   5.873  17.954 -0.8002 -0.5687  1.7391
 3355TIP3    H234261   5.156   5.974  18.038  0.0288  0.4267 -0.1332
 3356TIP3   OH234262   6.771   7.075  17.528  0.2167 -0.5791  0.1184
 3356TIP3    H134263   6.690   7.122  17.507  0.4058  0.2816  1.2488
 3356TIP3    H234264   6.774   7.073  17.624  0.8354 -1.8541  0.1039
 3357TIP3   OH234265   5.747   5.080  18.344 -0.5877  1.0127  0.2594
 3357TIP3    H134266   5.821   5.091  18.404 -0.0582 -0.0272 -0.1767
 3357TIP3    H234267   5.680   5.036  18.397  0.2979 -0.9646 -0.1616
 3358TIP3   OH234268   5.105   0.752  18.019 -0.5326  0.7043 -0.3326
 3358TIP3    H134269   5.169   0.794  17.962  0.3241  0.0489  0.1185
 3358TIP3    H234270   5.072   0.678  17.967  1.6874 -1.0991  0.6375
 3359TIP3   OH234271   6.500   6.582  17.066 -0.0700 -0.0943  0.3795
 3359TIP3    H134272   6.504   6.496  17.025  1.5137  0.1871 -0.1161
 3359TIP3    H234273   6.514   6.565  17.159 -1.2268 -0.4931  0.4991
 3360TIP3   OH234274   0.763   3.808  18.763  0.0393  0.0834 -0.1324
 3360TIP3    H134275   0.842   3.862  18.763  1.2663 -1.6026  1.1112
 3360TIP3    H234276   0.722   3.825  18.678  1.6275  1.1580 -0.7354
 3361TIP3   OH234277   4.410   5.516  18.072  0.7745 -0.8934  0.6374
 3361TIP3    H134278   4.317   5.495  18.079  0.5522  0.1344  0.9933
 3361TIP3    H234279   4.415   5.580  18.001  1.0754 -0.2316  1.2397
 3362TIP3   OH234280   7.600   4.982  17.796  0.4028 -0.3702 -0.3296
 3362TIP3    H134281   7.574   4.995  17.705  0.2205  2.0529 -0.0087
 3362TIP3    H234282   7.696   4.980  17.794  0.4014 -0.1901 -0.5594
 3363TIP3   OH234283   3.121   5.572  17.704 -0.6854  0.4069  0.1379
 3363TIP3    H134284   3.092   5.480  17.703  0.6079 -0.0375  1.0761
 3363TIP3    H234285   3.047   5.620  17.666 -1.1059 -1.0860 -1.0512
 3364TIP3   OH234286   5.091   3.430  18.570 -0.0242  0.0681 -0.4631
 3364TIP3    H134287   5.177   3.465  18.550 -0.6649  1.4474 -0.9144
 3364TIP3    H234288   5.052   3.494  18.630 -0.8855 -0.3128 -0.5990
 3365TIP3   OH234289   7.018   5.109  17.233  0.4400  0.1245 -0.1135
 3365TIP3    H134290   7.081   5.179  17.215 -0.2785  0.7263 -0.3311
 3365TIP3    H234291   6.941   5.154  17.267  0.3615 -0.6664  0.7791
 3366TIP3   OH234292   0.419   0.352  19.226  0.0861 -0.1274 -0.1618
 3366TIP3    H134293   0.504   0.372  19.264 -0.2573  0.7115  0.1783
 3366TIP3    H234294   0.436   0.340  19.132  0.5738  0.0124 -0.0894
 3367TIP3   OH234295   7.022   3.555  17.230  0.2189 -0.8229  0.2121
 3367TIP3    H134296   6.941   3.543  17.180  1.0087 -0.3054 -1.2464
 3367TIP3    H234297   7.092   3.535  17.168  1.2612  0.4928  0.9038
 3368TIP3   OH234298   1.148   2.540  17.916 -0.0700 -0.1106  0.3645
 3368TIP3    H134299   1.100   2.622  17.906 -0.0789 -0.2738 -1.1002
 3368TIP3    H234300   1.240   2.566  17.925 -0.1583  0.0943  0.6652
 3369TIP3   OH234301   5.666   1.450  17.385 -0.0022 -0.1628  0.4473
 3369TIP3    H134302   5.680   1.490  17.471  1.4150 -0.7175  0.4892
 3369TIP3    H234303   5.715   1.504  17.324 -1.6915  0.7385 -0.1915
 3370TIP3   OH234304   4.222   0.144  19.372  0.0704 -0.2867 -0.4276
 3370TIP3    H134305   4.309   0.105  19.376  0.0873 -0.1540  1.6213
 3370TIP3    H234306   4.163   0.075  19.402 -0.4167 -0.0420 -0.7977
 3371TIP3   OH234307   5.667   3.922  17.842 -0.2970  0.0374  0.5632
 3371TIP3    H134308   5.697   4.013  17.840 -0.8697  0.2159 -0.1941
 3371TIP3    H234309   5.594   3.923  17.903 -0.8132  0.2518 -0.0501
 3372TIP3   OH234310   2.528   2.050  18.563 -0.0329 -0.3080  0.2332
 3372TIP3    H134311   2.494   2.140  18.560 -3.1526 -1.3463  1.0291
 3372TIP3    H234312   2.606   2.056  18.620 -0.2702  1.8460  0.4164
 3373TIP3   OH234313   4.356   3.071  19.484  0.5940  0.6017  0.1054
 3373TIP3    H134314   4.373   3.070  19.390  0.5944  0.7903  0.1031
 3373TIP3    H234315   4.432   3.027  19.522  0.6013  0.5386  0.0182
 3374TIP3   OH234316   0.677   3.255  16.810 -0.2494  0.1702  0.2430
 3374TIP3    H134317   0.642   3.196  16.877  2.6021 -1.1269  0.7249
 3374TIP3    H234318   0.770   3.263  16.831  0.1209  2.2752 -1.7559
 3375TIP3   OH234319   0.374   7.450  18.143  0.3485  0.6447 -0.0939
 3375TIP3    H134320   0.300   7.398  18.175  0.6536  0.3051  0.0616
 3375TIP3    H234321   0.363   7.450  18.048 -0.8806  2.1275  0.0005
 3376TIP3   OH234322   1.362   7.330  16.912  0.2352 -0.3125  0.3896
 3376TIP3    H134323   1.314   7.304  16.991  1.8787 -1.9745  0.9224
 3376TIP3    H234324   1.397   7.416  16.932  0.4802 -0.6387  1.4228
 3377TIP3   OH234325   1.054   2.092  19.311 -0.1165 -0.5724 -0.1042
 3377TIP3    H134326   1.019   2.173  19.348  0.7846 -0.6465  0.9593
 3377TIP3    H234327   1.080   2.116  19.222  2.6103  1.0577  1.0224
 3378TIP3   OH234328   2.804   6.787  16.802 -0.1672  0.3088 -0.0896
 3378TIP3    H134329   2.800   6.828  16.715 -0.4711  1.9914  0.6659
 3378TIP3    H234330   2.890   6.747  16.807 -0.7847 -1.3876 -1.8065
 3379TIP3   OH234331   6.707   2.723  18.826  0.2480  0.0203  0.4991
 3379TIP3    H134332   6.625   2.757  18.790  1.7248  2.3691 -0.9007
 3379TIP3    H234333   6.758   2.698  18.749  1.6304  0.5614  1.2130
 3380TIP3   OH234334   2.283   3.195  16.957 -0.0717 -0.3007  0.2266
 3380TIP3    H134335   2.357   3.135  16.965 -0.0204 -0.2493  0.1457
 3380TIP3    H234336   2.208   3.139  16.942  0.0756 -0.3186 -0.5064
 3381TIP3   OH234337   3.595   1.811  18.268 -0.0450  0.7496  0.3116
 3381TIP3    H134338   3.654   1.865  18.322 -0.7438  1.2781  0.5575
 3381TIP3    H234339   3.535   1.873  18.228 -1.5154  0.0829  1.4051
 3382TIP3   OH234340   3.530   4.998  18.141 -0.8314 -0.0224 -0.1344
 3382TIP3    H134341   3.509   4.955  18.224  1.8015 -2.1672 -0.4477
 3382TIP3    H234342   3.558   4.927  18.083 -1.4144  1.5606 -2.5020
 3383TIP3   OH234343   3.030   1.511  17.603  0.3506  0.3470 -0.1214
 3383TIP3    H134344   3.003   1.420  17.601 -1.1056  0.6078  2.6278
 3383TIP3    H234345   2.977   1.554  17.536 -0.2850 -0.5243 -0.1882
 3384TIP3   OH234346   0.112   1.033  19.260 -0.1529 -0.3593  0.1315
 3384TIP3    H134347   0.069   1.046  19.345 -0.1778  1.7762 -0.1381
 3384TIP3    H234348   0.201   1.067  19.274  0.0989 -0.7552 -0.4901
 3385TIP3   OH234349   2.994   3.663  18.705  0.1769  0.2258 -0.2374
 3385TIP3    H134350   3.020   3.576  18.736  0.8375 -0.2065 -1.8764
 3385TIP3    H234351   3.047   3.677  18.627 -0.8095  1.5930 -0.7038
 3386TIP3   OH234352   1.483   4.342  18.188 -0.2171 -0.0493  0.0779
 3386TIP3    H134353   1.502   4.271  18.250  0.4762  0.4674  0.4781
 3386TIP3    H234354   1.566   4.389  18.180 -0.8124  1.0749  0.2886
 3387TIP3   OH234355   2.166   4.947  19.312 -0.3570 -0.1843 -0.4616
 3387TIP3    H134356   2.190   4.974  19.401 -1.0208  0.2106 -0.3941
 3387TIP3    H234357   2.173   5.027  19.260  4.7084 -1.2289 -1.8735
 3388TIP3   OH234358   1.615   4.409  17.247 -0.3482 -0.4354  0.4390
 3388TIP3    H134359   1.630   4.480  17.310  0.0877 -0.6017  0.5275
 3388TIP3    H234360   1.679   4.342  17.271 -1.2955 -1.2041  0.8644
 3389TIP3   OH234361   4.059   3.241  17.452  0.0993  0.8301 -0.1520
 3389TIP3    H134362   3.998   3.179  17.493 -0.9605  1.5034 -0.6512
 3389TIP3    H234363   4.099   3.288  17.526  0.3880  0.0495  0.1991
 3390TIP3   OH234364   6.854   5.642  17.317 -0.1697  0.3128  0.5228
 3390TIP3    H134365   6.865   5.733  17.287 -0.0360  0.5546  1.2630
 3390TIP3    H234366   6.914   5.635  17.392 -0.0723 -0.4327  0.3819
 3391TIP3   OH234367   2.649   7.368  18.377 -0.1828  0.3825 -0.4500
 3391TIP3    H134368   2.721   7.313  18.405  1.1689  2.1611 -0.2316
 3391TIP3    H234369   2.630   7.340  18.287  0.7378 -0.1458 -0.4842
 3392TIP3   OH234370   0.851   1.823  18.338 -0.1747 -0.2245  0.6091
 3392TIP3    H134371   0.906   1.886  18.291 -0.4801  0.2320  0.8531
 3392TIP3    H234372   0.861   1.741  18.290 -0.9890  0.3874 -0.6591
 3393TIP3   OH234373   2.001   5.077  18.754  0.1085  0.2335 -1.3304
 3393TIP3    H134374   2.064   5.009  18.776  1.0722  1.6358  0.4989
 3393TIP3    H234375   2.048   5.135  18.694  0.3978  0.9572 -0.4277
 3394TIP3   OH234376   7.467   7.322  17.705  0.4195  0.2897 -0.4937
 3394TIP3    H134377   7.486   7.306  17.612  0.1784  1.1182 -0.6900
 3394TIP3    H234378   7.382   7.366  17.705 -1.8478 -3.6017  0.3675
 3395TIP3   OH234379   4.483   5.284  17.881 -0.4523  0.1879  0.2862
 3395TIP3    H134380   4.433   5.338  17.819  0.5275  1.8823  0.9128
 3395TIP3    H234381   4.418   5.252  17.943 -0.9349  1.4250  0.4389
 3396TIP3   OH234382   4.722   0.868  19.294  0.2157 -0.0219  0.3836
 3396TIP3    H134383   4.668   0.842  19.219  0.5069  1.2097 -0.2895
 3396TIP3    H234384   4.734   0.962  19.283  1.7947 -0.1248  0.9864
 3397TIP3   OH234385   0.185   4.996  17.774  0.3052 -0.5347  0.8040
 3397TIP3    H134386   0.262   4.948  17.744  1.3491  2.0474 -0.9117
 3397TIP3    H234387   0.212   5.038  17.855  0.0017 -1.2026  1.2689
 3398TIP3   OH234388   7.153   1.656  17.177  0.9889  0.0323 -0.1706
 3398TIP3    H134389   7.082   1.611  17.222  0.7491 -0.5286 -1.0980
 3398TIP3    H234390   7.230   1.642  17.233  0.6077 -0.3114  0.2691
 3399TIP3   OH234391   6.200   6.159  19.360  0.1870  0.0912 -0.3891
 3399TIP3    H134392   6.134   6.117  19.415 -0.1418 -0.3173 -1.0810
 3399TIP3    H234393   6.166   6.152  19.271 -0.1278  2.2994 -0.5035
 3400TIP3   OH234394   2.133   5.966  17.349 -0.0839 -0.0748  0.3511
 3400TIP3    H134395   2.218   5.961  17.393 -0.2751 -0.6787  0.6706
 3400TIP3    H234396   2.077   6.011  17.412  0.0620  0.5913  0.0182
 3401TIP3   OH234397   3.098   3.263  19.537 -0.0664  0.6248 -0.9293
 3401TIP3    H134398   3.116   3.287  19.628 -2.1753  0.1755 -0.3255
 3401TIP3    H234399   3.014   3.305  19.517 -0.4558 -0.6109 -2.0988
 3402TIP3   OH234400   2.089   0.218  18.020  0.6085 -0.1216 -0.4438
 3402TIP3    H134401   2.138   0.142  18.052 -1.2988 -1.4845 -0.6369
 3402TIP3    H234402   2.001   0.207  18.055 -0.0386  1.3736 -1.4848
 3403TIP3   OH234403   2.618   1.270  18.317 -0.0476 -0.2554 -0.0077
 3403TIP3    H134404   2.556   1.324  18.267 -1.1325  0.4339  1.9860
 3403TIP3    H234405   2.695   1.264  18.260 -1.0875  0.7612 -1.6140
 3404TIP3   OH234406   3.740   5.484  19.071  0.2793 -0.7519  0.6934
 3404TIP3    H134407   3.803   5.544  19.032  0.5880  0.0508  2.3579
 3404TIP3    H234408   3.670   5.539  19.104 -0.3452 -1.4713  0.6103
 3405TIP3   OH234409   5.876   3.910  19.101  0.9003  0.1531 -0.3420
 3405TIP3    H134410   5.827   3.853  19.040  0.7956 -0.2391  0.0997
 3405TIP3    H234411   5.938   3.851  19.143  1.1870  0.4888 -0.2964
 3406TIP3   OH234412   1.559   4.666  19.446  0.0483 -0.5534 -0.3278
 3406TIP3    H134413   1.596   4.599  19.388 -2.0372 -1.0312 -1.1812
 3406TIP3    H234414   1.504   4.618  19.506 -0.0531  0.2363  0.2232
 3407TIP3   OH234415   6.026   6.276  17.231 -0.0684 -0.5759  0.6455
 3407TIP3    H134416   5.966   6.341  17.194  0.7404 -0.0874  0.1529
 3407TIP3    H234417   5.980   6.241  17.307 -0.4586  0.7003  1.0257
 3408TIP3   OH234418   0.937   7.345  18.118  0.0004 -0.0993  0.0017
 3408TIP3    H134419   0.966   7.411  18.055  0.7385 -0.9545 -0.5904
 3408TIP3    H234420   0.994   7.359  18.194  0.5448 -0.4104 -0.3421
 3409TIP3   OH234421   4.731   4.265  18.496 -0.1186  0.5805  0.1075
 3409TIP3    H134422   4.751   4.270  18.590 -1.4969  0.3097  0.4379
 3409TIP3    H234423   4.639   4.241  18.493  0.3958 -1.4355 -1.3196
 3410TIP3   OH234424   3.429   5.447  18.842 -0.0212  0.1522 -0.1233
 3410TIP3    H134425   3.342   5.487  18.844 -0.3342 -0.4796  2.4531
 3410TIP3    H234426   3.487   5.516  18.810 -1.6126  0.0010 -4.0090
 3411TIP3   OH234427   2.731   0.532  17.977 -0.5857  0.1112  0.0594
 3411TIP3    H134428   2.716   0.448  18.019 -0.9028 -0.8632 -1.8730
 3411TIP3    H234429   2.643   0.563  17.953 -0.3388 -0.2054 -1.3602
 3412TIP3   OH234430   4.504   2.395  17.407 -0.3374  0.4045  0.0763
 3412TIP3    H134431   4.409   2.409  17.397 -0.5931 -1.0261  0.2556
 3412TIP3    H234432   4.517   2.381  17.500 -0.3088 -1.5141 -0.1661
 3413TIP3   OH234433   5.983   6.676  16.814  0.1451  0.4010  0.2931
 3413TIP3    H134434   6.004   6.706  16.725  1.2683  0.2332  0.4953
 3413TIP3    H234435   6.001   6.751  16.870  0.5202  0.1614  0.5017
 3414TIP3   OH234436   7.092   2.275  18.164 -0.4444 -0.3352  0.2777
 3414TIP3    H134437   7.136   2.190  18.159 -1.0262 -0.8424  2.6030
 3414TIP3    H234438   6.999   2.253  18.170 -0.6364  0.4989  0.4408
 3415TIP3   OH234439   0.613   5.095  17.651  0.2636  0.0657 -0.3145
 3415TIP3    H134440   0.613   5.134  17.738  2.1619  0.1453 -0.3247
 3415TIP3    H234441   0.674   5.021  17.657 -0.8915 -1.0068 -1.1302
 3416TIP3   OH234442   6.261   5.584  17.766  0.4314  0.7240 -0.4367
 3416TIP3    H134443   6.230   5.543  17.846 -1.1848 -1.4374 -2.0301
 3416TIP3    H234444   6.296   5.669  17.794 -0.3215  0.1886  2.4634
 3417TIP3   OH234445   2.667   7.645  17.693 -0.0374  0.2102 -0.3401
 3417TIP3    H134446   2.731   7.654  17.623 -0.3531 -0.8078 -0.7824
 3417TIP3    H234447   2.596   7.705  17.670 -0.1037 -0.0635 -0.8613
 3418TIP3   OH234448   2.536   3.831  19.381 -0.2956 -0.3470 -0.1892
 3418TIP3    H134449   2.505   3.833  19.471 -0.5323  0.1396 -0.2796
 3418TIP3    H234450   2.626   3.862  19.385 -0.3299 -0.2574 -0.1309
 3419TIP3   OH234451   3.537   1.973  18.809 -0.4132  0.1886  0.2909
 3419TIP3    H134452   3.572   2.055  18.843  2.0929 -0.6384 -0.0609
 3419TIP3    H234453   3.529   1.988  18.715 -0.0319  0.0876  0.2392
 3420TIP3   OH234454   5.022   0.944  17.819 -0.0215 -0.2086 -0.1505
 3420TIP3    H134455   4.999   0.883  17.889 -2.6513  1.2416  0.3895
 3420TIP3    H234456   5.001   0.897  17.738  0.3710 -0.8922  0.1397
 3421TIP3   OH234457   5.431   3.462  19.094  0.0232  0.4868  0.7711
 3421TIP3    H134458   5.460   3.526  19.159 -0.0618  0.1286  1.1625
 3421TIP3    H234459   5.378   3.400  19.143 -1.8101  1.3707 -0.0016
 3422TIP3   OH234460   2.327   6.174  18.917  0.0470 -0.1214 -0.0646
 3422TIP3    H134461   2.370   6.224  18.987  0.4551 -0.1810 -0.2662
 3422TIP3    H234462   2.347   6.082  18.938  2.0208 -0.0638 -1.4086
 3423TIP3   OH234463   4.276   3.363  17.254  0.7797  0.1476  0.3256
 3423TIP3    H134464   4.246   3.351  17.344  1.0173 -0.1453  0.3693
 3423TIP3    H234465   4.326   3.444  17.256  0.3752  0.4007  0.3491
 3424TIP3   OH234466   5.400   6.984  17.850  0.0439  0.3845  0.1743
 3424TIP3    H134467   5.366   6.977  17.939  0.4206 -2.1558  0.1992
 3424TIP3    H234468   5.329   7.026  17.800 -0.4552  1.1720  1.4977
 3425TIP3   OH234469   1.163   5.951  19.315  0.0359  0.1631 -0.3270
 3425TIP3    H134470   1.068   5.936  19.321  0.2909 -1.8250 -0.5927
 3425TIP3    H234471   1.194   5.881  19.257  1.7998  0.1530  0.5861
 3426TIP3   OH234472   6.853   4.895  18.743  0.2884  0.1601  0.3686
 3426TIP3    H134473   6.870   4.989  18.732  1.4890 -0.2468 -1.7536
 3426TIP3    H234474   6.794   4.890  18.818  0.3676  2.5893  0.6684
 3427TIP3   OH234475   3.482   2.746  17.800  0.4147 -0.1768  0.0334
 3427TIP3    H134476   3.541   2.676  17.775  2.2238  1.1543  0.3990
 3427TIP3    H234477   3.471   2.798  17.720  0.6251  0.1795  0.2285
 3428TIP3   OH234478   3.401   4.480  19.193  0.0767 -0.4822  0.4419
 3428TIP3    H134479   3.437   4.569  19.201 -0.3250 -0.3906  1.4356
 3428TIP3    H234480   3.473   4.423  19.220 -0.0348 -0.3804  0.9798
 3429TIP3   OH234481   0.461   1.291  18.615 -0.0292  0.3768  0.5074
 3429TIP3    H134482   0.514   1.236  18.558 -2.7792  2.4016 -4.6350
 3429TIP3    H234483   0.516   1.367  18.633  1.1729 -0.6614  1.4183
 3430TIP3   OH234484   3.485   4.572  17.856  0.9102  0.4523 -0.5434
 3430TIP3    H134485   3.445   4.526  17.782  1.0955 -1.2271  0.3498
 3430TIP3    H234486   3.568   4.528  17.870  1.9855  2.2829 -0.7797
 3431TIP3   OH234487   7.502   7.342  18.464  0.2837  0.1849 -0.3919
 3431TIP3    H134488   7.493   7.433  18.492  1.1892 -0.1184  0.9860
 3431TIP3    H234489   7.495   7.345  18.369 -2.2520  1.3651 -0.2470
 3432TIP3   OH234490   7.242   4.986  19.451 -0.1568 -0.5000  0.0770
 3432TIP3    H134491   7.296   4.915  19.416  1.0517  0.3632  0.1442
 3432TIP3    H234492   7.174   4.999  19.385 -1.1158 -2.4657  0.5779
 3433TIP3   OH234493   6.545   6.532  17.329 -0.0065  0.0840 -0.2467
 3433TIP3    H134494   6.477   6.481  17.372  0.0620 -0.4199 -0.7237
 3433TIP3    H234495   6.625   6.482  17.342 -0.1227 -0.5309 -1.6670
 3434TIP3   OH234496   4.061   2.863  18.728 -0.4636  0.3951  0.0234
 3434TIP3    H134497   4.153   2.849  18.705 -0.9163 -1.4123 -0.8695
 3434TIP3    H234498   4.065   2.915  18.808  1.3368  0.2961  0.0560
 3435TIP3   OH234499   3.812   3.393  18.161 -0.1736 -0.1177 -0.0495
 3435TIP3    H134500   3.905   3.417  18.164  0.2692 -1.8337  0.8230
 3435TIP3    H234501   3.767   3.469  18.199  0.9046  0.4830  0.0781
 3436TIP3   OH234502   3.777   3.336  18.490  0.0326  0.0767  0.2902
 3436TIP3    H134503   3.838   3.278  18.535  1.2359  2.1665  1.4757
 3436TIP3    H234504   3.826   3.370  18.415 -0.9844 -1.1071 -0.9650
 3437TIP3   OH234505   1.797   5.120  17.270 -0.2425 -0.0855 -0.0258
 3437TIP3    H134506   1.779   5.121  17.176 -1.6530 -1.4013  0.1829
 3437TIP3    H234507   1.870   5.181  17.282  0.9242 -0.9688 -2.1658
 3438TIP3   OH234508   0.522   4.727  17.599 -0.4702  0.3569 -0.1950
 3438TIP3    H134509   0.597   4.756  17.547  0.6598 -0.8395  0.7189
 3438TIP3    H234510   0.501   4.640  17.564  0.2844 -0.4523  1.2566
 3439TIP3   OH234511   0.015   2.148  18.937  0.3780  0.1085 -0.0635
 3439TIP3    H134512   0.074   2.216  18.904  0.1331  0.4637  0.2215
 3439TIP3    H234513   0.066   2.100  19.002  1.0752 -1.0022 -1.3803
 3440TIP3   OH234514   3.071   7.413  18.933  0.0360 -0.0750 -0.4599
 3440TIP3    H134515   3.164   7.402  18.913 -0.5685 -1.5681 -2.8067
 3440TIP3    H234516   3.053   7.504  18.911  1.1310  0.5921  1.1662
 3441TIP3   OH234517   2.991   0.327  18.137  0.6902 -0.4234 -0.5731
 3441TIP3    H134518   2.952   0.359  18.218  0.6856  0.5849 -0.9529
 3441TIP3    H234519   2.924   0.344  18.070  2.0278  2.1898 -1.3920
 3442TIP3   OH234520   2.571   0.992  18.062 -0.1632 -0.0627 -0.2041
 3442TIP3    H134521   2.593   1.066  18.007 -0.2721 -0.3166 -0.5898
 3442TIP3    H234522   2.637   0.994  18.132 -0.2325  0.4557 -0.1545
 3443TIP3   OH234523   1.428   1.716  18.329  0.1171  0.2908 -0.2604
 3443TIP3    H134524   1.483   1.645  18.362  1.0449  0.1737 -1.9706
 3443TIP3    H234525   1.352   1.671  18.291 -0.7591  0.4070  1.2645
 3444TIP3   OH234526   6.532   5.589  18.220 -0.3892  0.4659 -0.0306
 3444TIP3    H134527   6.462   5.531  18.250 -0.3770  0.6315  0.3190
 3444TIP3    H234528   6.488   5.651  18.161 -0.9967  1.9884  1.8879
 3445TIP3   OH234529   6.837   0.024  18.499  0.0511  0.2217  0.3608
 3445TIP3    H134530   6.751   0.065  18.511  0.3188  0.6898  0.7410
 3445TIP3    H234531   6.819  -0.056  18.450 -0.3768  1.3245 -1.3604
 3446TIP3   OH234532   6.512   6.495  18.962 -0.2738  0.0708  0.9423
 3446TIP3    H134533   6.555   6.516  19.046 -0.6723 -1.3561  1.5233
 3446TIP3    H234534   6.529   6.402  18.949 -0.1211  0.3046 -0.6426
 3447TIP3   OH234535   7.486   6.205  18.908  0.0507  0.5438  0.2507
 3447TIP3    H134536   7.531   6.282  18.873 -0.8977  0.2355 -1.8529
 3447TIP3    H234537   7.394   6.232  18.913 -0.5420 -0.8006 -1.9168
 3448TIP3   OH234538   1.501   7.613  16.922  0.1674 -0.1992 -0.2297
 3448TIP3    H134539   1.549   7.576  16.995  0.3556 -0.8776 -0.6880
 3448TIP3    H234540   1.554   7.689  16.895  0.2764 -0.1546  0.1085
 3449TIP3   OH234541   1.356   1.308  17.758 -0.2179 -0.0979 -0.2590
 3449TIP3    H134542   1.435   1.341  17.802 -0.2916 -0.9495  0.5507
 3449TIP3    H234543   1.386   1.281  17.672  0.0650  0.9922 -0.5223
 3450TIP3   OH234544   7.210   7.445  17.674  0.0832  0.1735 -0.5007
 3450TIP3    H134545   7.237   7.532  17.646 -0.4376  1.0801  1.6436
 3450TIP3    H234546   7.116   7.452  17.686 -0.1219 -0.9957 -1.2226
 3451TIP3   OH234547   4.797   3.993  19.529  0.3418 -0.0995 -0.1457
 3451TIP3    H134548   4.872   4.051  19.516 -0.2117  0.8134  0.6825
 3451TIP3    H234549   4.735   4.020  19.462  1.1268 -1.5627 -1.5396
 3452TIP3   OH234550   5.288   4.040  17.842  0.4911 -0.8776  0.5305
 3452TIP3    H134551   5.357   3.985  17.877 -0.6938 -1.1434  2.5745
 3452TIP3    H234552   5.217   3.979  17.821  0.4943 -0.5028 -0.6348
 3453TIP3   OH234553   1.292   4.876  18.821 -0.2064 -0.1368 -0.1970
 3453TIP3    H134554   1.215   4.842  18.865  0.6143 -2.6067 -0.5217
 3453TIP3    H234555   1.347   4.910  18.892 -0.9443  0.3360  0.1657
 3454TIP3   OH234556   4.423   1.110  19.388 -0.2253  0.4826 -0.8987
 3454TIP3    H134557   4.359   1.046  19.358  1.0691 -0.9925 -0.6870
 3454TIP3    H234558   4.460   1.071  19.467  1.2615  1.0559 -1.2790
 3455TIP3   OH234559   1.310   4.863  19.210 -0.1268  0.3766 -0.1219
 3455TIP3    H134560   1.247   4.860  19.282  0.7433  0.7393  0.6775
 3455TIP3    H234561   1.295   4.781  19.162 -1.7839  0.8550 -0.4845
 3456TIP3   OH234562   5.521   3.723  18.921 -0.2141  0.4228  0.3041
 3456TIP3    H134563   5.486   3.635  18.912  1.8384 -0.5043  0.8569
 3456TIP3    H234564   5.524   3.758  18.832 -1.5543  0.1795  0.1438
 3457TIP3   OH234565   4.562   5.104  19.319  0.3885 -0.3644  0.5576
 3457TIP3    H134566   4.643   5.064  19.352  1.2130  0.5393 -0.3147
 3457TIP3    H234567   4.493   5.043  19.345  1.4364 -1.5581  0.6224
 3458TIP3   OH234568   6.550   0.053  19.174  0.2291  0.2112 -0.9380
 3458TIP3    H134569   6.632   0.013  19.147 -0.6699 -2.3361 -0.1513
 3458TIP3    H234570   6.488  -0.020  19.179 -1.0809  1.3525  2.3728
 3459TIP3   OH234571   2.477   2.741  17.737 -0.4477  0.3444 -0.4217
 3459TIP3    H134572   2.472   2.748  17.833  0.5626  1.7225 -0.4227
 3459TIP3    H234573   2.482   2.647  17.720  0.2858  0.1006  0.9526
 3460TIP3   OH234574   0.916   4.843  19.280 -0.2261 -0.4732 -0.2233
 3460TIP3    H134575   0.996   4.890  19.304 -0.6774  0.8858 -1.2347
 3460TIP3    H234576   0.852   4.868  19.346 -0.2230 -0.3410 -0.2689
 3461TIP3   OH234577   2.835   6.212  16.605  0.4166 -0.3587  0.4370
 3461TIP3    H134578   2.829   6.255  16.520 -0.7445 -1.8809 -0.3000
 3461TIP3    H234579   2.788   6.270  16.665 -1.2594 -0.6349 -0.5586
 3462TIP3   OH234580   2.149   0.286  18.931  0.0652 -0.0337 -0.4745
 3462TIP3    H134581   2.201   0.367  18.929  1.1564 -0.7018 -0.0586
 3462TIP3    H234582   2.189   0.234  19.001 -1.1191 -0.6219 -0.2061
 3463TIP3   OH234583   2.150   6.440  18.285 -0.1818 -0.4899  0.1826
 3463TIP3    H134584   2.117   6.530  18.284 -0.4395 -0.5876 -0.1853
 3463TIP3    H234585   2.073   6.386  18.266 -0.5995 -0.9733  2.7947
 3464TIP3   OH234586   3.134   5.016  18.857 -0.1733  0.3209  0.3381
 3464TIP3    H134587   3.079   4.939  18.871 -2.1623  1.5572 -0.3061
 3464TIP3    H234588   3.081   5.075  18.803  1.7320  1.6759 -0.1807
 3465TIP3   OH234589   0.275   3.430  18.546  0.0676  0.4593 -0.5736
 3465TIP3    H134590   0.259   3.507  18.601 -1.1951  0.1375 -0.4667
 3465TIP3    H234591   0.194   3.418  18.497  0.6530 -0.1493 -1.4090
 3466TIP3   OH234592   4.201   0.393  17.669 -0.5515  0.0903  0.4650
 3466TIP3    H134593   4.133   0.460  17.677  0.7282  1.4252  0.6459
 3466TIP3    H234594   4.185   0.354  17.583 -1.7877  0.0649  0.6797
 3467TIP3   OH234595   5.847   3.269  18.674 -0.1166 -0.3065  0.1163
 3467TIP3    H134596   5.795   3.223  18.609  0.9007 -1.0507 -0.1986
 3467TIP3    H234597   5.826   3.227  18.757 -0.7413  0.0486  0.1431
 3468TIP3   OH234598   4.689   5.525  18.698 -0.6062 -0.0496  0.5082
 3468TIP3    H134599   4.641   5.464  18.754 -0.5859 -1.0270 -0.5161
 3468TIP3    H234600   4.777   5.488  18.693 -0.3413  0.5560  0.5955
 3469TIP3   OH234601   3.535   3.847  18.586 -0.2498 -0.0461 -0.4583
 3469TIP3    H134602   3.568   3.872  18.672 -0.9457 -2.1891  0.4918
 3469TIP3    H234603   3.475   3.918  18.562  1.2997  1.4780 -0.0570
 3470TIP3   OH234604   0.143   3.606  18.151  0.1713  0.7209  0.0110
 3470TIP3    H134605   0.058   3.622  18.110  0.0322 -0.4670 -0.2098
 3470TIP3    H234606   0.185   3.541  18.095  0.5394  0.0900  0.9860
 3471TIP3   OH234607   6.183   3.337  17.576  0.0927 -0.1239  0.0096
 3471TIP3    H134608   6.253   3.335  17.511 -0.3251 -0.5861 -0.4385
 3471TIP3    H234609   6.142   3.422  17.565  0.6683  0.2141  0.3778
 3472TIP3   OH234610   7.446   3.505  19.031  0.0064  0.0698  0.3954
 3472TIP3    H134611   7.402   3.420  19.043 -1.7487  0.8917  0.0590
 3472TIP3    H234612   7.405   3.562  19.096 -0.8797  1.3772 -1.2431
 3473TIP3   OH234613   0.559   5.614  17.034 -0.0538  0.8625  0.1583
 3473TIP3    H134614   0.500   5.542  17.012  1.6727 -0.0994 -1.6420
 3473TIP3    H234615   0.578   5.601  17.127  0.4463 -1.2386 -0.1839
 3474TIP3   OH234616   0.592   3.744  19.478 -0.0352 -0.3168  0.4371
 3474TIP3    H134617   0.648   3.767  19.404 -1.3053 -1.4166 -0.9306
 3474TIP3    H234618   0.622   3.657  19.505 -0.2804 -0.3842  0.4996
 3475TIP3   OH234619   4.040   2.743  19.610 -0.1074  0.3411  1.1658
 3475TIP3    H134620   3.948   2.768  19.608  0.0829  1.1627  1.7518
 3475TIP3    H234621   4.083   2.817  19.654  0.8223 -0.0427  0.9209
 3476TIP3   OH234622   0.720   6.865  18.895  0.1965  0.1462 -0.1018
 3476TIP3    H134623   0.789   6.911  18.943 -0.8376  1.0870  0.5406
 3476TIP3    H234624   0.695   6.925  18.825  0.0846 -0.2229 -0.3831
 3477TIP3   OH234625   4.254   0.925  19.304 -0.5341 -0.2500  0.2385
 3477TIP3    H134626   4.239   0.833  19.326 -1.5070  0.4926  3.1261
 3477TIP3    H234627   4.167   0.959  19.283 -0.2817  0.1869 -0.1118
 3478TIP3   OH234628   5.038   2.072  17.232  0.1721  0.3111 -0.1400
 3478TIP3    H134629   5.042   2.078  17.136 -1.4222 -2.8058 -0.5056
 3478TIP3    H234630   4.945   2.077  17.252  0.3731 -0.7385  1.0951
 3479TIP3   OH234631   3.461   5.980  18.051 -0.1652  0.3220  0.3900
 3479TIP3    H134632   3.553   6.000  18.034 -0.1286 -0.6254 -0.6754
 3479TIP3    H234633   3.455   5.885  18.038 -1.4196  0.4670 -0.2014
 3480TIP3   OH234634   3.540   4.320  18.984  0.1881 -0.5042 -0.1201
 3480TIP3    H134635   3.477   4.249  18.974 -1.1325  0.3108  1.7998
 3480TIP3    H234636   3.566   4.317  19.076  0.5890  1.0793 -0.1467
 3481TIP3   OH234637   5.917   3.581  18.141  0.1908 -0.2915  0.2302
 3481TIP3    H134638   5.853   3.571  18.212 -1.5946  1.0019 -1.0902
 3481TIP3    H234639   5.927   3.675  18.131  1.3708 -0.4676 -0.4254
 3482TIP3   OH234640   2.305   2.170  17.991  0.4704 -0.0970  0.0478
 3482TIP3    H134641   2.276   2.259  18.012 -0.5000 -0.8014  2.0077
 3482TIP3    H234642   2.269   2.153  17.904 -0.8061  0.8530  0.3498
 3483TIP3   OH234643   6.419   3.908  17.808 -0.8362  0.0699 -0.0698
 3483TIP3    H134644   6.476   3.952  17.745  0.8876 -0.4473  1.0345
 3483TIP3    H234645   6.427   3.815  17.787 -1.0045 -0.0279  0.2844
 3484TIP3   OH234646   5.555   0.158  18.069 -0.2697  0.6797  0.5116
 3484TIP3    H134647   5.548   0.062  18.060 -0.2062  0.5601  1.5824
 3484TIP3    H234648   5.577   0.189  17.981 -0.9323 -0.2281  0.0065
 3485TIP3   OH234649   4.687   7.148  17.501 -0.1377  0.0892  0.1094
 3485TIP3    H134650   4.706   7.073  17.444  0.6044 -0.8628  1.5646
 3485TIP3    H234651   4.667   7.220  17.440  2.1761 -0.4557 -1.4232
 3486TIP3   OH234652   3.766   0.047  18.271  0.1253 -0.2577  0.9102
 3486TIP3    H134653   3.790   0.139  18.255 -0.8999  0.6109  3.8476
 3486TIP3    H234654   3.675   0.041  18.240 -0.2036  0.0782  1.7734
 3487TIP3   OH234655   2.456   4.068  17.397 -0.3862  0.0740 -0.1159
 3487TIP3    H134656   2.389   4.000  17.391 -1.4102  1.1456 -1.8422
 3487TIP3    H234657   2.419   4.130  17.461  1.1695 -1.5411  2.5180
 3488TIP3   OH234658   6.476   2.026  19.183  0.0733 -0.2129  0.1005
 3488TIP3    H134659   6.528   2.092  19.230 -0.3226  1.1428 -1.3059
 3488TIP3    H234660   6.507   1.942  19.218  1.9213  0.6317  0.6021
 3489TIP3   OH234661   0.989   6.217  19.330 -0.1392 -0.3349 -0.1951
 3489TIP3    H134662   1.067   6.162  19.338  0.1949 -0.1248 -1.5875
 3489TIP3    H234663   0.917   6.154  19.317 -0.0033 -0.5019 -0.1476
 3490TIP3   OH234664   1.009   4.992  18.155 -0.2052 -0.1232 -0.7695
 3490TIP3    H134665   1.007   5.045  18.075 -0.3023 -1.2964 -1.5657
 3490TIP3    H234666   0.931   4.937  18.150  0.7901 -1.5782 -0.8423
 3491TIP3   OH234667   6.802   0.835  17.876  0.5156  0.6593  0.4126
 3491TIP3    H134668   6.823   0.749  17.838 -1.0962  0.5390 -0.2616
 3491TIP3    H234669   6.844   0.834  17.962 -0.7726 -1.4484  1.0980
 3492TIP3   OH234670   7.527   7.584  18.790  0.2018  0.2069 -0.2409
 3492TIP3    H134671   7.559   7.657  18.738  0.1136 -1.2662 -2.5248
 3492TIP3    H234672   7.585   7.511  18.766 -0.4175 -0.7594  1.0716
 3493TIP3   OH234673   0.520   4.148  17.702  0.1634 -0.0836 -0.3525
 3493TIP3    H134674   0.610   4.118  17.687  0.0754 -0.0547 -0.9954
 3493TIP3    H234675   0.488   4.093  17.773  1.1344  0.8439  0.8401
 3494TIP3   OH234676   2.474   5.071  19.509 -0.0469  0.3429  0.1627
 3494TIP3    H134677   2.421   4.993  19.527 -1.3512  0.6307 -2.0398
 3494TIP3    H234678   2.509   5.057  19.421 -0.5665  2.3609 -0.4267
 3495TIP3   OH234679   4.887   7.191  18.963  0.1410 -0.1318  0.2166
 3495TIP3    H134680   4.840   7.242  18.898 -0.7233 -1.6700 -0.4250
 3495TIP3    H234681   4.821   7.167  19.028  0.6888  0.1703  0.8984
 3496TIP3   OH234682   4.310   3.897  17.313 -0.1788 -0.2568  0.0355
 3496TIP3    H134683   4.345   3.947  17.386 -0.6179  0.8390 -0.4709
 3496TIP3    H234684   4.271   3.819  17.353  1.1819 -0.5925  0.7675
 3497TIP3   OH234685   6.731   5.336  18.967 -0.2758  0.2226 -0.0027
 3497TIP3    H134686   6.724   5.284  19.046  0.2249  3.0748  2.0909
 3497TIP3    H234687   6.640   5.358  18.944 -0.3749  1.0185  1.0416
 3498TIP3   OH234688   3.470   1.664  19.296  0.3258  0.7514 -0.1772
 3498TIP3    H134689   3.485   1.749  19.256  2.0173  0.0701 -1.0670
 3498TIP3    H234690   3.454   1.605  19.222 -1.9120  0.4390  0.4709
 3499TIP3   OH234691   1.507   5.922  18.235  0.4522  0.2982  0.1204
 3499TIP3    H134692   1.413   5.903  18.244  0.5370  0.5172  1.6458
 3499TIP3    H234693   1.519   6.004  18.282  1.4422  0.1954  0.0557
 3500TIP3   OH234694   3.730   4.325  17.726  0.2701  0.4484 -0.0092
 3500TIP3    H134695   3.770   4.408  17.700  0.0939  0.2126 -1.0754
 3500TIP3    H234696   3.677   4.347  17.803  0.5143  1.2537 -0.0684
 3501TIP3   OH234697   4.646   5.833  18.431 -0.1588  0.4361 -0.0852
 3501TIP3    H134698   4.658   5.883  18.512  0.8070  0.6374 -0.3412
 3501TIP3    H234699   4.725   5.780  18.422 -0.2823  0.3610 -0.8552
 3502TIP3   OH234700   0.382   0.131  17.875 -0.6639  0.4301 -0.3977
 3502TIP3    H134701   0.296   0.103  17.844 -0.6304 -0.0029 -0.1150
 3502TIP3    H234702   0.371   0.223  17.898 -0.7267  0.7265 -1.5322
 3503TIP3   OH234703   2.045   1.820  16.992  0.1455  0.0837  0.1128
 3503TIP3    H134704   2.074   1.904  16.957  2.4240  0.9990  3.6083
 3503TIP3    H234705   2.105   1.756  16.954 -0.4097  0.2636 -1.1229
 3504TIP3   OH234706   1.017   0.847  19.414 -0.4430 -0.4245 -0.2221
 3504TIP3    H134707   0.954   0.829  19.484 -0.4613 -0.8758 -0.3502
 3504TIP3    H234708   0.982   0.923  19.368 -1.4879 -1.3541 -0.9977
 3505TIP3   OH234709   6.289   3.780  18.694  0.1037  0.1905  0.1224
 3505TIP3    H134710   6.205   3.774  18.739  0.0335  1.3337  0.1867
 3505TIP3    H234711   6.347   3.722  18.743 -0.1990  0.7448  1.1787
 3506TIP3   OH234712   1.197   7.528  17.506 -0.0997 -0.1184 -0.0130
 3506TIP3    H134713   1.195   7.433  17.497 -0.6382 -0.5653  3.5258
 3506TIP3    H234714   1.106   7.553  17.519  0.2473  0.5423  1.3432
 3507TIP3   OH234715   7.139   5.466  18.489  0.2666  0.4299 -0.2806
 3507TIP3    H134716   7.221   5.428  18.522  0.0009  0.6296  0.6549
 3507TIP3    H234717   7.158   5.559  18.480 -0.1391  0.6399  0.8994
 3508TIP3   OH234718   4.707   7.444  16.805 -0.4414 -0.7526 -0.1998
 3508TIP3    H134719   4.763   7.381  16.758 -0.4614 -1.1356  0.2883
 3508TIP3    H234720   4.766   7.516  16.827  0.1612 -1.6714  1.3426
 3509TIP3   OH234721   4.122   7.633  16.614  0.0576 -0.3772 -0.6135
 3509TIP3    H134722   4.083   7.621  16.528 -3.4583 -0.6764  0.8481
 3509TIP3    H234723   4.087   7.717  16.645 -0.3404 -1.1697  1.2236
 3510TIP3   OH234724   2.183   5.654  17.958 -0.3199  0.4758  0.6146
 3510TIP3    H134725   2.106   5.686  18.005 -0.1391 -0.9498  1.9431
 3510TIP3    H234726   2.208   5.574  18.004 -0.5183 -1.4074 -2.3002
 3511TIP3   OH234727   7.243   0.297  16.739 -0.2731  0.0557 -0.3672
 3511TIP3    H134728   7.212   0.207  16.753  0.3004 -0.2108 -0.7647
 3511TIP3    H234729   7.311   0.289  16.673  1.4193  0.4602  1.2411
 3512TIP3   OH234730   0.312   3.682  18.751  0.3739  0.7113 -0.0548
 3512TIP3    H134731   0.229   3.729  18.751  0.2342  0.5031 -1.5294
 3512TIP3    H234732   0.365   3.727  18.685  0.6801 -0.4258 -0.5979
 3513TIP3   OH234733   4.143   6.105  17.976 -0.3027  0.2195 -0.4268
 3513TIP3    H134734   4.070   6.166  17.968  0.0904  0.7660  0.0341
 3513TIP3    H234735   4.172   6.114  18.066 -0.9269 -1.4756 -0.0216
 3514TIP3   OH234736   3.235   1.525  18.313 -0.1412 -0.3220 -0.3436
 3514TIP3    H134737   3.330   1.517  18.320 -0.2397 -1.1975  0.1048
 3514TIP3    H234738   3.210   1.579  18.388 -0.0742 -0.6980 -0.0507
 3515TIP3   OH234739   2.471   3.375  18.601  0.1645 -0.2996 -0.5947
 3515TIP3    H134740   2.380   3.355  18.579  0.0085  0.7800 -0.9727
 3515TIP3    H234741   2.468   3.397  18.694  0.4149 -2.3704 -0.0420
 3516TIP3   OH234742   2.141   6.403  17.582  0.2910  0.1298  0.0886
 3516TIP3    H134743   2.120   6.496  17.569  1.6705  0.5745  0.7992
 3516TIP3    H234744   2.215   6.404  17.643  0.0600 -1.4650  0.4280
 3517TIP3   OH234745   1.643   0.483  16.618  0.3863 -0.6269  0.3127
 3517TIP3    H134746   1.578   0.434  16.668  0.0737 -0.9405 -0.3815
 3517TIP3    H234747   1.616   0.471  16.526 -0.6836  2.1657  0.1573
 3518TIP3   OH234748   2.129   4.328  16.944 -0.1828  0.3643 -0.3861
 3518TIP3    H134749   2.082   4.346  16.863  2.1188  0.8898 -1.6844
 3518TIP3    H234750   2.220   4.347  16.924  0.5717 -0.1773  2.1402
 3519TIP3   OH234751   0.827   6.124  18.736  0.5748 -0.2087 -0.6388
 3519TIP3    H134752   0.841   6.044  18.685 -2.4488 -1.6419  0.5338
 3519TIP3    H234753   0.737   6.116  18.769  1.0179  2.5286  1.6038
 3520TIP3   OH234754   3.996   4.387  18.324 -0.6081  0.1481  0.1262
 3520TIP3    H134755   3.924   4.345  18.276 -0.9282 -0.6709  1.2635
 3520TIP3    H234756   3.977   4.368  18.416  1.9426 -1.6079  0.4156
 3521TIP3   OH234757   0.662   2.598  18.688 -0.1833  0.0115  0.7497
 3521TIP3    H134758   0.683   2.553  18.606 -1.6940 -0.4396  0.5795
 3521TIP3    H234759   0.631   2.529  18.746 -1.4581  0.6607  0.8674
 3522TIP3   OH234760   2.625   2.429  19.217 -0.3656 -0.1804  0.4896
 3522TIP3    H134761   2.581   2.349  19.244  0.2770 -0.3752  0.9937
 3522TIP3    H234762   2.606   2.437  19.124  0.9077 -1.8096  0.0492
 3523TIP3   OH234763   3.378   4.377  18.412 -0.1460 -0.1236 -0.5126
 3523TIP3    H134764   3.367   4.281  18.409 -0.6357 -0.0501 -1.3485
 3523TIP3    H234765   3.338   4.408  18.331  0.9540  0.7149 -0.7550
 3524TIP3   OH234766   6.905   3.291  19.608  0.1798 -0.0176  0.0252
 3524TIP3    H134767   6.949   3.298  19.693 -0.2360  1.7631  0.1370
 3524TIP3    H234768   6.848   3.368  19.604 -1.9226 -1.5153 -0.6964
 3525TIP3   OH234769   6.662   3.350  18.544  0.0207  0.5343 -0.2459
 3525TIP3    H134770   6.625   3.434  18.520  0.4224  0.4770 -1.0900
 3525TIP3    H234771   6.683   3.308  18.461 -0.1735 -0.4019  0.1620
 3526TIP3   OH234772   2.912   1.710  16.879  1.1177 -0.2027 -0.0529
 3526TIP3    H134773   2.933   1.629  16.925  3.9537  1.3462  1.6837
 3526TIP3    H234774   2.961   1.703  16.796  0.6014 -0.6293 -0.3275
 3527TIP3   OH234775   7.388   0.770  16.866 -0.1816 -0.1500  0.1605
 3527TIP3    H134776   7.401   0.678  16.842  0.4871 -0.0174 -0.0240
 3527TIP3    H234777   7.297   0.788  16.842 -0.0418 -0.5032 -0.6935
 3528TIP3   OH234778   6.945   0.929  17.634 -0.4076  0.4666 -0.3763
 3528TIP3    H134779   6.872   0.882  17.593 -0.0218 -1.1112  0.6707
 3528TIP3    H234780   6.922   0.932  17.727  0.8976 -0.1678 -0.0127
 3529TIP3   OH234781   2.250   7.070  17.161  0.1965  0.3195 -0.0653
 3529TIP3    H134782   2.261   7.037  17.072 -0.4081 -1.3132  0.4381
 3529TIP3    H234783   2.258   6.993  17.217 -1.0915  1.0319  1.1747
 3530TIP3   OH234784   0.246   2.797  18.857  0.0578 -0.0752  0.0808
 3530TIP3    H134785   0.321   2.846  18.823  0.6154 -1.9471 -1.5217
 3530TIP3    H234786   0.202   2.763  18.779 -0.8160 -1.3883  1.1059
 3531TIP3   OH234787   5.433   4.950  17.288 -0.4262  0.5802  0.6990
 3531TIP3    H134788   5.426   5.042  17.313 -1.1160  0.7452 -0.0703
 3531TIP3    H234789   5.343   4.919  17.283 -0.2144 -0.0560  0.6430
 3532TIP3   OH234790   6.146   2.852  19.400 -0.1701  0.3200 -0.1548
 3532TIP3    H134791   6.151   2.774  19.345 -2.6557 -1.3608  1.7525
 3532TIP3    H234792   6.141   2.925  19.338 -1.8956 -1.3721 -2.1829
 3533TIP3   OH234793   1.916   5.627  18.795 -0.0966  0.2162  0.3763
 3533TIP3    H134794   1.836   5.656  18.751 -0.0480  0.1805  0.2648
 3533TIP3    H234795   1.889   5.548  18.843  0.6108 -1.9215 -2.4458
 3534TIP3   OH234796   5.125   4.564  17.807 -0.8025 -1.1038 -0.8134
 3534TIP3    H134797   5.146   4.613  17.728 -1.3412  0.6811  0.0967
 3534TIP3    H234798   5.161   4.477  17.791  3.6789  0.5097 -1.0472
 3535TIP3   OH234799   1.387   3.419  17.492 -0.3694 -0.3130  0.0484
 3535TIP3    H134800   1.409   3.341  17.440  0.6266  0.0367 -0.0812
 3535TIP3    H234801   1.379   3.386  17.581 -1.1243 -0.7598 -0.1777
 3536TIP3   OH234802   1.276   3.096  18.989  0.1899 -0.0084 -0.0852
 3536TIP3    H134803   1.270   3.186  19.018 -0.3189 -0.1672  0.3041
 3536TIP3    H234804   1.285   3.045  19.070  3.5889 -0.0858 -0.3835
 3537TIP3   OH234805   2.764   0.273  17.697 -0.0816  0.3881  0.1217
 3537TIP3    H134806   2.669   0.266  17.683 -0.3122  1.7384  0.8260
 3537TIP3    H234807   2.772   0.295  17.790  0.8528  1.4861 -0.2029
 3538TIP3   OH234808   6.118   2.697  18.709 -0.5078  0.0174  0.2615
 3538TIP3    H134809   6.039   2.733  18.748  0.3426  2.5935 -0.2216
 3538TIP3    H234810   6.088   2.652  18.631 -1.6061 -0.0846  0.7244
 3539TIP3   OH234811   0.548   4.023  18.389  0.4436 -0.5202 -0.2335
 3539TIP3    H134812   0.637   4.044  18.417  0.2014  0.2524 -0.0153
 3539TIP3    H234813   0.547   4.041  18.295  0.2125  0.5791 -0.0331
 3540TIP3   OH234814   1.717   0.737  16.778 -0.1168 -0.1428  0.1236
 3540TIP3    H134815   1.788   0.779  16.729  1.0230 -1.0765  0.9218
 3540TIP3    H234816   1.707   0.652  16.736  0.9752 -1.0133  1.5576
 3541TIP3   OH234817   3.373   3.937  17.588 -0.1679  0.1402  0.0808
 3541TIP3    H134818   3.425   4.016  17.577 -0.3340  0.4090  1.0714
 3541TIP3    H234819   3.387   3.912  17.680 -0.3482 -0.8118 -0.1426
 3542TIP3   OH234820   3.159   1.084  19.516 -0.2496 -0.5357  0.3205
 3542TIP3    H134821   3.205   1.167  19.507 -1.0277 -0.0146  1.0301
 3542TIP3    H234822   3.071   1.101  19.481  0.3915 -1.8640 -2.2272
 3543TIP3   OH234823   7.254   4.532  18.269 -0.0099 -0.4172  0.3859
 3543TIP3    H134824   7.187   4.524  18.337 -0.6213  1.8475  0.1246
 3543TIP3    H234825   7.324   4.581  18.311 -0.9485  2.1736 -0.9067
 3544TIP3   OH234826   5.112   0.165  18.210  0.2751 -0.1040 -0.2268
 3544TIP3    H134827   5.017   0.155  18.197  0.2623 -1.6417  0.7562
 3544TIP3    H234828   5.137   0.234  18.150 -1.7159  1.3758  0.5239
 3545TIP3   OH234829   1.462   2.388  16.815  0.2870 -0.2384  0.4151
 3545TIP3    H134830   1.534   2.431  16.768  1.1617 -1.0351  0.9922
 3545TIP3    H234831   1.386   2.443  16.797  1.2951  1.3795  0.8412
 3546TIP3   OH234832   3.697   6.756  17.066  0.1009 -0.0038  0.4340
 3546TIP3    H134833   3.612   6.717  17.047 -0.6005  2.0404 -1.0669
 3546TIP3    H234834   3.692   6.844  17.028  2.7546  0.3283  0.6302
 3547TIP3   OH234835   1.671   6.101  17.339  0.1685 -0.3003  0.3154
 3547TIP3    H134836   1.765   6.115  17.354  0.4428  0.1013 -1.5154
 3547TIP3    H234837   1.650   6.022  17.388  1.1614  0.2975  1.7903
 3548TIP3   OH234838   5.188   5.435  18.511  0.2037  0.2027  0.3103
 3548TIP3    H134839   5.269   5.480  18.486  0.3436  1.1499  2.2762
 3548TIP3    H234840   5.216   5.370  18.575 -0.4705 -0.1942  0.2011
 3549TIP3   OH234841   5.136   5.237  19.147 -0.1997 -0.3005  0.8421
 3549TIP3    H134842   5.073   5.301  19.180 -1.2116 -1.0663  0.4401
 3549TIP3    H234843   5.214   5.288  19.127 -1.3585  0.9903 -0.5488
 3550TIP3   OH234844   4.866   5.184  17.754 -0.6207 -0.4426  0.0046
 3550TIP3    H134845   4.910   5.155  17.674  0.8586  0.1284  0.5756
 3550TIP3    H234846   4.858   5.279  17.744  0.1981 -0.2761  0.8128
 3551TIP3   OH234847   0.308   1.715  17.008 -0.0062  0.1871 -0.4544
 3551TIP3    H134848   0.216   1.710  16.983 -0.1298  1.6700 -0.3587
 3551TIP3    H234849   0.347   1.775  16.945  0.7142  0.2417  0.0351
 3552TIP3   OH234850   5.593   4.817  19.058 -0.2594  0.1483  0.1622
 3552TIP3    H134851   5.569   4.908  19.074 -1.9177 -0.0834 -0.7825
 3552TIP3    H234852   5.543   4.768  19.123  0.3131 -0.1356  0.3970
 3553TIP3   OH234853   1.245   7.606  16.796 -0.2249  0.2378 -0.1612
 3553TIP3    H134854   1.216   7.696  16.777  0.4617  0.6378  0.6315
 3553TIP3    H234855   1.334   7.616  16.830  0.1226 -0.8109 -0.7162
 3554TIP3   OH234856   1.145   0.109  17.984 -0.1800  0.3437 -0.1467
 3554TIP3    H134857   1.234   0.073  17.987  0.7178  2.4774  0.5091
 3554TIP3    H234858   1.098   0.051  17.924  1.2610 -1.6307  0.5453
 3555TIP3   OH234859   6.043   1.458  18.785  0.1484  0.8574 -0.4986
 3555TIP3    H134860   6.103   1.483  18.855 -0.0213 -1.0832  0.4239
 3555TIP3    H234861   5.960   1.501  18.806 -0.3292 -0.8164  1.3913
 3556TIP3   OH234862   1.521   3.653  18.098 -0.1669 -0.0423 -0.0615
 3556TIP3    H134863   1.503   3.686  18.186  2.0686  1.2566 -0.0091
 3556TIP3    H234864   1.473   3.713  18.040 -1.6902 -0.9350  0.2318
 3557TIP3   OH234865   0.890   7.046  18.023  0.0656 -0.3067 -0.3955
 3557TIP3    H134866   0.917   7.136  18.040 -0.0452 -0.1579 -0.9938
 3557TIP3    H234867   0.898   7.002  18.108 -0.7987  0.5045  0.1290
 3558TIP3   OH234868   3.425   6.310  18.905 -0.0053  0.0971 -0.8961
 3558TIP3    H134869   3.482   6.360  18.964  0.3794 -1.8968  0.5206
 3558TIP3    H234870   3.436   6.219  18.932 -2.0426 -0.6033 -2.1865
 3559TIP3   OH234871   6.134   2.654  17.312  0.1215 -0.6240 -0.3074
 3559TIP3    H134872   6.060   2.673  17.254  0.4616  1.5639 -0.1435
 3559TIP3    H234873   6.100   2.669  17.400  0.9513  1.4460 -0.2795
 3560TIP3   OH234874   0.911   3.285  17.137  0.2369 -0.9414  0.3281
 3560TIP3    H134875   0.919   3.196  17.171  1.2024 -1.1539 -0.4230
 3560TIP3    H234876   0.897   3.274  17.043 -1.7975 -0.3439  0.4948
 3561TIP3   OH234877   1.917   3.487  18.619  0.1842 -0.0208 -0.3417
 3561TIP3    H134878   1.872   3.570  18.604  1.4081  1.0982  1.6603
 3561TIP3    H234879   1.879   3.454  18.701  1.0968 -0.4113 -0.0629
 3562TIP3   OH234880   0.467   0.833  19.358  0.2136  0.1243  0.0318
 3562TIP3    H134881   0.472   0.788  19.274 -1.7055  0.0652 -0.0840
 3562TIP3    H234882   0.432   0.768  19.419 -0.2443  0.7378  0.4346
 3563TIP3   OH234883   4.457   3.367  17.572 -0.0999  0.4140  0.2748
 3563TIP3    H134884   4.430   3.278  17.547  0.7843 -0.9412  3.5078
 3563TIP3    H234885   4.507   3.399  17.497 -0.6291 -1.7216 -1.0852
 3564TIP3   OH234886   5.272   7.567  18.626 -0.4880  0.3256 -0.0464
 3564TIP3    H134887   5.282   7.615  18.543  0.4979  1.2622  0.5810
 3564TIP3    H234888   5.353   7.516  18.633 -1.1627 -0.7950 -0.2940
 3565TIP3   OH234889   1.681   0.335  19.135 -0.0263 -0.6451  0.2823
 3565TIP3    H134890   1.643   0.356  19.221  1.0559 -1.1701  0.9139
 3565TIP3    H234891   1.724   0.416  19.107 -0.6264 -0.3872  0.0927
 3566TIP3   OH234892   2.132   3.061  18.481 -0.2820  0.1429 -0.1965
 3566TIP3    H134893   2.121   3.087  18.390 -2.8832 -2.0601 -0.6753
 3566TIP3    H234894   2.155   2.968  18.477  0.6237  0.2582  1.3979
 3567TIP3   OH234895   7.607   0.730  17.648 -0.1203 -0.2161  0.1517
 3567TIP3    H134896   7.558   0.699  17.572 -0.1195  0.1254  0.0117
 3567TIP3    H234897   7.541   0.767  17.706  0.0786  1.3679 -0.5760
 3568TIP3   OH234898   0.599   5.831  18.694 -0.4578 -0.0134  0.0491
 3568TIP3    H134899   0.682   5.868  18.664 -1.1925 -0.2140 -2.4694
 3568TIP3    H234900   0.533   5.892  18.662 -1.3755 -0.6427  0.6899
 3569TIP3   OH234901   2.887   5.665  17.566  0.3434  0.2173  0.5074
 3569TIP3    H134902   2.866   5.709  17.483 -0.6245 -3.2102 -1.2575
 3569TIP3    H234903   2.803   5.656  17.610  0.1715 -1.4838 -0.1004
 3570TIP3   OH234904   6.626   1.707  18.808 -0.4414 -0.4615 -0.4593
 3570TIP3    H134905   6.619   1.709  18.903 -1.7349 -1.8962 -0.4895
 3570TIP3    H234906   6.545   1.750  18.778  0.5708  1.2136 -0.9553
 3571TIP3   OH234907   3.607   1.484  17.379  0.1529  0.2966 -0.3720
 3571TIP3    H134908   3.649   1.570  17.365 -1.8723  1.0565 -2.4040
 3571TIP3    H234909   3.524   1.505  17.422  0.7092 -0.9558  1.4380
 3572TIP3   OH234910   2.566   3.556  18.859  0.1961  1.1965 -0.3601
 3572TIP3    H134911   2.491   3.543  18.917  1.0708 -0.4446  0.4495
 3572TIP3    H234912   2.609   3.635  18.893  0.6330  0.3265  1.2226
 3573TIP3   OH234913   0.580   1.970  16.616  0.1622 -0.6706 -0.0640
 3573TIP3    H134914   0.601   2.036  16.549 -1.5886  0.7164  0.6512
 3573TIP3    H234915   0.587   2.017  16.699 -0.9839 -1.3998  0.4775
 3574TIP3   OH234916   1.404   6.203  17.736 -0.3741  0.2151 -0.1214
 3574TIP3    H134917   1.376   6.266  17.802  1.0382  1.7141 -0.8795
 3574TIP3    H234918   1.455   6.138  17.785 -0.1463  0.7826  0.3994
 3575TIP3   OH234919   0.916   2.191  17.881 -0.3817  0.9250  0.0419
 3575TIP3    H134920   0.898   2.241  17.960  2.8509  2.5373 -0.0926
 3575TIP3    H234921   0.997   2.144  17.900  0.9074  1.9418 -2.4816
 3576TIP3   OH234922   4.788   0.330  18.801 -0.0090 -0.4034 -0.4042
 3576TIP3    H134923   4.819   0.339  18.892 -1.1144 -0.6527  0.0206
 3576TIP3    H234924   4.815   0.242  18.775 -0.0987 -0.5107 -0.1436
 3577TIP3   OH234925   7.311   6.208  18.342  0.7688  0.4056  0.0924
 3577TIP3    H134926   7.330   6.126  18.297 -0.7572  0.2678 -0.3694
 3577TIP3    H234927   7.305   6.183  18.435  1.1201  0.1508  0.0475
 3578TIP3   OH234928   3.734   2.679  19.429 -0.0255 -0.1291 -0.1009
 3578TIP3    H134929   3.759   2.590  19.453  0.6866 -0.3660 -1.6331
 3578TIP3    H234930   3.657   2.668  19.374  0.0971  0.1912 -0.3369
 3579TIP3   OH234931   1.201   5.109  17.530  0.1808  0.0336 -0.2015
 3579TIP3    H134932   1.220   5.096  17.623 -0.0302  0.2068 -0.1320
 3579TIP3    H234933   1.119   5.160  17.529 -0.2726 -0.6861 -0.4903
 3580TIP3   OH234934   5.482   6.583  17.272  0.4438 -0.4454  0.1083
 3580TIP3    H134935   5.486   6.652  17.205  1.0607 -0.6153 -0.0412
 3580TIP3    H234936   5.553   6.605  17.333 -1.0312  0.5413  1.5544
 3581TIP3   OH234937   5.035   6.248  18.770 -0.1755  0.3207  0.4047
 3581TIP3    H134938   4.960   6.264  18.712 -0.3699  1.3433  0.9172
 3581TIP3    H234939   5.052   6.155  18.760 -2.7814 -0.4087  1.7614
 3582TIP3   OH234940   3.798   2.004  18.394  0.1320  0.0911  0.1068
 3582TIP3    H134941   3.871   1.961  18.349 -0.8034 -0.1377 -1.2859
 3582TIP3    H234942   3.782   2.084  18.342  0.1161  0.7355  1.0741
 3583TIP3   OH234943   5.621   2.174  17.367  0.2270 -0.6342  0.5185
 3583TIP3    H134944   5.581   2.258  17.389  0.4797 -0.7407  1.4159
 3583TIP3    H234945   5.633   2.177  17.272 -0.1750  0.1613  0.4902
 3584TIP3   OH234946   5.460   2.641  19.767  0.0931  0.0841  0.3183
 3584TIP3    H134947   5.542   2.668  19.725 -0.8239  0.9299 -1.0272
 3584TIP3    H234948   5.461   2.546  19.761  1.4281  0.0156  1.2451
 3585TIP3   OH234949   0.298   4.177  17.244 -0.6417  0.0050 -0.0135
 3585TIP3    H134950   0.376   4.127  17.221 -1.6092 -2.0667  0.8939
 3585TIP3    H234951   0.257   4.198  17.159  2.3615  3.9827 -0.7860
 3586TIP3   OH234952   4.585   3.848  17.071  0.1813 -0.4318  0.1917
 3586TIP3    H134953   4.562   3.808  16.988 -1.4532 -1.4384  1.0978
 3586TIP3    H234954   4.642   3.921  17.046 -0.9670 -0.1491 -1.8735
 3587TIP3   OH234955   3.822   2.417  19.381  0.5935 -0.1727 -0.4352
 3587TIP3    H134956   3.843   2.354  19.312  0.8092 -0.3502 -0.2070
 3587TIP3    H234957   3.907   2.443  19.417  0.4378 -1.2017  0.7672
 3588TIP3   OH234958   2.864   6.371  16.937 -0.3852  0.2004 -0.1707
 3588TIP3    H134959   2.828   6.397  16.852  2.9358  0.3939 -1.6908
 3588TIP3    H234960   2.927   6.440  16.959  0.3379 -0.8962  1.4102
 3589TIP3   OH234961   0.960   5.905  18.358 -0.0300 -0.3002 -0.1518
 3589TIP3    H134962   0.934   5.813  18.355  0.8186 -0.5662  0.4528
 3589TIP3    H234963   0.938   5.939  18.271  1.5670 -1.6065 -1.1188
 3590TIP3   OH234964   4.895   6.477  19.130  0.2156  0.7900 -0.2981
 3590TIP3    H134965   4.903   6.382  19.127 -0.7520  0.7110 -1.9904
 3590TIP3    H234966   4.975   6.507  19.174 -0.2211 -0.8577  1.7615
 3591TIP3   OH234967   2.848   5.484  19.505  0.1127  0.2288 -0.0050
 3591TIP3    H134968   2.856   5.572  19.469  1.8468 -0.0952 -0.4625
 3591TIP3    H234969   2.754   5.464  19.498 -0.2929  1.9683 -0.0090
 3592TIP3   OH234970   6.664   4.070  18.578  0.4028 -0.3918 -0.9246
 3592TIP3    H134971   6.647   4.029  18.493 -0.6156  0.3155 -1.0823
 3592TIP3    H234972   6.611   4.150  18.577 -0.6674 -1.0217  0.8951
 3593TIP3   OH234973   3.261   5.239  19.346 -0.5141 -0.0947 -0.6339
 3593TIP3    H134974   3.206   5.303  19.302 -1.4382 -0.7693 -0.4911
 3593TIP3    H234975   3.220   5.226  19.431  0.4847  0.1867 -0.0945
 3594TIP3   OH234976   7.553   4.361  18.450  0.0167  0.5090 -0.5203
 3594TIP3    H134977   7.523   4.318  18.530 -1.6334 -0.7034 -1.7365
 3594TIP3    H234978   7.563   4.290  18.387  0.9156  1.4894 -1.5287
 3595TIP3   OH234979   5.141   5.459  17.883  0.2020 -0.1773  0.4918
 3595TIP3    H134980   5.120   5.455  17.976 -0.9741  2.1501  0.4122
 3595TIP3    H234981   5.057   5.449  17.838  0.5560  0.0237 -0.2394
 3596TIP3   OH234982   5.170   4.970  17.348  0.3880  0.0351  0.5581
 3596TIP3    H134983   5.166   4.988  17.442  1.2274 -1.4477  0.9068
 3596TIP3    H234984   5.092   5.012  17.312 -0.2785  0.0978  1.9998
 3597TIP3   OH234985   1.208   1.862  19.154 -0.1870  0.1778 -0.3710
 3597TIP3    H134986   1.202   1.876  19.248 -1.0698  1.3259 -0.5721
 3597TIP3    H234987   1.144   1.793  19.136 -0.6992  0.6156 -0.2472
 3598TIP3   OH234988   4.754   2.975  18.200  0.2792 -0.0414 -0.4751
 3598TIP3    H134989   4.714   2.919  18.266  0.0269  0.2280 -0.3951
 3598TIP3    H234990   4.847   2.976  18.223  0.4032 -0.9953 -0.9093
 3599TIP3   OH234991   4.777   0.461  19.491 -0.5055 -0.2029 -0.9338
 3599TIP3    H134992   4.696   0.445  19.443 -0.6873  0.1245 -0.7422
 3599TIP3    H234993   4.752   0.524  19.559 -0.3873 -1.1085 -0.0283
 3600TIP3   OH234994   2.102   1.460  18.760 -0.1197 -0.0536  0.3931
 3600TIP3    H134995   2.067   1.427  18.843  0.7226  0.5138  0.9972
 3600TIP3    H234996   2.027   1.462  18.701 -0.1381 -3.7965  0.0165
 3601TIP3   OH234997   4.977   3.807  17.492  0.0861  0.1618 -0.1834
 3601TIP3    H134998   4.945   3.726  17.451 -0.4702  0.1359  0.2922
 3601TIP3    H234999   4.977   3.871  17.420  0.2643 -0.1839 -0.4968
 3602TIP3   OH235000   6.438   3.833  17.097  0.1022 -0.1409  0.3272
 3602TIP3    H135001   6.392   3.915  17.076 -1.6052 -1.1810 -0.1734
 3602TIP3    H235002   6.369   3.773  17.124  1.6009 -0.6460  3.4730
 3603TIP3   OH235003   7.588   5.862  17.176 -0.0918 -0.5199 -0.4570
 3603TIP3    H135004   7.591   5.899  17.265  0.4017 -1.1859 -0.1865
 3603TIP3    H235005   7.679   5.863  17.147 -0.3502  0.4087 -1.2698
 3604TIP3   OH235006   1.591   2.530  17.425  0.5731 -0.3903  0.2570
 3604TIP3    H135007   1.546   2.528  17.340  0.1669  1.7077  0.3544
 3604TIP3    H235008   1.550   2.460  17.476 -1.5370  0.4323 -0.2022
 3605TIP3   OH235009   3.712   5.424  18.208  0.1365 -1.0587  1.0230
 3605TIP3    H135010   3.674   5.510  18.225  0.3981 -0.4387 -1.2166
 3605TIP3    H235011   3.638   5.363  18.217 -0.4255 -0.3968  0.9545
 3606TIP3   OH235012   4.045   3.443  18.892  0.1117 -0.2401  0.1546
 3606TIP3    H135013   4.053   3.533  18.861 -2.6706  0.5887  1.5732
 3606TIP3    H235014   4.136   3.417  18.910  1.1778  1.5477 -2.0595
 3607TIP3   OH235015   1.933   6.385  18.593  0.1432  0.6028 -0.6961
 3607TIP3    H135016   1.989   6.313  18.623  0.4850  1.2607  0.3210
 3607TIP3    H235017   1.973   6.463  18.632 -1.0707  1.1634 -0.5483
 3608TIP3   OH235018   3.937   5.339  16.909  0.0862  0.0645  0.2477
 3608TIP3    H135019   3.914   5.303  16.995  1.1819  2.5951  1.7228
 3608TIP3    H235020   4.017   5.294  16.884  1.0364  0.8369  1.7137
 3609TIP3   OH235021   5.039   7.086  17.364 -0.1735 -0.3932  1.0197
 3609TIP3    H135022   5.013   7.163  17.415 -0.9418 -1.0476  1.6451
 3609TIP3    H235023   5.036   7.014  17.427 -0.2424 -1.0679  0.2507
 3610TIP3   OH235024   1.927   7.662  17.986 -0.0062  0.5121  0.4879
 3610TIP3    H135025   1.944   7.577  18.026  2.4819  2.0193  3.0121
 3610TIP3    H235026   1.849   7.695  18.031  0.9530  0.8917  1.9174
 3611TIP3   OH235027   4.530   0.968  17.175 -0.6265 -0.6194 -0.1185
 3611TIP3    H135028   4.515   0.983  17.268 -0.1250  1.7254 -0.3601
 3611TIP3    H235029   4.537   0.873  17.167  3.0388 -0.8643  2.8826
 3612TIP3   OH235030   1.677   2.961  17.981 -1.3904  0.0445  0.5017
 3612TIP3    H135031   1.678   3.046  18.024  2.2675  0.5076 -0.1722
 3612TIP3    H235032   1.666   2.981  17.888 -0.4360 -0.1587  0.3303
 3613TIP3   OH235033   2.108   1.853  18.246 -0.2986 -0.2611  0.5581
 3613TIP3    H135034   2.171   1.822  18.181  0.1125  2.4725 -0.5155
 3613TIP3    H235035   2.023   1.844  18.203 -0.5729 -2.6100  1.4544
 3614TIP3   OH235036   0.797   4.730  16.763  0.0655  0.3150 -0.0954
 3614TIP3    H135037   0.762   4.817  16.781  1.0293  0.5822  0.5947
 3614TIP3    H235038   0.723   4.680  16.728 -0.7997  1.0590  0.6388
 3615TIP3   OH235039   6.536   1.716  19.138 -0.5036 -0.0324  0.8171
 3615TIP3    H135040   6.630   1.733  19.123 -0.3216 -0.3993  1.5285
 3615TIP3    H235041   6.533   1.673  19.223 -1.2169 -1.1023  0.2552
 3616TIP3   OH235042   7.645   3.733  19.099 -0.2503 -0.1421 -0.1407
 3616TIP3    H135043   7.636   3.665  19.033 -0.8489  0.2024 -0.4308
 3616TIP3    H235044   7.601   3.809  19.061  2.5147  1.2170 -0.9266
 3617TIP3   OH235045   5.942   7.009  17.733  0.6577  0.2075  0.0308
 3617TIP3    H135046   5.847   7.010  17.747  0.4631 -1.0333 -1.0019
 3617TIP3    H235047   5.958   7.084  17.676 -0.0980 -0.9243 -1.7715
 3618TIP3   OH235048   3.206   4.542  18.573 -0.0322 -0.0332 -0.4991
 3618TIP3    H135049   3.269   4.473  18.551 -0.0904  0.7208 -3.3589
 3618TIP3    H235050   3.120   4.500  18.561 -0.0663  0.2103 -1.1182
 3619TIP3   OH235051   5.798   1.687  17.269 -0.4156 -0.2615 -0.2554
 3619TIP3    H135052   5.716   1.733  17.286 -0.7861 -1.3117  0.9385
 3619TIP3    H235053   5.851   1.751  17.222 -1.4760  0.8517 -0.0099
 3620TIP3   OH235054   0.163   6.579  17.603  0.1389 -0.0947  0.6204
 3620TIP3    H135055   0.233   6.640  17.624 -0.4656  0.9722 -0.3355
 3620TIP3    H235056   0.083   6.630  17.614 -0.3075 -0.0528 -2.1627
 3621TIP3   OH235057   2.691   2.469  17.779 -0.4473  0.1083 -0.8123
 3621TIP3    H135058   2.683   2.496  17.870 -2.5830 -2.0521 -0.2523
 3621TIP3    H235059   2.785   2.469  17.761  0.0477  0.0482  1.5568
 3622TIP3   OH235060   2.967   5.171  18.716 -0.6052 -0.4618  0.3934
 3622TIP3    H135061   2.889   5.149  18.665 -0.2648 -1.1639  0.1618
 3622TIP3    H235062   2.954   5.262  18.742 -0.9287 -0.1928 -0.6853
 3623TIP3   OH235063   4.747   0.936  19.005 -0.2331  0.1113 -0.6761
 3623TIP3    H135064   4.763   1.030  18.997  0.0809  0.4117  2.3137
 3623TIP3    H235065   4.652   0.929  19.019 -0.0443  0.1742  0.7415
 3624TIP3   OH235066   0.475   2.386  16.823  0.2669 -0.3944 -0.1275
 3624TIP3    H135067   0.472   2.389  16.728 -1.3012  0.2105 -0.0732
 3624TIP3    H235068   0.440   2.470  16.851  1.5606 -0.1913  0.9978
 3625TIP3   OH235069   3.341   7.150  17.976  0.3142 -1.1002 -0.4522
 3625TIP3    H135070   3.360   7.151  17.882 -2.8285  0.7260 -1.2078
 3625TIP3    H235071   3.320   7.058  17.994  1.8825 -1.6616 -1.2419
 3626TIP3   OH235072   2.514   6.614  16.610 -0.4183  0.3249 -0.3835
 3626TIP3    H135073   2.476   6.662  16.683  0.1036 -1.1103  0.8929
 3626TIP3    H235074   2.455   6.539  16.598 -0.8832  0.8960 -1.9277
 3627TIP3   OH235075   6.486   3.405  19.321  0.1484  0.2125 -0.1336
 3627TIP3    H135076   6.408   3.368  19.281 -0.6945  3.2119 -1.5250
 3627TIP3    H235077   6.481   3.378  19.412 -2.5057  0.2233 -0.1945
 3628TIP3   OH235078   7.193   6.600  19.006  0.4327 -0.3361 -0.6193
 3628TIP3    H135079   7.198   6.552  19.088  2.4875  0.2100 -0.3655
 3628TIP3    H235080   7.183   6.691  19.032 -0.2616 -0.2972 -1.0127
 3629TIP3   OH235081   1.439   7.418  17.826 -0.6851 -0.1315 -0.4151
 3629TIP3    H135082   1.472   7.427  17.737 -0.7629  3.2127 -0.2139
 3629TIP3    H235083   1.403   7.329  17.829  0.5151 -0.8377 -3.2473
 3630TIP3   OH235084   7.290   3.418  17.457  0.0795 -0.1703  0.6348
 3630TIP3    H135085   7.330   3.369  17.529  0.9627  0.2597  0.4474
 3630TIP3    H235086   7.239   3.352  17.409 -0.2584 -0.5286  1.4492
 3631TIP3   OH235087   7.654   6.283  17.104 -0.3429  0.0570  0.1402
 3631TIP3    H135088   7.653   6.216  17.035 -1.3539  0.5940 -0.3926
 3631TIP3    H235089   7.562   6.291  17.130 -0.0147  0.0911  1.3465
 3632TIP3   OH235090   0.039   3.378  18.377  0.0821  0.4821 -0.1590
 3632TIP3    H135091  -0.014   3.298  18.373 -0.9911  1.0277  1.8750
 3632TIP3    H235092   0.099   3.371  18.302 -2.6753 -0.2581 -2.4477
 3633TIP3   OH235093   0.418   2.260  17.381 -0.0754 -0.3798  0.6020
 3633TIP3    H135094   0.510   2.235  17.392  0.1538  0.4904  0.6959
 3633TIP3    H235095   0.398   2.239  17.290  0.5350  0.4438  0.2732
 3634TIP3   OH235096   1.262   0.944  18.782 -0.6510 -0.1397 -0.0479
 3634TIP3    H135097   1.196   0.972  18.845 -0.7776  1.3064 -0.7912
 3634TIP3    H235098   1.286   1.024  18.735  0.8772 -0.8253 -0.4944
 3635TIP3   OH235099   7.308   7.252  17.165  0.3341  0.3622 -0.0060
 3635TIP3    H135100   7.346   7.338  17.185 -0.4474  0.4598  1.1720
 3635TIP3    H235101   7.380   7.191  17.181  1.0139  0.8147 -1.2493
 3636TIP3   OH235102   7.141   0.049  16.807  0.4292  0.0768  0.5669
 3636TIP3    H135103   7.092   0.037  16.726 -1.2304  0.6783  1.4354
 3636TIP3    H235104   7.208  -0.020  16.805 -0.4188 -0.7492 -0.6900
 3637TIP3   OH235105   0.036   5.459  17.576 -0.2283  0.2335 -0.0961
 3637TIP3    H135106  -0.025   5.531  17.559  0.1712  0.4246 -0.7506
 3637TIP3    H235107   0.014   5.393  17.509  0.6633  0.5490 -0.7103
 3638TIP3   OH235108   2.043   1.653  17.304 -0.2139 -0.4302  0.4053
 3638TIP3    H135109   2.104   1.666  17.231  0.6456 -0.8166  1.0410
 3638TIP3    H235110   2.016   1.561  17.296  1.4374 -1.0752  1.7128
 3639TIP3   OH235111   4.779   1.239  18.433 -0.1778 -0.2908 -0.2263
 3639TIP3    H135112   4.743   1.151  18.447  0.5708 -0.6047 -0.1996
 3639TIP3    H235113   4.847   1.247  18.499 -0.7724  0.6334  0.2920
 3640TIP3   OH235114   6.984   6.306  19.165  0.1727  0.0139  0.2777
 3640TIP3    H135115   6.984   6.273  19.255  0.6261  1.7435  0.9578
 3640TIP3    H235116   7.067   6.275  19.128  1.2099  1.3999  1.3304
 3641TIP3   OH235117   1.609   2.302  17.599 -0.6798 -0.5470 -0.2450
 3641TIP3    H135118   1.585   2.234  17.535 -0.4091 -1.0297  0.1610
 3641TIP3    H235119   1.599   2.259  17.684 -1.3987  0.2038  0.0679
 3642TIP3   OH235120   3.447   3.388  17.121  0.3878 -0.0361  0.1493
 3642TIP3    H135121   3.356   3.401  17.094 -0.1716 -2.7031  0.4199
 3642TIP3    H235122   3.499   3.417  17.046 -0.5922  2.3922  0.3386
 3643TIP3   OH235123   1.275   3.750  18.842 -0.3825 -0.2510  0.0390
 3643TIP3    H135124   1.221   3.675  18.867 -0.2572 -0.7719 -1.1925
 3643TIP3    H235125   1.361   3.713  18.825 -0.7539 -0.1497 -2.3172
 3644TIP3   OH235126   1.318   4.665  18.439 -0.2829  0.4300  0.3196
 3644TIP3    H135127   1.250   4.726  18.412 -2.2969 -0.9230  2.0276
 3644TIP3    H235128   1.309   4.590  18.381  0.1188  0.4406  0.2337
 3645TIP3   OH235129   3.298   5.273  17.596 -0.0001 -0.0545 -0.1663
 3645TIP3    H135130   3.290   5.179  17.586  1.9180 -0.3428  0.6289
 3645TIP3    H235131   3.242   5.294  17.671 -0.5516 -0.5185 -0.4396
 3646TIP3   OH235132   4.117   2.587  18.725 -0.2617 -0.8515 -0.1852
 3646TIP3    H135133   4.052   2.654  18.704 -0.1788 -0.7276 -0.0471
 3646TIP3    H235134   4.071   2.504  18.709 -0.0008 -0.7664 -1.4847
 3647TIP3   OH235135   4.855   1.891  18.123 -0.1122  0.4184 -0.1539
 3647TIP3    H135136   4.773   1.865  18.165 -0.5374  0.7392 -0.7738
 3647TIP3    H235137   4.923   1.839  18.167 -0.9244 -1.8792 -1.4429
 3648TIP3   OH235138   3.790   4.922  18.537 -0.0436  0.0952 -0.1901
 3648TIP3    H135139   3.749   4.977  18.604 -0.6974  0.6907 -1.0493
 3648TIP3    H235140   3.785   4.975  18.457 -0.1648 -0.9857 -0.9201
 3649TIP3   OH235141   2.772   5.814  19.031 -0.3770 -0.2855 -0.0297
 3649TIP3    H135142   2.796   5.863  19.110  1.6360  0.7527 -1.2087
 3649TIP3    H235143   2.692   5.857  19.000  0.9977  1.9708 -0.6970
 3650TIP3   OH235144   3.292   3.795  16.858 -0.4603  0.4888  0.7858
 3650TIP3    H135145   3.371   3.795  16.913  0.7060 -1.5041 -0.7356
 3650TIP3    H235146   3.310   3.862  16.791  0.5920 -0.7942 -0.2920
 3651TIP3   OH235147   1.483   3.205  17.343  0.2330  0.5748  0.2451
 3651TIP3    H135148   1.501   3.195  17.250  0.3741  0.7880  0.2478
 3651TIP3    H235149   1.566   3.183  17.386  1.6562  4.7645  0.1002
 3652TIP3   OH235150   7.236   0.113  17.854 -0.1750  0.2872 -0.0158
 3652TIP3    H135151   7.281   0.198  17.850  2.4267 -1.0422 -0.9798
 3652TIP3    H235152   7.158   0.126  17.800  2.0856  1.1082 -3.4603
 3653TIP3   OH235153   3.803   7.464  19.370 -0.4226 -0.6350  0.6803
 3653TIP3    H135154   3.771   7.417  19.294 -1.0746 -2.1758  1.8549
 3653TIP3    H235155   3.729   7.519  19.397 -0.4751 -0.7122  0.6930
 3654TIP3   OH235156   3.473   5.941  16.980  0.0653 -0.6362  0.1429
 3654TIP3    H135157   3.432   5.901  16.903  0.2607  0.2572 -0.4389
 3654TIP3    H235158   3.400   5.983  17.026  0.2375  0.6392 -0.6976
 3655TIP3   OH235159   6.601   3.914  19.014 -0.1281 -0.1063 -0.6603
 3655TIP3    H135160   6.614   3.852  19.085  2.3069  1.7338  0.6501
 3655TIP3    H235161   6.622   3.865  18.935  1.7835 -1.0098  0.3446
 3656TIP3   OH235162   4.201   4.518  18.191  0.1002 -0.1279 -0.6005
 3656TIP3    H135163   4.138   4.463  18.238  0.3349  0.2251  0.1534
 3656TIP3    H235164   4.176   4.607  18.214  1.7657 -0.0019  0.9501
 3657TIP3   OH235165   4.124   1.986  18.231  0.6092 -0.5788  0.0337
 3657TIP3    H135166   4.101   1.899  18.265  1.9820 -1.0855 -0.2798
 3657TIP3    H235167   4.131   2.041  18.309  0.4760 -0.9376  0.2996
 3658TIP3   OH235168   6.753   0.902  19.229  0.4431  0.0429 -0.1856
 3658TIP3    H135169   6.755   0.903  19.134  0.1618 -1.2228 -0.2264
 3658TIP3    H235170   6.672   0.948  19.252  0.6128  0.5238 -0.5431
 3659TIP3   OH235171   5.560   7.449  18.648  0.1328  0.2771  0.0105
 3659TIP3    H135172   5.532   7.381  18.709  1.8524 -0.2892  0.2220
 3659TIP3    H235173   5.625   7.500  18.698 -0.8392  1.8699 -0.2681
 3660TIP3   OH235174   3.389   6.947  18.929 -0.1016  0.3612 -0.1966
 3660TIP3    H135175   3.417   7.006  18.999 -1.4823 -0.4011  1.0389
 3660TIP3    H235176   3.434   6.865  18.947 -0.5094  0.1436 -0.1566
 3661TIP3   OH235177   2.694   2.658  19.420 -0.9849 -0.0643  0.1432
 3661TIP3    H135178   2.671   2.568  19.399 -0.4796 -0.1246 -0.1733
 3661TIP3    H235179   2.775   2.651  19.471 -1.3402  0.1732  0.7533
 3662TIP3   OH235180   7.029   3.825  19.146 -0.0204 -0.5032 -0.1484
 3662TIP3    H135181   7.064   3.909  19.117 -0.4601 -0.2701 -0.0042
 3662TIP3    H235182   7.106   3.774  19.170  0.2162  0.0769  0.3535
 3663TIP3   OH235183   7.103   1.561  17.805 -0.2068 -0.0390  0.0052
 3663TIP3    H135184   7.059   1.524  17.729 -0.3045  1.1396 -0.5433
 3663TIP3    H235185   7.037   1.561  17.874  0.3290 -2.5267  0.5831
 3664TIP3   OH235186   6.939   6.336  16.863  0.0892 -0.8285 -0.0621
 3664TIP3    H135187   6.951   6.410  16.803  0.0190  0.6096  1.6166
 3664TIP3    H235188   6.855   6.298  16.837 -1.3492  1.5203  0.8269
 3665TIP3   OH235189   0.112   6.301  17.931  0.3222 -0.0835 -0.0549
 3665TIP3    H135190   0.196   6.260  17.953  0.1181 -0.6553 -0.3311
 3665TIP3    H235191   0.093   6.358  18.005  0.3387 -0.9100  0.5946
 3666TIP3   OH235192   5.861   1.796  19.281  0.0648 -0.2868  0.4571
 3666TIP3    H135193   5.852   1.890  19.270 -0.2499 -0.5499 -2.0945
 3666TIP3    H235194   5.952   1.783  19.307  0.6582  0.6241 -1.0443
 3667TIP3   OH235195   3.195   2.959  17.656 -0.3236 -0.3822  0.3049
 3667TIP3    H135196   3.257   2.911  17.601 -0.6701 -0.5527  0.0613
 3667TIP3    H235197   3.109   2.927  17.630 -0.5819  0.5505 -0.0408
 3668TIP3   OH235198   2.157   0.744  19.030 -0.0149  0.0747  0.1029
 3668TIP3    H135199   2.101   0.820  19.044 -0.5909 -0.2209 -0.5596
 3668TIP3    H235200   2.192   0.724  19.117 -1.5273 -0.1740  0.6907
 3669TIP3   OH235201   5.451   0.002  19.007  0.1976 -0.1163 -0.1492
 3669TIP3    H135202   5.507   0.080  19.012 -0.3659  0.2640  0.2564
 3669TIP3    H235203   5.385   0.024  18.941  0.0041 -0.2311  0.0065
 3670TIP3   OH235204   3.025   3.281  18.452 -0.6279  0.1851  0.1757
 3670TIP3    H135205   3.048   3.220  18.522 -0.4944  1.2172  1.0635
 3670TIP3    H235206   3.108   3.324  18.429 -1.0231  1.3993  0.9274
 3671TIP3   OH235207   5.666   4.605  19.506  0.2161 -0.5831 -0.4567
 3671TIP3    H135208   5.698   4.586  19.595  0.0600  0.0580 -0.2606
 3671TIP3    H235209   5.575   4.577  19.507  0.0252  0.0201 -0.2070
 3672TIP3   OH235210   1.154   0.244  17.604  0.4266  0.1232  0.5658
 3672TIP3    H135211   1.196   0.320  17.646  1.1328 -0.4461  0.9128
 3672TIP3    H235212   1.227   0.188  17.579  0.0116  0.2747 -1.1222
 3673TIP3   OH235213   6.610   1.970  17.367 -0.3907 -0.0649 -0.1045
 3673TIP3    H135214   6.639   1.923  17.289 -2.0170 -0.7176 -0.3616
 3673TIP3    H235215   6.616   2.062  17.343 -0.4464 -0.2494 -0.8434
 3674TIP3   OH235216   0.961   7.261  18.956  0.0498  0.5842 -0.2348
 3674TIP3    H135217   0.893   7.257  18.889 -0.7718  0.9450  0.5592
 3674TIP3    H235218   1.042   7.242  18.909 -0.7237 -1.0353 -0.9834
 3675TIP3   OH235219   6.717   1.626  17.358 -0.7855  0.2761  0.3383
 3675TIP3    H135220   6.698   1.696  17.295  1.0346 -0.4006 -1.0385
 3675TIP3    H235221   6.632   1.585  17.375 -1.2709  0.0923 -2.2021
 3676TIP3   OH235222   4.638   6.860  17.998  0.0417  0.1899  0.1704
 3676TIP3    H135223   4.731   6.882  18.003  0.0621  0.0932  0.2301
 3676TIP3    H235224   4.599   6.929  17.946  0.7232 -1.5414 -2.8548
 3677TIP3   OH235225   4.999   0.913  19.143  0.4870 -0.0245 -0.0630
 3677TIP3    H135226   5.014   0.819  19.135  0.1299 -0.1185  0.3387
 3677TIP3    H235227   4.914   0.927  19.101  0.7285  0.1898 -0.4974
 3678TIP3   OH235228   2.764   4.014  19.336 -0.9378 -0.0837 -0.3073
 3678TIP3    H135229   2.816   3.961  19.396  0.3283 -0.2212 -1.4751
 3678TIP3    H235230   2.787   3.981  19.249 -1.5314  1.1469 -0.9584
 3679TIP3   OH235231   3.813   6.209  18.358 -0.1788  0.1655 -0.7823
 3679TIP3    H135232   3.766   6.292  18.363 -1.5451 -0.5372 -1.4329
 3679TIP3    H235233   3.749   6.146  18.325  0.7321 -1.2359 -0.0126
 3680TIP3   OH235234   0.176   1.466  19.065  0.1331  0.4140 -0.7271
 3680TIP3    H135235   0.130   1.382  19.060 -1.1036  1.0783 -0.7747
 3680TIP3    H235236   0.138   1.518  18.994 -0.9356  1.8821  0.8439
 3681TIP3   OH235237   3.334   5.504  17.875  0.3964  0.5970  0.3638
 3681TIP3    H135238   3.253   5.519  17.827  0.8195 -0.7474 -0.8514
 3681TIP3    H235239   3.315   5.429  17.931  0.7627  0.3139  0.1187
 3682TIP3   OH235240   7.498   5.979  19.090 -0.2639 -0.0953 -0.1607
 3682TIP3    H135241   7.492   6.006  18.998  0.2178 -1.1084 -0.5113
 3682TIP3    H235242   7.552   6.046  19.132 -0.2816  0.2433 -0.6706
 3683TIP3   OH235243   1.549   7.135  16.812 -0.4586 -0.0856  0.8728
 3683TIP3    H135244   1.497   7.210  16.839 -1.9620 -1.4381  1.9778
 3683TIP3    H235245   1.528   7.067  16.876 -1.3671 -2.3552 -1.6327
 3684TIP3   OH235246   6.509   7.248  17.554 -0.0156  0.5508 -0.1836
 3684TIP3    H135247   6.450   7.175  17.572  0.1115  0.7631  1.1940
 3684TIP3    H235248   6.500   7.305  17.631 -0.9198  2.5445 -1.6818
 3685TIP3   OH235249   6.765   0.193  18.057 -0.5687  0.2116 -0.2252
 3685TIP3    H135250   6.720   0.169  18.138 -1.1610 -0.1573 -0.6598
 3685TIP3    H235251   6.791   0.284  18.071 -0.4487  0.0798  0.4722
 3686TIP3   OH235252   5.987   6.719  18.808  0.5283  0.0804  0.3086
 3686TIP3    H135253   5.912   6.718  18.867  1.2042 -1.7811  1.2215
 3686TIP3    H235254   6.063   6.720  18.866  1.2270  0.6712 -0.5814
 3687TIP3   OH235255   6.699   0.747  17.217 -0.2315  0.0014  0.3766
 3687TIP3    H135256   6.627   0.785  17.167 -0.3567  0.8155  1.1640
 3687TIP3    H235257   6.777   0.793  17.186 -0.1724 -0.2101  0.2078
 3688TIP3   OH235258   2.925   4.635  18.102  0.7564 -0.5223  0.6575
 3688TIP3    H135259   2.866   4.560  18.112  0.0987 -0.2736 -1.0579
 3688TIP3    H235260   2.968   4.643  18.187 -0.1332 -2.0219  1.2856
 3689TIP3   OH235261   0.130   5.848  18.412  1.0027  0.0097 -0.0351
 3689TIP3    H135262   0.201   5.867  18.351  0.3839 -0.9821 -1.1061
 3689TIP3    H235263   0.051   5.877  18.367  0.7996  3.1755  2.0295
 3690TIP3   OH235264   4.447   1.979  18.219 -0.5111 -0.3239 -0.2335
 3690TIP3    H135265   4.483   2.003  18.134 -0.5910  0.8323  0.0321
 3690TIP3    H235266   4.352   1.980  18.206 -0.6859  2.5441  0.4462
 3691TIP3   OH235267   4.787   1.929  16.857  0.4410  0.4718  0.1598
 3691TIP3    H135268   4.865   1.885  16.823  0.9530  2.1690 -1.0005
 3691TIP3    H235269   4.814   2.021  16.867 -1.1392  0.9090  0.6224
 3692TIP3   OH235270   0.981   1.233  18.053 -0.3628  0.0469 -0.0946
 3692TIP3    H135271   0.934   1.316  18.063  0.3088  0.2932  1.2310
 3692TIP3    H235272   1.016   1.235  17.964 -1.1410  0.7623 -0.3934
 3693TIP3   OH235273   0.615   3.198  17.292 -0.7553  0.6746 -0.1036
 3693TIP3    H135274   0.614   3.146  17.212  0.0408  1.2726 -0.5165
 3693TIP3    H235275   0.559   3.273  17.272 -3.1427 -0.7139  1.0052
 3694TIP3   OH235276   3.549   6.681  18.291 -0.1638  0.3049 -0.6727
 3694TIP3    H135277   3.459   6.667  18.321  0.1130 -0.3388 -0.1070
 3694TIP3    H235278   3.559   6.776  18.291 -1.2028  0.4382 -1.8483
 3695TIP3   OH235279   0.021   4.752  19.202 -0.0753  0.3606 -0.0941
 3695TIP3    H135280   0.040   4.807  19.279 -0.1054  1.9456 -1.1689
 3695TIP3    H235281  -0.004   4.814  19.134 -1.0069 -1.0857 -1.1274
 3696TIP3   OH235282   7.019   3.743  19.671  0.3235 -0.1997 -0.1787
 3696TIP3    H135283   7.097   3.737  19.727  1.6354  2.5726 -1.5255
 3696TIP3    H235284   7.034   3.678  19.602  1.2788  0.0615 -0.2285
 3697TIP3   OH235285   7.348   2.019  17.884 -0.4241  0.0955  0.6813
 3697TIP3    H135286   7.298   2.019  17.966  0.7043  0.8901  1.3956
 3697TIP3    H235287   7.354   1.926  17.861 -1.6653 -0.0602  0.9183
 3698TIP3   OH235288   4.913   6.483  18.388 -0.1272 -0.6521 -0.1107
 3698TIP3    H135289   4.936   6.394  18.363  1.5156 -0.0115 -1.0544
 3698TIP3    H235290   4.919   6.483  18.484  1.5122 -1.1800 -0.1751
 3699TIP3   OH235291   7.190   7.643  19.241  0.0574 -0.2728 -0.0950
 3699TIP3    H135292   7.127   7.709  19.211  0.6536  0.5252  0.3746
 3699TIP3    H235293   7.202   7.662  19.334  1.2096 -0.2241 -0.2403
 3700TIP3   OH235294   0.821   2.822  18.449 -0.5902 -0.2078 -0.3322
 3700TIP3    H135295   0.751   2.777  18.402 -1.0579 -0.0611  0.2065
 3700TIP3    H235296   0.902   2.791  18.408 -0.7529 -3.1721  1.3266
 3701TIP3   OH235297   6.598   2.403  17.211 -0.8737 -0.4594 -0.5624
 3701TIP3    H135298   6.676   2.428  17.261 -1.9162  2.2267 -0.0981
 3701TIP3    H235299   6.622   2.320  17.171  2.1246  0.0861 -0.2117
 3702TIP3   OH235300   3.837   0.052  18.775  0.1445 -0.1950 -0.1559
 3702TIP3    H135301   3.855   0.139  18.740  1.3144 -0.4819 -0.3267
 3702TIP3    H235302   3.790   0.008  18.705 -0.9826  0.4728  0.1587
 3703TIP3   OH235303   5.550   5.902  18.278 -0.4818 -0.3406 -0.4834
 3703TIP3    H135304   5.569   5.994  18.297 -2.3582 -0.0129 -0.0219
 3703TIP3    H235305   5.636   5.862  18.265  0.7142  0.5545  3.4209
 3704TIP3   OH235306   5.296   2.461  20.023  0.4106  0.0234  0.1140
 3704TIP3    H135307   5.294   2.548  19.983 -1.5589  0.8364  1.8160
 3704TIP3    H235308   5.379   2.459  20.072  0.2964  1.0997  0.3628
 3705TIP3   OH235309   4.244   1.808  17.587  0.2385  0.0833  0.1056
 3705TIP3    H135310   4.308   1.747  17.551 -1.6601 -2.4877  0.7432
 3705TIP3    H235311   4.212   1.857  17.512 -0.5077 -2.0938 -1.0887
 3706TIP3   OH235312   1.982   7.163  18.311  0.2495  0.5107  0.1539
 3706TIP3    H135313   1.971   7.135  18.402 -2.0959  0.7308  0.0057
 3706TIP3    H235314   1.977   7.259  18.316  0.8325  0.5607 -0.1513
 3707TIP3   OH235315   1.389   5.899  19.498 -0.4837  0.4677 -0.1708
 3707TIP3    H135316   1.307   5.929  19.460 -0.7855 -0.8273 -0.6044
 3707TIP3    H235317   1.385   5.803  19.491  1.1005  0.3828 -0.2861
 3708TIP3   OH235318   3.424   1.506  18.702 -0.1818 -0.1132 -0.5123
 3708TIP3    H135319   3.378   1.453  18.766 -0.5836  0.1851 -0.5479
 3708TIP3    H235320   3.496   1.451  18.672 -0.4357 -0.5357 -0.3545
 3709TIP3   OH235321   1.316   4.810  17.975 -0.1932 -0.4666 -0.0037
 3709TIP3    H135322   1.257   4.746  18.015 -0.0788 -0.1638  0.6688
 3709TIP3    H235323   1.304   4.889  18.027  0.3504 -0.2162 -0.2504
 3710TIP3   OH235324   4.180   7.282  18.735 -0.0909  0.4019 -0.3287
 3710TIP3    H135325   4.105   7.223  18.724 -0.4956  0.8392  0.0586
 3710TIP3    H235326   4.185   7.297  18.829 -0.4499  1.5619 -0.4756
 3711TIP3   OH235327   6.696   4.342  18.245 -0.0308  0.1549  1.1443
 3711TIP3    H135328   6.762   4.334  18.314  1.7734 -3.7968 -0.7089
 3711TIP3    H235329   6.746   4.341  18.164 -2.2511 -0.0416 -0.3133
 3712TIP3   OH235330   2.462   1.714  18.826 -0.9092  0.0966 -0.3661
 3712TIP3    H135331   2.475   1.657  18.750 -1.0679  1.1107 -1.1713
 3712TIP3    H235332   2.429   1.656  18.895  1.8509 -1.4184 -0.1538
 3713TIP3   OH235333   5.901   2.056  19.529  0.1270 -0.2636 -0.0516
 3713TIP3    H135334   5.922   2.056  19.436 -0.5032 -0.8226 -0.1968
 3713TIP3    H235335   5.978   2.096  19.570  0.2544  0.3277 -0.8354
 3714TIP3   OH235336   0.526   5.694  19.242 -0.7418  0.3561  0.6883
 3714TIP3    H135337   0.543   5.753  19.168  1.2017 -1.1693 -0.1544
 3714TIP3    H235338   0.588   5.622  19.231 -0.1136  0.2209  4.0181
 3715TIP3   OH235339   5.140   3.303  17.399 -0.6471  0.0318  0.2527
 3715TIP3    H135340   5.066   3.357  17.427  1.3855  2.8072  0.6844
 3715TIP3    H235341   5.207   3.318  17.465  1.9883  1.5332 -2.5483
 3716TIP3   OH235342   6.531   0.531  18.986 -0.1431 -0.1288  0.0428
 3716TIP3    H135343   6.531   0.528  19.081  0.4015 -0.2610  0.0428
 3716TIP3    H235344   6.500   0.444  18.960 -1.4683  0.3139  0.0950
 3717TIP3   OH235345   4.245   4.493  18.586 -0.9430  0.3642 -0.2308
 3717TIP3    H135346   4.152   4.513  18.594 -1.1231 -0.6541  0.3553
 3717TIP3    H235347   4.272   4.467  18.674 -0.0338  0.9288 -0.3352
 3718TIP3   OH235348   1.029   2.225  19.023  0.1057 -0.0284  0.0938
 3718TIP3    H135349   1.020   2.320  19.032 -0.0764 -0.1231  0.9356
 3718TIP3    H235350   1.101   2.214  18.960 -0.5530  0.6623 -0.8108
 3719TIP3   OH235351   5.225   0.049  17.488 -0.0683 -0.3980  0.3003
 3719TIP3    H135352   5.251   0.083  17.403 -1.9001  0.5734  0.0834
 3719TIP3    H235353   5.138   0.086  17.504 -0.5464 -1.9889  1.7866
 3720TIP3   OH235354   6.124   4.783  19.152  0.1245  0.4444  0.1428
 3720TIP3    H135355   6.161   4.709  19.104  0.6346 -1.3315  3.0258
 3720TIP3    H235356   6.029   4.768  19.148  0.2156 -2.6044  3.5363
 3721TIP3   OH235357   2.423   2.932  18.800  0.3168  0.1753 -0.5974
 3721TIP3    H135358   2.330   2.954  18.799  0.3149  0.1710 -0.5507
 3721TIP3    H235359   2.467   3.014  18.821  0.3056  0.1223 -0.3634
 3722TIP3   OH235360   1.523   2.660  19.215 -0.5596 -0.1419 -0.7302
 3722TIP3    H135361   1.548   2.582  19.265  0.0090  0.5722  0.1245
 3722TIP3    H235362   1.454   2.629  19.155  0.2571 -1.4822 -1.0129
 3723TIP3   OH235363   6.210   1.941  17.571  0.5788 -0.0537  0.3033
 3723TIP3    H135364   6.173   1.891  17.497  1.4174 -0.0168 -0.1470
 3723TIP3    H235365   6.223   1.876  17.639  0.1530 -0.1566  0.2919
 3724TIP3   OH235366   4.198   5.858  19.387 -0.8827 -0.3994 -0.8228
 3724TIP3    H135367   4.234   5.911  19.316 -0.3963  2.7282  1.5013
 3724TIP3    H235368   4.103   5.867  19.379 -0.8125  0.4894 -0.7405
 3725TIP3   OH235369   7.278   6.517  19.243  0.8241  0.3869  0.3680
 3725TIP3    H135370   7.374   6.518  19.234  0.8593 -0.1855  0.6133
 3725TIP3    H235371   7.263   6.472  19.326  0.3479  0.7291  0.4682
 3726TIP3   OH235372   4.636   4.520  18.846 -0.5123 -0.2529  0.0443
 3726TIP3    H135373   4.682   4.596  18.812 -1.1146 -0.1123 -0.4715
 3726TIP3    H235374   4.697   4.447  18.833 -0.4450 -0.0721 -0.6625
 3727TIP3   OH235375   1.431   4.202  17.683  0.3407 -0.3464 -0.1590
 3727TIP3    H135376   1.443   4.283  17.633  0.3184 -0.6550 -0.6726
 3727TIP3    H235377   1.398   4.231  17.768 -0.6682  0.1188 -0.6915
 3728TIP3   OH235378   6.508   0.996  18.638  0.1591  0.3755  0.4881
 3728TIP3    H135379   6.508   1.070  18.698  0.3426 -0.6851  1.8408
 3728TIP3    H235380   6.437   0.939  18.669 -0.2593  0.1714 -0.7804
 3729TIP3   OH235381   2.060   4.673  18.442  0.8396  0.0084 -0.5067
 3729TIP3    H135382   1.967   4.656  18.451  0.9515 -0.4757 -0.2489
 3729TIP3    H235383   2.069   4.767  18.460  0.3323  0.1847 -1.1211
 3730TIP3   OH235384   2.924   1.342  19.086  0.7511 -0.6603  0.2754
 3730TIP3    H135385   2.857   1.278  19.063  0.2784 -0.0011 -0.2415
 3730TIP3    H235386   2.953   1.377  19.001  1.0696 -0.2550  0.5473
 3731TIP3   OH235387   7.677   2.599  18.215  0.0760 -0.2725  0.0311
 3731TIP3    H135388   7.676   2.670  18.279  0.9173  0.3077 -0.5618
 3731TIP3    H235389   7.659   2.642  18.131  0.8406 -0.7098 -0.3736
 3732TIP3   OH235390   4.159   0.963  18.890 -0.4491 -0.0246 -0.2411
 3732TIP3    H135391   4.215   0.887  18.876 -0.9466 -0.4747  0.1440
 3732TIP3    H235392   4.075   0.926  18.917 -0.7974  0.6533 -0.3667
 3733TIP3   OH235393   6.957   1.311  18.048 -0.0854 -0.0324 -0.3330
 3733TIP3    H135394   6.904   1.314  18.127 -0.8309 -1.4573 -0.7441
 3733TIP3    H235395   6.977   1.403  18.029 -1.1904  0.4306  0.6378
 3734TIP3   OH235396   6.260   5.496  16.867  0.2399 -0.1493  0.3192
 3734TIP3    H135397   6.340   5.474  16.819  0.9232  0.0468  1.3168
 3734TIP3    H235398   6.193   5.440  16.830  0.5559  0.5420 -1.3784
 3735TIP3   OH235399   0.871   5.365  17.207 -0.2059  0.1475  0.1660
 3735TIP3    H135400   0.860   5.428  17.135 -2.0180 -1.8265 -1.4445
 3735TIP3    H235401   0.823   5.287  17.177  1.1552 -1.6776  2.4443
 3736TIP3   OH235402   3.061   6.397  18.878  0.3178  0.0880 -0.0299
 3736TIP3    H135403   3.067   6.302  18.865  0.4819 -0.0166  0.7312
 3736TIP3    H235404   3.116   6.434  18.809 -1.2966 -0.2597 -1.5866
 3737TIP3   OH235405   3.963   5.882  17.859 -0.1636  0.4766 -0.1821
 3737TIP3    H135406   3.937   5.815  17.796  1.5547 -1.0868  0.6753
 3737TIP3    H235407   4.054   5.902  17.838  0.4297 -0.0220  1.6887
 3738TIP3   OH235408   6.940   0.501  19.085  0.0626 -0.4278  0.2808
 3738TIP3    H135409   7.020   0.484  19.136  0.3400  0.8902  0.3350
 3738TIP3    H235410   6.938   0.433  19.019  3.3834  1.5967 -2.2550
 3739TIP3   OH235411   3.744   6.035  17.318  0.4752 -0.3176  0.2558
 3739TIP3    H135412   3.699   6.120  17.314  0.9385 -0.0405  0.7190
 3739TIP3    H235413   3.813   6.041  17.252  0.9255 -0.0678  0.7297
 3740TIP3   OH235414   2.626   6.784  17.329 -0.1120  0.1880  0.1774
 3740TIP3    H135415   2.709   6.743  17.306  0.1732  1.2920 -0.9104
 3740TIP3    H235416   2.609   6.758  17.419  0.7807 -1.0677 -0.0072
 3741TIP3   OH235417   4.692   1.308  17.064  0.2014 -0.6642 -0.4159
 3741TIP3    H135418   4.668   1.316  17.156 -0.6699  1.7167 -0.7994
 3741TIP3    H235419   4.635   1.369  17.018  3.2401  1.2145 -2.0550
 3742TIP3   OH235420   4.445   0.991  17.442  0.3061 -0.2669  0.5676
 3742TIP3    H135421   4.393   1.058  17.487  1.6518  1.7878 -0.7689
 3742TIP3    H235422   4.474   0.933  17.512  0.9542  1.8531  2.1643
 3743TIP3   OH235423   6.762   5.647  18.404 -0.2111  0.1313 -0.2986
 3743TIP3    H135424   6.689   5.587  18.387 -0.6151 -0.4588  2.8563
 3743TIP3    H235425   6.804   5.611  18.483  1.0052  2.6763  0.3002
 3744TIP3   OH235426   6.739   6.273  18.596  0.1918 -0.1721 -0.1167
 3744TIP3    H135427   6.742   6.178  18.591 -0.3601 -0.2012  0.0004
 3744TIP3    H235428   6.797   6.296  18.669 -0.5903 -0.4995  0.6203
 3745TIP3   OH235429   1.844   6.744  17.213 -0.5687 -0.3084 -0.2522
 3745TIP3    H135430   1.800   6.827  17.231 -2.2655 -1.1016 -0.5366
 3745TIP3    H235431   1.909   6.765  17.145  0.8733  1.2576  1.5263
 3746TIP3   OH235432   1.918   4.580  17.776 -0.3939 -0.1380  0.4861
 3746TIP3    H135433   1.886   4.666  17.749 -2.0110 -1.2495 -1.4249
 3746TIP3    H235434   1.841   4.536  17.811 -0.2792 -1.7614 -1.1755
 3747TIP3   OH235435   1.435   4.502  18.963 -0.0146 -0.4386 -0.6726
 3747TIP3    H135436   1.395   4.493  18.877 -1.5082  1.5906 -0.2599
 3747TIP3    H235437   1.510   4.559  18.950  0.1669 -0.6959 -0.7471
 3748TIP3   OH235438   3.679   1.249  17.535 -0.7678 -0.1512  0.0227
 3748TIP3    H135439   3.632   1.312  17.480 -2.1672 -2.2832 -1.3504
 3748TIP3    H235440   3.649   1.269  17.624 -0.3771  1.7529 -0.2247
 3749TIP3   OH235441   4.194   7.623  19.095 -0.0334 -0.2699 -0.3744
 3749TIP3    H135442   4.250   7.695  19.123 -0.6090  0.4590 -1.0460
 3749TIP3    H235443   4.158   7.588  19.176 -0.4246  0.7792 -0.0692
 3750TIP3   OH235444   0.160   0.213  18.516 -0.1164 -0.4614  0.2010
 3750TIP3    H135445   0.204   0.211  18.601 -1.4946  0.7392  0.9757
 3750TIP3    H235446   0.205   0.145  18.465  1.7994 -0.1347  1.3303
 3751TIP3   OH235447   2.249   5.382  17.532 -0.8204 -0.0029  0.1651
 3751TIP3    H135448   2.185   5.452  17.516  0.3595  0.5664 -2.6796
 3751TIP3    H235449   2.199   5.301  17.525 -1.7463  0.4862  0.9532
 3752TIP3   OH235450   6.710   0.509  18.502  0.9872 -0.0848 -0.4687
 3752TIP3    H135451   6.719   0.437  18.564  0.4208 -0.0098 -0.2988
 3752TIP3    H235452   6.660   0.576  18.549  0.4040 -0.0929 -1.0563
 3753TIP3   OH235453   2.302   1.304  19.176  0.8442 -0.6337 -0.6415
 3753TIP3    H135454   2.289   1.247  19.100  2.6581 -0.3049 -1.2561
 3753TIP3    H235455   2.347   1.248  19.240 -0.2201 -0.7622  0.0203
 3754TIP3   OH235456   2.821   6.291  19.381 -0.2658 -0.0591  0.2485
 3754TIP3    H135457   2.756   6.361  19.376 -0.8274 -0.5826  0.1233
 3754TIP3    H235458   2.770   6.210  19.378  0.3004 -0.4784  1.4867
 3755TIP3   OH235459   5.688   1.933  16.464 -0.4660  0.5976 -0.0735
 3755TIP3    H135460   5.751   1.863  16.478  0.3490  1.2914 -0.1841
 3755TIP3    H235461   5.622   1.920  16.532  0.2788  0.3975  0.6221
 3756TIP3   OH235462   2.143   6.854  17.282 -0.0177  0.5771  0.0087
 3756TIP3    H135463   2.074   6.806  17.327  0.3501 -0.3804 -0.4024
 3756TIP3    H235464   2.104   6.880  17.199 -0.1907  0.9231  0.1959
 3757TIP3   OH235465   5.672   6.943  17.249 -0.0989 -0.0848 -0.6022
 3757TIP3    H135466   5.756   6.900  17.233 -0.0436 -0.0777 -0.3440
 3757TIP3    H235467   5.668   7.014  17.185 -0.1960 -0.4799 -1.0366
 3758TIP3   OH235468   5.164   5.049  16.968  0.0571  0.0301  0.3198
 3758TIP3    H135469   5.096   5.043  16.900  1.0704 -0.9052 -0.6586
 3758TIP3    H235470   5.169   5.142  16.989 -1.9191  0.0726  0.8624
 3759TIP3   OH235471   5.421   1.280  18.021 -0.1731  0.4447  0.0118
 3759TIP3    H135472   5.339   1.250  17.983 -0.2432 -1.0025  1.2257
 3759TIP3    H235473   5.402   1.292  18.114  0.7367  1.0645  0.1332
 3760TIP3   OH235474   7.083   1.242  17.787 -0.7645  0.2288 -0.3306
 3760TIP3    H135475   6.998   1.240  17.742 -1.5262 -1.6962  1.0527
 3760TIP3    H235476   7.060   1.248  17.880  0.6460  0.0628  0.0419
 3761TIP3   OH235477   3.205   2.362  18.295 -0.2504  0.2789  0.2942
 3761TIP3    H135478   3.166   2.444  18.326  1.1083  0.5524  1.4325
 3761TIP3    H235479   3.153   2.293  18.336 -1.3339  0.5596 -0.5815
 3762TIP3   OH235480   3.693   6.410  19.041 -0.1842  0.5052 -0.0132
 3762TIP3    H135481   3.702   6.462  18.961 -1.2423  0.2773 -0.2950
 3762TIP3    H235482   3.702   6.473  19.112 -2.7441  1.3831 -0.3465
 3763TIP3   OH235483   4.558   5.084  18.212 -0.1178 -0.2380 -0.2756
 3763TIP3    H135484   4.613   5.132  18.273 -0.8297  0.4389 -0.1491
 3763TIP3    H235485   4.619   5.030  18.161  0.5562 -0.1874  0.4703
 3764TIP3   OH235486   1.552   1.155  18.720  0.0995 -0.5808 -0.2821
 3764TIP3    H135487   1.541   1.120  18.808  0.5291  1.4648  0.6406
 3764TIP3    H235488   1.463   1.181  18.694  0.2210  0.6274  0.4024
 3765TIP3   OH235489   4.595   5.851  18.006 -0.5094 -0.3153  0.4193
 3765TIP3    H135490   4.637   5.928  17.968  1.6595 -1.0354  1.1611
 3765TIP3    H235491   4.665   5.809  18.057 -1.5908 -2.7870  0.0175
 3766TIP3   OH235492   4.020   1.619  18.435  0.3325 -0.2958 -0.2836
 3766TIP3    H135493   3.980   1.668  18.364 -0.7856  0.0097  0.5171
 3766TIP3    H235494   4.002   1.527  18.415  3.9070 -0.6600 -2.6846
 3767TIP3   OH235495   3.319   6.203  19.250 -0.6546  0.3503  0.3829
 3767TIP3    H135496   3.236   6.251  19.246 -0.5750  0.4707  0.1672
 3767TIP3    H235497   3.294   6.112  19.230 -0.8265  0.2691  0.9389
 3768TIP3   OH235498   2.008   0.593  17.636 -0.2387  0.1396 -0.6288
 3768TIP3    H135499   1.982   0.679  17.604  0.5032  0.6814  0.1875
 3768TIP3    H235500   2.075   0.611  17.702 -0.1027 -1.0617 -0.4177
 3769TIP3   OH235501   0.794   6.608  18.540 -0.0268 -0.1037 -0.1746
 3769TIP3    H135502   0.713   6.591  18.588  0.0838  0.7311  0.3340
 3769TIP3    H235503   0.857   6.545  18.576  0.1367  0.7030  1.0187
 3770TIP3   OH235504   7.545   1.518  18.300  0.1057 -0.2385  0.6503
 3770TIP3    H135505   7.630   1.499  18.339  0.5420 -1.2232 -0.7406
 3770TIP3    H235506   7.560   1.594  18.244 -0.4213  0.8855  1.9693
 3771TIP3   OH235507   2.445   0.364  18.574  0.0621  0.0314  0.3432
 3771TIP3    H135508   2.401   0.280  18.562 -0.0009  0.0486  0.4493
 3771TIP3    H235509   2.516   0.364  18.509 -0.3981  0.2112 -0.1596
 3772TIP3   OH235510   2.810   4.466  17.718 -0.2059 -0.1174  0.1861
 3772TIP3    H135511   2.726   4.513  17.720 -0.6247 -0.8530  0.2766
 3772TIP3    H235512   2.863   4.515  17.654 -0.2545  1.0737  1.0169
 3773TIP3   OH235513   5.043   3.300  18.300  0.0749 -0.1281 -0.2349
 3773TIP3    H135514   4.957   3.341  18.291  0.8041  1.6119  0.3439
 3773TIP3    H235515   5.034   3.240  18.373 -0.7024 -0.1163 -0.3205
 3774TIP3   OH235516   5.154   4.426  16.852  0.6141 -0.0244 -0.2401
 3774TIP3    H135517   5.168   4.419  16.758  0.7124 -0.4505 -0.1980
 3774TIP3    H235518   5.208   4.500  16.880  1.4175 -0.5566 -0.3558
 3775TIP3   OH235519   7.045   6.871  18.852 -0.2774  0.2288 -0.0468
 3775TIP3    H135520   7.127   6.910  18.882  0.8506 -1.7884 -0.3448
 3775TIP3    H235521   6.977   6.928  18.889  1.2019  1.1542  1.4072
 3776TIP3   OH235522   0.434   4.560  18.663 -0.5027 -0.4325  0.1355
 3776TIP3    H135523   0.419   4.542  18.756  0.7911 -1.3685  0.1840
 3776TIP3    H235524   0.368   4.625  18.640 -2.5701 -2.0815  1.0715
 3777TIP3   OH235525   4.399   0.185  19.005  0.0983  0.8291 -0.6081
 3777TIP3    H135526   4.436   0.251  18.947  0.7854  1.5687  0.6096
 3777TIP3    H235527   4.472   0.125  19.024  0.5780  1.9069  1.2651
 3778TIP3   OH235528   4.664   4.477  17.705  0.6846  0.3837 -0.2332
 3778TIP3    H135529   4.717   4.413  17.751  0.3351 -1.1964 -1.9034
 3778TIP3    H235530   4.579   4.476  17.750  1.2398  1.0286  0.8558
 3779TIP3   OH235531   0.822   3.708  17.736  0.3127  0.7183 -0.2630
 3779TIP3    H135532   0.777   3.627  17.759  1.9997 -0.0759  0.3413
 3779TIP3    H235533   0.824   3.707  17.640  0.4633 -0.0336 -0.2582
 3780TIP3   OH235534   4.760   7.533  17.375  0.5049  0.1797 -0.5692
 3780TIP3    H135535   4.774   7.440  17.359  1.5065  0.3823 -0.9369
 3780TIP3    H235536   4.825   7.577  17.321  0.8599  1.0531  0.5211
 3781TIP3   OH235537   5.485   6.921  18.407 -0.1980 -0.1556  0.0076
 3781TIP3    H135538   5.521   6.915  18.319  0.4058 -0.3589  0.2649
 3781TIP3    H235539   5.497   6.834  18.444 -1.5028 -0.3977 -0.1072
 3782TIP3   OH235540   3.333   2.241  19.024  0.4266  0.1104  0.0755
 3782TIP3    H135541   3.370   2.265  18.938 -0.1891  0.1435 -0.1881
 3782TIP3    H235542   3.404   2.259  19.086  0.5406  1.0858 -0.3058
 3783TIP3   OH235543   7.251   0.480  18.609  0.0957 -0.4407 -0.7004
 3783TIP3    H135544   7.337   0.461  18.646 -0.3199  1.2946  1.3201
 3783TIP3    H235545   7.257   0.571  18.581 -0.9899 -0.3954 -0.8155
 3784TIP3   OH235546   0.204   1.235  18.699 -0.1697 -0.2771  0.3704
 3784TIP3    H135547   0.284   1.258  18.651 -0.7271 -2.3910 -1.8045
 3784TIP3    H235548   0.231   1.231  18.790  1.5792  1.4816  0.0041
 3785TIP3   OH235549   6.203   1.195  19.066  0.7925 -0.0300 -0.4627
 3785TIP3    H135550   6.159   1.265  19.018 -1.9101  0.1737  1.9877
 3785TIP3    H235551   6.204   1.121  19.005 -2.6751  0.1454 -0.9534
 3786TIP3   OH235552   0.506   2.444  19.115  0.0236  0.0337 -0.9300
 3786TIP3    H135553   0.586   2.390  19.111 -0.2333 -0.5554  0.8403
 3786TIP3    H235554   0.447   2.395  19.172 -2.4477 -0.5411 -3.6982
 3787TIP3   OH235555   5.916   1.159  18.376 -0.1269 -0.1608  0.2375
 3787TIP3    H135556   5.873   1.076  18.354  0.1979 -0.5897  1.1676
 3787TIP3    H235557   5.847   1.211  18.418 -0.0824 -0.3350  0.5275
 3788TIP3   OH235558   5.699   1.879  18.365  0.2997  0.4073  0.0885
 3788TIP3    H135559   5.635   1.882  18.436  0.2437 -1.4116  0.1697
 3788TIP3    H235560   5.651   1.845  18.290  1.0014 -0.4768  0.0113
 3789TIP3   OH235561   1.511   6.117  18.433 -0.7726 -0.2980 -0.1858
 3789TIP3    H135562   1.593   6.166  18.439  0.5067 -2.4834  1.6862
 3789TIP3    H235563   1.449   6.179  18.395  1.4409  1.7959 -0.6374
 3790TIP3   OH235564   3.574   5.230  17.445 -0.5199 -0.1249 -0.4927
 3790TIP3    H135565   3.530   5.201  17.365  0.6623 -0.3015 -1.0912
 3790TIP3    H235566   3.628   5.304  17.419 -0.0811 -0.2141  0.1242
 3791TIP3   OH235567   7.034   6.949  19.258  0.4360  0.4407  0.3492
 3791TIP3    H135568   7.022   6.885  19.328  1.2418  0.7088  0.7381
 3791TIP3    H235569   7.122   6.933  19.225  0.2110  0.5782 -0.3534
 3792TIP3   OH235570   4.571   6.267  18.304 -0.4443 -0.1416 -0.3590
 3792TIP3    H135571   4.629   6.342  18.297 -0.4432 -0.1344 -0.2825
 3792TIP3    H235572   4.629   6.193  18.324 -0.5431  0.0147  0.5397
 3793TIP3   OH235573   4.042   4.449  17.491  0.2801  0.4770  0.2506
 3793TIP3    H135574   4.034   4.533  17.444  1.6474  0.3332 -0.2786
 3793TIP3    H235575   3.994   4.463  17.573 -0.2159  1.4960 -0.1935
 3794TIP3   OH235576   5.803   0.740  18.658  0.3537 -0.3142  0.3248
 3794TIP3    H135577   5.729   0.800  18.655 -0.7529 -1.6129  0.8044
 3794TIP3    H235578   5.870   0.788  18.707  0.3064  1.3349 -1.1096
 3795TIP3   OH235579   4.767   5.519  19.403  0.3201 -0.0623 -0.1262
 3795TIP3    H135580   4.692   5.460  19.396 -0.9693  1.5490 -0.6493
 3795TIP3    H235581   4.731   5.606  19.387  2.4656  0.6982 -1.3830
 3796TIP3   OH235582   1.636   6.565  19.283  0.3353 -0.2189  0.0233
 3796TIP3    H135583   1.583   6.517  19.347 -0.9451 -0.5033 -1.2005
 3796TIP3    H235584   1.641   6.654  19.318 -0.1350 -0.4215  0.6342
 3797TIP3   OH235585   5.350   1.764  19.857  0.0451  0.1282 -0.2889
 3797TIP3    H135586   5.338   1.674  19.827 -1.4810  0.4180 -0.6186
 3797TIP3    H235587   5.379   1.755  19.948  1.4171 -0.6968 -0.7759
 3798TIP3   OH235588   3.217   7.494  17.942 -0.2224 -0.0144  0.1107
 3798TIP3    H135589   3.306   7.463  17.957 -0.2505 -0.1251  0.0453
 3798TIP3    H235590   3.221   7.588  17.963  0.1851  0.2388 -1.0470
 3799TIP3   OH235591   6.591   4.856  17.393  0.7425  0.2008  0.0852
 3799TIP3    H135592   6.671   4.881  17.347  0.0186 -0.3012 -1.5325
 3799TIP3    H235593   6.577   4.926  17.457 -0.6314  3.5524 -3.4979
 3800TIP3   OH235594   4.064   2.780  18.253  0.1549  0.2189  0.6983
 3800TIP3    H135595   4.063   2.767  18.158 -0.9363 -1.8479  0.9325
 3800TIP3    H235596   3.973   2.772  18.279  0.3777  1.2737  1.8875
 3801TIP3   OH235597   6.998   1.828  18.816  0.1000  0.0416  0.1260
 3801TIP3    H135598   7.081   1.849  18.772  0.0479 -0.4139 -0.2054
 3801TIP3    H235599   6.955   1.912  18.829  1.0712  0.3973  1.2409
 3802TIP3   OH235600   3.923   1.903  17.693 -0.0336 -0.2120  0.3045
 3802TIP3    H135601   3.986   1.832  17.705 -0.6174 -0.8404 -0.2046
 3802TIP3    H235602   3.965   1.980  17.730 -0.2387 -1.2550  2.9473
 3803TIP3   OH235603   7.468   2.100  17.507  0.0706 -0.5388 -0.1948
 3803TIP3    H135604   7.505   2.076  17.421 -1.0883  0.2162 -0.9304
 3803TIP3    H235605   7.407   2.171  17.488  0.1410 -0.0268  1.3395
 3804TIP3   OH235606   2.548   2.786  17.328 -0.0018 -0.3002 -0.1586
 3804TIP3    H135607   2.564   2.856  17.391 -1.3081 -0.7036  0.6553
 3804TIP3    H235608   2.621   2.726  17.339 -0.2890 -0.4352  1.0849
 3805TIP3   OH235609   5.463   2.152  17.117  0.1017 -1.3656 -0.3600
 3805TIP3    H135610   5.419   2.187  17.041 -0.4260  0.1608  0.6143
 3805TIP3    H235611   5.541   2.108  17.082  0.7261  0.6759 -1.6517
 3806TIP3   OH235612   6.921   6.215  17.754  1.2204  0.1012 -0.2974
 3806TIP3    H135613   6.839   6.177  17.786  1.3296 -1.4933 -1.7272
 3806TIP3    H235614   6.914   6.210  17.659  1.8659  2.4976 -0.5195
 3807TIP3   OH235615   2.477   2.171  19.253  0.3980  0.1445  0.1367
 3807TIP3    H135616   2.438   2.239  19.308  1.8124  0.8417  0.3101
 3807TIP3    H235617   2.401   2.123  19.218 -0.5875  1.0058  1.0019
 3808TIP3   OH235618   5.721   4.360  19.056 -0.8794 -0.2994  0.3094
 3808TIP3    H135619   5.717   4.417  19.133 -0.9357 -1.0428  0.8674
 3808TIP3    H235620   5.707   4.419  18.982 -0.4149  0.4939  0.8384
 3809TIP3   OH235621   0.742   5.989  19.083 -0.2555 -0.1943 -0.2181
 3809TIP3    H135622   0.654   5.954  19.088 -1.1234  1.7278 -0.8925
 3809TIP3    H235623   0.788   5.933  19.021 -1.1917 -0.8483 -0.3217
 3810TIP3   OH235624   1.747   0.243  17.742 -0.2946  0.5669 -0.3004
 3810TIP3    H135625   1.737   0.193  17.661 -1.2892 -0.7648  0.6094
 3810TIP3    H235626   1.838   0.270  17.742  0.3222 -1.3769 -0.7737
 3811TIP3   OH235627   6.107   4.537  18.626  0.0017 -0.0796 -0.7354
 3811TIP3    H135628   6.062   4.484  18.691  0.5054  0.6671  0.2576
 3811TIP3    H235629   6.093   4.492  18.543  0.2417 -1.6380  0.0346
 3812TIP3   OH235630   3.704   3.892  17.642 -0.5689 -0.4348 -0.0865
 3812TIP3    H135631   3.795   3.905  17.616 -0.1657 -2.1921  0.3430
 3812TIP3    H235632   3.658   3.967  17.604  1.0137  0.4285 -0.4146
 3813TIP3   OH235633   7.578   5.581  17.229 -0.3179  0.1538 -0.3297
 3813TIP3    H135634   7.549   5.566  17.139 -0.0722 -0.5303 -0.3004
 3813TIP3    H235635   7.570   5.675  17.241  0.5272  0.3849 -1.3853
 3814TIP3   OH235636   5.466   1.963  18.907 -0.0278  0.2682 -0.0162
 3814TIP3    H135637   5.510   2.016  18.974 -2.2458  3.0196 -0.5578
 3814TIP3    H235638   5.417   1.898  18.957  0.9762  0.1206  0.8150
 3815TIP3   OH235639   5.725   2.243  18.146  0.0384 -0.2264 -0.7198
 3815TIP3    H135640   5.778   2.171  18.180  1.8205  2.2748  2.3169
 3815TIP3    H235641   5.649   2.246  18.204 -0.8469 -0.5501 -1.8211
 3816TIP3   OH235642   0.432   4.864  17.815  0.2232 -0.1203 -0.7278
 3816TIP3    H135643   0.395   4.786  17.856  0.8640 -0.9079 -1.5787
 3816TIP3    H235644   0.482   4.830  17.741  0.5992  1.1018 -1.0631
 3817TIP3   OH235645   3.131   2.394  18.003  0.1611 -0.5801  0.2628
 3817TIP3    H135646   3.040   2.419  18.015 -0.0877 -0.5470 -1.3987
 3817TIP3    H235647   3.155   2.349  18.084 -1.4062 -0.8134  0.6271
 3818TIP3   OH235648   5.084   1.581  18.589  0.4825 -0.1930  0.5374
 3818TIP3    H135649   5.126   1.498  18.569 -0.4677 -1.3247  2.8721
 3818TIP3    H235650   5.020   1.594  18.519  0.5927 -1.4677  0.1856
 3819TIP3   OH235651   0.642   0.414  17.199  0.0116  0.4089  0.4322
 3819TIP3    H135652   0.671   0.494  17.156 -3.0514  0.8359 -1.0671
 3819TIP3    H235653   0.621   0.440  17.289 -1.9826  1.6414 -0.3245
 3820TIP3   OH235654   4.588   6.385  17.739  0.2682 -0.2000 -0.4209
 3820TIP3    H135655   4.498   6.356  17.728  0.6313 -0.9003 -1.6679
 3820TIP3    H235656   4.583   6.450  17.809 -1.0921 -0.7271  0.0136
 3821TIP3   OH235657   3.642   0.989  18.395  0.3294  0.0958 -0.2313
 3821TIP3    H135658   3.593   0.911  18.422  0.4603 -0.3110 -1.1417
 3821TIP3    H235659   3.602   1.060  18.444  1.2404 -0.7363  1.8769
 3822TIP3   OH235660   5.805   0.724  17.802  0.1618  0.2935  0.3173
 3822TIP3    H135661   5.714   0.753  17.817  0.4366  0.7988  1.0951
 3822TIP3    H235662   5.856   0.805  17.807  0.8789 -0.2161  1.8819
 3823TIP3   OH235663   3.866   2.983  18.085  0.2810 -0.0452 -1.0889
 3823TIP3    H135664   3.781   3.019  18.060  0.5205  0.6240 -0.9554
 3823TIP3    H235665   3.847   2.930  18.163  0.0538  0.4866 -0.7708
 3824TIP3   OH235666   6.783   0.504  19.307 -0.2608 -0.0678  0.4397
 3824TIP3    H135667   6.825   0.499  19.221 -1.9862 -1.1846 -0.4079
 3824TIP3    H235668   6.770   0.412  19.332  1.4369  0.1837  2.5838
 3825TIP3   OH235669   3.465   3.349  18.746  0.2213  0.5639  0.1881
 3825TIP3    H135670   3.488   3.309  18.662 -0.5855  0.2463  0.1137
 3825TIP3    H235671   3.472   3.278  18.809  0.5574  0.7390  0.3518
 3826TIP3   OH235672   5.295   3.983  18.739  0.3276  0.3951  0.0766
 3826TIP3    H135673   5.287   4.066  18.786  0.1400  0.0923  0.5978
 3826TIP3    H235674   5.262   3.918  18.801  3.5760 -0.5276  1.0197
 3827TIP3   OH235675   4.136   2.118  17.231 -0.4300  0.1554 -0.1825
 3827TIP3    H135676   4.168   2.148  17.316 -1.7282  1.2984 -0.0619
 3827TIP3    H235677   4.152   2.023  17.232 -0.5280  0.1214  1.3786
 3828TIP3   OH235678   6.585   0.286  17.111  0.4192  0.2593 -0.5356
 3828TIP3    H135679   6.534   0.335  17.176  0.5902 -0.6271  0.2899
 3828TIP3    H235680   6.529   0.212  17.087  1.4764 -1.0376  0.7925
 3829TIP3   OH235681   0.924   5.227  19.566 -0.1162  0.8143 -0.5471
 3829TIP3    H135682   0.984   5.289  19.523  1.6221  0.0762  0.7127
 3829TIP3    H235683   0.903   5.269  19.649 -0.2565  0.4572 -0.4052
 3830TIP3   OH235684   3.296   6.435  18.674 -0.3096 -0.6547  0.8147
 3830TIP3    H135685   3.336   6.386  18.746 -1.2625 -0.0393  1.7896
 3830TIP3    H235686   3.337   6.522  18.678  1.2382 -1.2414 -0.7883
 3831TIP3   OH235687   0.738   5.047  18.015 -0.1000 -0.5704 -0.2086
 3831TIP3    H135688   0.771   5.134  17.993  0.1923 -0.6836 -0.2247
 3831TIP3    H235689   0.780   4.989  17.951  0.1342 -0.7954  0.1476
 3832TIP3   OH235690   4.787   2.036  18.468 -0.1455  0.4818 -0.2740
 3832TIP3    H135691   4.770   1.983  18.390  1.0558  1.6838 -1.4033
 3832TIP3    H235692   4.835   1.978  18.527 -0.4434 -0.2361 -0.7292
 3833TIP3   OH235693   6.392   5.803  18.088 -0.5627  0.0599 -0.2149
 3833TIP3    H135694   6.301   5.776  18.075 -0.8777  0.6290  0.6920
 3833TIP3    H235695   6.391   5.897  18.073 -0.0679  0.0248 -0.4667
 3834TIP3   OH235696   0.997   2.319  18.502  0.7253 -0.1745 -0.4108
 3834TIP3    H135697   1.021   2.410  18.519  1.2680 -0.1944 -1.0275
 3834TIP3    H235698   1.048   2.269  18.566  0.3751 -0.0471 -0.0271
 3835TIP3   OH235699   1.573   2.400  18.753  0.3307 -0.4763  0.3725
 3835TIP3    H135700   1.610   2.447  18.827  0.8599 -0.5778  0.1764
 3835TIP3    H235701   1.642   2.339  18.726 -0.1180 -0.9387  0.2431
 3836TIP3   OH235702   2.278   1.683  18.111 -0.3771 -0.4138 -0.0616
 3836TIP3    H135703   2.220   1.608  18.123  0.3929 -0.9618  0.3849
 3836TIP3    H235704   2.295   1.687  18.017 -0.1784 -1.0012 -0.0524
 3837TIP3   OH235705   1.428   0.942  17.830 -0.3198 -0.1709 -0.5071
 3837TIP3    H135706   1.423   1.003  17.757  0.0688  1.3257  0.6762
 3837TIP3    H235707   1.337   0.931  17.859 -0.6245 -1.7206 -1.9288
 3838TIP3   OH235708   4.016   0.629  18.845  0.5016 -0.0432  0.1509
 3838TIP3    H135709   3.945   0.693  18.848  1.8618  1.5765 -0.7918
 3838TIP3    H235710   4.030   0.604  18.936 -1.2001 -0.3311  0.3564
 3839TIP3   OH235711   2.378   4.362  18.400  0.0707 -0.0211 -0.0044
 3839TIP3    H135712   2.330   4.358  18.483 -0.2756 -0.2359 -0.2129
 3839TIP3    H235713   2.313   4.393  18.337 -0.7056 -3.1054 -0.9207
 3840TIP3   OH235714   7.409   0.041  19.029  0.0156  0.2092  0.0096
 3840TIP3    H135715   7.338  -0.007  19.071 -0.9609  0.3633 -1.4161
 3840TIP3    H235716   7.422  -0.003  18.945  2.2708 -0.4070  0.6075
 3841TIP3   OH235717   1.634   6.880  17.508 -0.2043  0.2741 -0.6566
 3841TIP3    H135718   1.602   6.885  17.598  1.1204 -2.1383  0.0198
 3841TIP3    H235719   1.558   6.904  17.455 -1.9717 -1.2804  1.0166
 3842TIP3   OH235720   0.019   6.731  18.534 -0.2779  0.1065  0.0495
 3842TIP3    H135721  -0.066   6.767  18.509 -0.7892  0.9613  2.7061
 3842TIP3    H235722   0.073   6.808  18.552  1.1748 -0.4203 -1.7337
 3843TIP3   OH235723   1.008   4.690  18.542  0.1888 -1.0173 -0.5168
 3843TIP3    H135724   0.988   4.677  18.450  1.1701  2.3745 -1.3420
 3843TIP3    H235725   0.957   4.767  18.568  0.7691 -1.2343  1.4762
 3844TIP3   OH235726   3.199   1.145  17.510  0.5085  0.0820 -0.3717
 3844TIP3    H135727   3.142   1.178  17.441 -1.0328  0.7248  1.1546
 3844TIP3    H235728   3.212   1.053  17.488  0.3805  0.3659 -1.7237
 3845TIP3   OH235729   3.085   6.164  16.800  0.0378 -0.4446  0.2216
 3845TIP3    H135730   3.115   6.081  16.762  2.8687 -0.3822  2.0858
 3845TIP3    H235731   2.996   6.144  16.832  1.4023 -3.5554  2.6118
 3846TIP3   OH235732   6.705   4.253  17.944 -0.6899 -0.3582  0.2470
 3846TIP3    H135733   6.768   4.280  17.877 -1.0435 -0.3729 -0.0944
 3846TIP3    H235734   6.620   4.284  17.912 -0.9425 -0.8719  0.4032
 3847TIP3   OH235735   5.700   6.585  17.475  0.1342  0.2539  0.1100
 3847TIP3    H135736   5.725   6.573  17.567 -0.2274  1.0379  0.3223
 3847TIP3    H235737   5.665   6.500  17.449 -0.6189  0.2755  0.9844
 3848TIP3   OH235738   2.420   1.720  17.874  0.5993  0.1731 -0.0812
 3848TIP3    H135739   2.385   1.758  17.793  0.7141 -0.5023 -0.4623
 3848TIP3    H235740   2.467   1.791  17.916  1.0480  0.3848 -0.9118
 3849TIP3   OH235741   4.123   3.332  17.700 -0.3637  0.0170 -0.2278
 3849TIP3    H135742   4.172   3.253  17.724 -0.3331 -0.3299 -1.3744
 3849TIP3    H235743   4.183   3.404  17.720  0.7360 -0.4095 -1.7976
 3850TIP3   OH235744   3.008   0.724  16.963 -0.6627 -0.3079  0.1612
 3850TIP3    H135745   3.020   0.795  16.900  0.2795 -0.4870  0.1238
 3850TIP3    H235746   2.920   0.690  16.944 -0.4498 -0.2784 -0.9667
 3851TIP3   OH235747   0.146   3.117  18.830 -0.2923 -0.6577  0.7320
 3851TIP3    H135748   0.130   3.178  18.902 -1.8230 -0.7526  0.5146
 3851TIP3    H235749   0.241   3.118  18.817 -0.1056  0.1418  2.0582
 3852TIP3   OH235750   6.940   3.483  16.888 -0.9030 -0.1527  0.3132
 3852TIP3    H135751   6.964   3.394  16.864 -0.9701 -1.2081  3.6342
 3852TIP3    H235752   7.015   3.536  16.863 -0.9736 -1.0108 -1.9690
 3853TIP3   OH235753   5.283   6.955  19.474  0.2082 -0.1965  0.1836
 3853TIP3    H135754   5.197   6.915  19.491  0.9611 -1.3085  1.5671
 3853TIP3    H235755   5.311   6.918  19.390 -1.4512  1.6283 -1.2626
 3854TIP3   OH235756   1.535   3.944  18.910 -0.3400 -0.1982 -0.5714
 3854TIP3    H135757   1.554   3.858  18.872 -1.9232 -0.4541 -0.8240
 3854TIP3    H235758   1.597   4.003  18.868  1.7953 -1.4172  0.6673
 3855TIP3   OH235759   5.854   3.005  16.840  0.2551 -0.0910  0.1657
 3855TIP3    H135760   5.907   2.930  16.817 -0.6607 -0.2467 -1.6205
 3855TIP3    H235761   5.886   3.076  16.783 -1.5202 -0.2568 -1.1283
 3856TIP3   OH235762   4.080   5.523  17.585 -0.5845  0.3395  0.1397
 3856TIP3    H135763   4.022   5.590  17.622 -0.8283  2.0132 -2.8802
 3856TIP3    H235764   4.049   5.441  17.622 -2.2268  1.6027  1.7505
 3857TIP3   OH235765   1.104   2.765  17.437  0.2270  0.1421  0.1442
 3857TIP3    H135766   1.146   2.712  17.369  1.2359  0.9285  0.1262
 3857TIP3    H235767   1.016   2.782  17.404  0.2352 -0.6701 -0.3073
 3858TIP3   OH235768   0.569   7.521  17.208  0.2129  0.0531 -0.3998
 3858TIP3    H135769   0.561   7.485  17.297  2.0628  1.4167  0.3882
 3858TIP3    H235770   0.648   7.481  17.173  0.5111  0.9065 -0.7269
 3859TIP3   OH235771   3.987   1.890  19.331 -0.4798  0.1611  0.5145
 3859TIP3    H135772   4.030   1.963  19.375 -0.1589  0.6259 -0.5359
 3859TIP3    H235773   3.894   1.914  19.329 -0.6921 -0.4290  1.9835
 3860TIP3   OH235774   1.092   1.272  18.558  0.2897  0.1244  0.4338
 3860TIP3    H135775   1.122   1.360  18.534  2.7608 -0.7750 -0.0203
 3860TIP3    H235776   1.021   1.254  18.495  0.2145  1.4909  0.0813
 3861TIP3   OH235777   4.032   6.859  17.035 -0.5089 -0.0092  0.3096
 3861TIP3    H135778   4.002   6.934  17.086 -0.3722  1.0707 -1.1314
 3861TIP3    H235779   3.954   6.805  17.025 -0.6462 -0.0037  1.2373
 3862TIP3   OH235780   5.023   0.084  18.642 -0.0583  0.0198 -0.3928
 3862TIP3    H135781   5.068   0.164  18.669 -1.9328  1.3570 -1.0116
 3862TIP3    H235782   5.089   0.035  18.592  1.6097  0.3701  1.3541
 3863TIP3   OH235783   5.805   5.224  19.142 -0.0805 -0.4522  0.1080
 3863TIP3    H135784   5.884   5.254  19.186 -0.5049 -0.2284  0.7351
 3863TIP3    H235785   5.752   5.185  19.211  0.3797 -2.5544 -0.6410
 3864TIP3   OH235786   3.311   6.881  18.003  0.0282  0.1702  0.0685
 3864TIP3    H135787   3.300   6.901  17.910  0.3837 -1.9549 -0.4696
 3864TIP3    H235788   3.296   6.787  18.010  2.6641 -0.2427  1.6962
 3865TIP3   OH235789   3.310   4.899  19.124  0.4026 -0.0366 -0.4655
 3865TIP3    H135790   3.367   4.838  19.170 -2.2270 -1.4949  1.1345
 3865TIP3    H235791   3.289   4.855  19.042  1.5727  0.5386 -1.0926
 3866TIP3   OH235792   5.109   0.132  19.083  0.1775 -0.2786  0.1530
 3866TIP3    H135793   5.125   0.079  19.005 -1.1967  1.1179 -1.1635
 3866TIP3    H235794   5.177   0.105  19.145  3.1592  0.4702 -2.5020
 3867TIP3   OH235795   2.084   5.444  19.335  0.6706  0.4472  0.4313
 3867TIP3    H135796   2.044   5.525  19.368 -0.2431 -0.5855  2.0176
 3867TIP3    H235797   2.117   5.400  19.414  1.5043 -0.5373 -0.4414
 3868TIP3   OH235798   3.257   4.055  19.511 -0.1127 -0.4229 -0.3335
 3868TIP3    H135799   3.204   3.976  19.516 -1.4474  0.5167  1.8095
 3868TIP3    H235800   3.331   4.039  19.570 -0.7572  0.1529  0.6549
 3869TIP3   OH235801   5.171   3.794  18.901 -0.0372 -0.4101  0.6110
 3869TIP3    H135802   5.161   3.702  18.877  1.5938 -0.0585 -1.7593
 3869TIP3    H235803   5.228   3.793  18.978  0.7334 -1.3609  0.0480
 3870TIP3   OH235804   1.290   5.534  18.982 -0.1662 -0.1823  0.6001
 3870TIP3    H135805   1.300   5.491  18.897  0.9940 -0.3627  0.8228
 3870TIP3    H235806   1.233   5.475  19.032 -0.3210 -0.3971  0.1817
 3871TIP3   OH235807   5.310   6.382  19.222  0.2942  0.4507 -0.4506
 3871TIP3    H135808   5.249   6.342  19.160  0.3821 -0.7492  0.2086
 3871TIP3    H235809   5.397   6.360  19.189  0.3503 -1.1758  0.6562
 3872TIP3   OH235810   6.346   4.559  19.328  0.4048  0.7562 -0.2678
 3872TIP3    H135811   6.314   4.541  19.240  0.3211  0.2058 -0.1294
 3872TIP3    H235812   6.267   4.573  19.380  0.3862 -0.1813 -0.0164
 3873TIP3   OH235813   4.594   4.306  17.461  0.4351  0.0545  0.0930
 3873TIP3    H135814   4.677   4.354  17.466 -0.8305  2.2563  1.1062
 3873TIP3    H235815   4.605   4.233  17.522  2.3186 -0.9303 -1.3115
 3874TIP3   OH235816   3.947   3.255  17.056  0.1773 -0.5574  0.2688
 3874TIP3    H135817   3.882   3.309  17.011  0.9123  1.3157  1.3311
 3874TIP3    H235818   3.965   3.303  17.137  1.1413 -2.2515  1.0974
 3875TIP3   OH235819   5.726   0.766  17.432 -0.1248 -0.4193 -0.8078
 3875TIP3    H135820   5.650   0.729  17.476 -0.2190 -1.1960 -1.5739
 3875TIP3    H235821   5.801   0.731  17.480 -0.2352  0.3939 -0.0147
 3876TIP3   OH235822   0.467   2.397  17.601 -0.0587 -0.2657  0.2083
 3876TIP3    H135823   0.448   2.369  17.512 -0.2319 -1.4747  0.6035
 3876TIP3    H235824   0.452   2.491  17.600  1.3073 -0.0152 -1.3773
 3877TIP3   OH235825   5.410   5.484  17.627  0.2663 -0.5566 -0.0051
 3877TIP3    H135826   5.441   5.573  17.639 -0.8650 -0.3864  2.0457
 3877TIP3    H235827   5.453   5.454  17.547  0.0644  2.0802 -1.2001
 3878TIP3   OH235828   1.424   7.000  18.624  0.2167 -0.5060  0.0125
 3878TIP3    H135829   1.385   6.974  18.707  1.8337  0.8796  1.2576
 3878TIP3    H235830   1.477   6.924  18.598 -0.6180 -1.1001  0.0042
 3879TIP3   OH235831   2.785   6.065  18.068  0.1178 -0.6867  0.5218
 3879TIP3    H135832   2.823   6.136  18.120 -0.6918 -0.0449  0.2581
 3879TIP3    H235833   2.778   5.992  18.129 -1.0522  0.1293  1.3967
 3880TIP3   OH235834   4.928   0.939  18.417  0.3292  0.0066  0.3526
 3880TIP3    H135835   4.867   0.900  18.480 -0.8060 -0.1811 -0.8222
 3880TIP3    H235836   4.912   0.892  18.335  2.4705 -0.4512  0.1163
 3881TIP3   OH235837   6.398   0.902  18.018  0.2409 -0.3516  0.0836
 3881TIP3    H135838   6.422   0.927  18.107 -0.3464  0.2474  0.0869
 3881TIP3    H235839   6.355   0.980  17.982 -1.3453 -1.2419 -0.0352
 3882TIP3   OH235840   6.127   6.114  19.076 -0.4834 -0.1008 -0.1987
 3882TIP3    H135841   6.043   6.081  19.046 -0.1744 -0.7332 -0.3951
 3882TIP3    H235842   6.190   6.082  19.011 -0.2454  1.4106 -0.7571
 3883TIP3   OH235843   6.044   0.672  17.034  0.0327 -0.7239 -0.5113
 3883TIP3    H135844   6.094   0.704  16.959 -3.0911  0.3446 -2.3353
 3883TIP3    H235845   5.995   0.597  16.999 -1.1722 -0.4622  0.5658
 3884TIP3   OH235846   3.063   0.500  17.301  0.1357  0.0982  1.0790
 3884TIP3    H135847   3.041   0.452  17.380  0.1211 -2.3163 -0.2937
 3884TIP3    H235848   2.979   0.514  17.257  0.3701 -1.0820  0.1908
 3885TIP3   OH235849   1.231   1.447  19.405  0.4173 -0.3691 -0.1698
 3885TIP3    H135850   1.286   1.372  19.383  2.0062  0.3279  1.2584
 3885TIP3    H235851   1.291   1.521  19.410 -0.6254  0.4355  1.3873
 3886TIP3   OH235852   2.462   0.525  17.879 -0.3834 -0.2662  0.2219
 3886TIP3    H135853   2.388   0.475  17.844  0.3984 -0.9120 -0.5357
 3886TIP3    H235854   2.507   0.560  17.802 -0.5714  1.1341  0.7201
 3887TIP3   OH235855   0.939   4.117  19.029  0.2126  0.0455  0.4826
 3887TIP3    H135856   0.970   4.041  19.078  0.3969  0.1536  0.5356
 3887TIP3    H235857   0.849   4.095  19.005 -0.1221  0.2768  1.4696
 3888TIP3   OH235858   3.308   4.743  18.122  0.1040 -0.2706 -0.1612
 3888TIP3    H135859   3.346   4.811  18.178 -0.7703  0.5014 -0.4843
 3888TIP3    H235860   3.278   4.675  18.182  1.1552 -0.4738  0.1545
 3889TIP3   OH235861   4.540   5.381  19.307 -0.0730 -0.6590 -0.3302
 3889TIP3    H135862   4.449   5.387  19.333  0.1597 -0.0318  0.3388
 3889TIP3    H235863   4.559   5.287  19.307 -0.7159 -0.7902 -0.4931
 3890TIP3   OH235864   2.881   4.074  19.623 -0.6730 -0.1725  0.0114
 3890TIP3    H135865   2.935   4.152  19.638 -2.0451  0.6470  0.9341
 3890TIP3    H235866   2.944   4.004  19.607  0.6418  0.8195  0.6558
 3891TIP3   OH235867   6.847   3.614  18.586  0.1116 -0.0235  0.5908
 3891TIP3    H135868   6.762   3.655  18.570  0.4718  1.1063  1.4491
 3891TIP3    H235869   6.844   3.532  18.536 -1.2337  0.2953  0.1087
 3892TIP3   OH235870   6.494   7.271  18.837 -0.2819 -0.6771  0.5157
 3892TIP3    H135871   6.568   7.331  18.843 -0.0481 -1.0286  1.2942
 3892TIP3    H235872   6.529   7.187  18.867 -0.7061 -1.1179 -0.1953
 3893TIP3   OH235873   3.949   5.921  19.065  0.4715  0.3613  0.4398
 3893TIP3    H135874   3.927   6.014  19.075  1.0822  0.3617  2.1423
 3893TIP3    H235875   4.036   5.913  19.104  1.2427 -0.6067 -1.3803
 3894TIP3   OH235876   3.138   6.429  16.870  0.2314 -0.1189  0.2462
 3894TIP3    H135877   3.232   6.418  16.856 -0.0010 -0.7590 -1.0195
 3894TIP3    H235878   3.103   6.340  16.872 -0.6201  0.1090 -1.6603
 3895TIP3   OH235879   3.820   5.847  16.766 -0.5338  0.3665  0.0287
 3895TIP3    H135880   3.802   5.766  16.814 -0.5746  0.0742 -0.4745
 3895TIP3    H235881   3.749   5.853  16.702 -0.3499  0.6322 -0.1534
 3896TIP3   OH235882   7.612   3.701  18.019  0.0579  0.6298 -0.1569
 3896TIP3    H135883   7.613   3.792  17.990 -2.0554  1.5305  2.2088
 3896TIP3    H235884   7.525   3.669  17.994 -0.7202  0.5666  2.3026
 3897TIP3   OH235885   5.107   1.888  18.963 -0.7525 -0.6659  0.2502
 3897TIP3    H135886   5.170   1.928  19.023 -1.0541  0.2000  0.0079
 3897TIP3    H235887   5.124   1.930  18.879  1.3589 -3.6071 -0.9813
 3898TIP3   OH235888   2.850   2.645  18.297 -0.3415 -0.3145 -0.1061
 3898TIP3    H135889   2.945   2.648  18.292 -0.3519  1.5678 -0.1685
 3898TIP3    H235890   2.831   2.635  18.391 -0.0442  1.1514  0.1359
 3899TIP3   OH235891   6.100   7.300  19.327 -0.4199 -0.2522 -0.1687
 3899TIP3    H135892   6.033   7.336  19.269 -0.4412 -0.3916 -0.2326
 3899TIP3    H235893   6.052   7.241  19.385 -0.4643  0.2045  0.2717
 3900TIP3   OH235894   0.550   5.653  18.410  0.2160 -0.6388  0.2627
 3900TIP3    H135895   0.500   5.631  18.489  1.6885 -1.7808  0.9247
 3900TIP3    H235896   0.497   5.720  18.366 -1.0569 -0.5975  1.7669
 3901TIP3   OH235897   3.844   0.532  18.366 -0.0251 -0.1300  0.4545
 3901TIP3    H135898   3.857   0.620  18.331  1.1088 -0.3072  0.3906
 3901TIP3    H235899   3.801   0.546  18.451  0.0943  0.4747  0.4214
 3902TIP3   OH235900   5.783   2.396  18.649 -0.0762  0.5379  0.3088
 3902TIP3    H135901   5.715   2.418  18.585 -0.2887 -0.6979  0.0933
 3902TIP3    H235902   5.779   2.301  18.658  0.5430  0.5994  1.5135
 3903TIP3   OH235903   2.052   5.476  18.611  0.2060 -0.3880 -0.2064
 3903TIP3    H135904   2.013   5.527  18.541 -1.7828 -1.3131  0.1500
 3903TIP3    H235905   2.015   5.512  18.691  1.4033 -0.2328  0.3117
 3904TIP3   OH235906   6.960   5.331  17.978 -0.3689  0.6267  0.0626
 3904TIP3    H135907   6.942   5.285  17.897 -1.2654  0.6087  0.2604
 3904TIP3    H235908   6.874   5.355  18.012 -0.0203  0.4584  1.1092
 3905TIP3   OH235909   4.626   0.047  19.104 -0.1076  0.4907  0.9110
 3905TIP3    H135910   4.642  -0.029  19.048 -1.7881  1.4492 -0.9628
 3905TIP3    H235911   4.713   0.071  19.137  0.8125 -0.6394 -0.5883
 3906TIP3   OH235912   4.051   0.491  18.624  0.5644 -0.0945  0.2181
 3906TIP3    H135913   4.099   0.526  18.548 -3.2147  1.1316 -1.8962
 3906TIP3    H235914   4.038   0.567  18.681 -2.3706  0.7978 -1.3975
 3907TIP3   OH235915   6.261   7.024  19.008 -0.3469 -0.1485 -0.1222
 3907TIP3    H135916   6.186   7.006  19.066  0.4912 -0.9461  0.7583
 3907TIP3    H235917   6.241   7.108  18.968 -1.0341  0.3733  1.2353
 3908TIP3   OH235918   1.630   6.583  18.759  0.7165 -0.6637  0.2694
 3908TIP3    H135919   1.565   6.525  18.799  1.9800 -1.2940  1.5346
 3908TIP3    H235920   1.670   6.530  18.690  0.9269 -0.8274  0.5127
 3909TIP3   OH235921   0.352   1.892  19.291  0.0919 -0.2542  0.2386
 3909TIP3    H135922   0.393   1.966  19.336 -1.9569  0.7123  0.5965
 3909TIP3    H235923   0.340   1.827  19.360  0.0817 -0.1414  0.3445
 3910TIP3   OH235924   3.153   3.932  17.417 -0.3718  0.2917 -0.0907
 3910TIP3    H135925   3.120   3.843  17.430 -0.2466  0.2975  0.2925
 3910TIP3    H235926   3.224   3.940  17.480 -1.2744  1.1344  0.8581
 3911TIP3   OH235927   3.165   7.287  17.349  0.2435  0.0933  0.5510
 3911TIP3    H135928   3.143   7.377  17.324 -0.4068  0.3029  1.8203
 3911TIP3    H235929   3.126   7.275  17.436 -1.8414 -2.2331 -0.5864
 3912TIP3   OH235930   1.132   7.390  18.302  0.0203 -0.1309  0.2256
 3912TIP3    H135931   1.183   7.464  18.271 -0.2163  0.4395  1.1747
 3912TIP3    H235932   1.189   7.314  18.288  0.5399  0.3153 -0.0924
 3913TIP3   OH235933   4.744   2.673  17.692  0.3718  0.1862  0.2490
 3913TIP3    H135934   4.833   2.657  17.662  0.0301  0.6954 -1.1216
 3913TIP3    H235935   4.695   2.694  17.612 -1.0291 -0.3124  0.9408
 3914TIP3   OH235936   6.432   0.333  18.099 -0.1486 -0.3106 -0.0942
 3914TIP3    H135937   6.465   0.370  18.181 -2.0162  0.7115  0.2506
 3914TIP3    H235938   6.485   0.375  18.031  1.3486 -1.0912  0.5417
 3915TIP3   OH235939   0.543   6.730  17.129 -0.0834  0.2449 -0.1218
 3915TIP3    H135940   0.620   6.766  17.085 -0.4771  0.2225 -0.8509
 3915TIP3    H235941   0.543   6.638  17.106 -1.1392  0.5232 -1.3957
 3916TIP3   OH235942   5.371   0.884  18.932  0.6341  0.1667  0.1332
 3916TIP3    H135943   5.397   0.866  19.022  3.4125 -0.9883 -0.8131
 3916TIP3    H235944   5.328   0.803  18.903 -0.7220  0.7154  0.5056
 3917TIP3   OH235945   3.240   0.774  18.664 -0.5493  0.0313  0.3707
 3917TIP3    H135946   3.184   0.748  18.591 -2.3925 -0.1273  1.7813
 3917TIP3    H235947   3.181   0.782  18.739  1.1364  1.0553  1.6690
 3918TIP3   OH235948   7.113   6.087  18.847 -0.1348 -0.1736 -0.3237
 3918TIP3    H135949   7.030   6.040  18.853  0.1655 -0.6643  0.0562
 3918TIP3    H235950   7.156   6.071  18.931  0.3471  0.0713 -0.5200
 3919TIP3   OH235951   4.995   5.319  18.350 -0.0315  0.2268 -0.1727
 3919TIP3    H135952   5.045   5.353  18.423  1.1224  2.5009 -1.8945
 3919TIP3    H235953   4.904   5.323  18.379  0.4708 -0.3336  1.6067
 3920TIP3   OH235954   7.514   3.554  16.695  0.6782 -0.5437  0.5845
 3920TIP3    H135955   7.571   3.558  16.618  0.3418 -0.5709  0.3355
 3920TIP3    H235956   7.443   3.615  16.676  2.5174  2.4381  2.4758
 3921TIP3   OH235957   4.143   4.368  17.802  0.4578 -0.1977 -0.3581
 3921TIP3    H135958   4.103   4.451  17.831 -1.3065 -0.6368 -1.3649
 3921TIP3    H235959   4.074   4.303  17.814  1.0177 -1.0995 -1.7436
 3922TIP3   OH235960   4.246   2.463  17.428  1.2078  0.1077 -0.1690
 3922TIP3    H135961   4.189   2.511  17.488  0.1244 -0.6906 -0.5375
 3922TIP3    H235962   4.224   2.495  17.341  1.6076  0.0827 -0.2840
 3923TIP3   OH235963   2.089   3.249  19.043  0.0596  0.4291  0.0014
 3923TIP3    H135964   2.036   3.179  19.004 -0.0741 -0.2402  1.3280
 3923TIP3    H235965   2.038   3.328  19.030 -1.0298 -0.1250  0.7733
 3924TIP3   OH235966   0.589   6.136  18.886 -0.2567 -0.0982  0.2145
 3924TIP3    H135967   0.603   6.055  18.936  0.3146 -0.0074  0.2096
 3924TIP3    H235968   0.512   6.176  18.927 -0.1871 -0.3528  0.6025
 3925TIP3   OH235969   0.446   3.802  18.508  0.0957  0.0132 -0.0243
 3925TIP3    H135970   0.423   3.754  18.428  2.1631 -0.4795 -0.3773
 3925TIP3    H235971   0.457   3.893  18.479  1.2275 -0.2322 -0.4107
 3926TIP3   OH235972   2.390   5.460  17.794 -0.1626 -0.3609  0.2996
 3926TIP3    H135973   2.324   5.453  17.724 -0.6542 -0.6387  0.7842
 3926TIP3    H235974   2.341   5.446  17.875  0.2961  0.5481  0.7531
 3927TIP3   OH235975   6.878   4.404  19.548 -0.0299 -0.3576  0.5025
 3927TIP3    H135976   6.801   4.369  19.592  0.9454 -0.8621  1.8830
 3927TIP3    H235977   6.948   4.343  19.569  0.9457  0.5303 -0.0253
 3928TIP3   OH235978   2.002   0.317  17.693  0.4395 -0.1092 -0.0664
 3928TIP3    H135979   2.084   0.309  17.742  0.7821 -0.3091 -0.6600
 3928TIP3    H235980   1.984   0.411  17.693  0.5758 -0.0823  0.2237
 3929TIP3   OH235981   3.134   7.502  16.723 -0.5458 -0.1078 -0.0907
 3929TIP3    H135982   3.076   7.463  16.657 -0.7203 -0.3120  0.1805
 3929TIP3    H235983   3.195   7.432  16.746 -1.5217 -0.5721  1.1682
 3930TIP3   OH235984   5.388   0.299  19.454  0.0217  0.0404  0.0429
 3930TIP3    H135985   5.392   0.362  19.382  0.0989  0.3506  0.3199
 3930TIP3    H235986   5.446   0.228  19.427 -1.3539 -0.7326 -1.0511
 3931TIP3   OH235987   1.196   6.213  17.964 -0.0914 -0.2028  0.0894
 3931TIP3    H135988   1.138   6.238  17.893 -1.6466 -0.6904  1.1314
 3931TIP3    H235989   1.176   6.120  17.980  0.2204 -0.1073  1.1423
 3932TIP3   OH235990   4.347   6.468  18.341  0.1509  0.2427  0.2143
 3932TIP3    H135991   4.266   6.445  18.387  0.3184  1.2659  1.0797
 3932TIP3    H235992   4.320   6.534  18.276  0.3860  1.2251  1.0801
 3933TIP3   OH235993   7.562   6.662  18.229 -0.9584 -0.3135  0.3342
 3933TIP3    H135994   7.555   6.723  18.302 -0.5121 -1.1832  1.1182
 3933TIP3    H235995   7.485   6.681  18.175 -1.5066  0.0754  1.2273
 3934TIP3   OH235996   7.555   1.199  18.423  0.5983  0.0156 -0.3395
 3934TIP3    H135997   7.605   1.274  18.454  0.4115 -0.2624  0.6635
 3934TIP3    H235998   7.540   1.217  18.330  0.1461  1.4461 -0.0169
 3935TIP3   OH235999   2.332   2.504  17.912  0.2236 -0.0587  0.8515
 3935TIP3    H136000   2.405   2.553  17.950 -0.1285  0.6622  0.6056
 3935TIP3    H236001   2.275   2.486  17.987  0.4485 -0.2840  0.9756
 3936TIP3   OH236002   7.164   7.674  18.095 -0.4138 -0.1071 -0.4680
 3936TIP3    H136003   7.182   7.727  18.017 -0.3284 -0.8646 -0.9784
 3936TIP3    H236004   7.250   7.640  18.121 -0.4643  0.0173 -0.1403
 3937TIP3   OH236005   7.226   3.351  19.460 -0.2398  0.0755 -0.0175
 3937TIP3    H136006   7.148   3.298  19.448  1.3908 -2.5752  0.2617
 3937TIP3    H236007   7.296   3.300  19.420  1.6688  1.3511  1.5022
 3938TIP3   OH236008   3.460   6.040  19.448  0.0002 -0.2234 -0.0104
 3938TIP3    H136009   3.417   5.989  19.517 -1.0355  1.6126  0.7461
 3938TIP3    H236010   3.397   6.108  19.424  1.0549  0.2953 -1.5128
 3939TIP3   OH236011   7.569   5.132  19.465  0.0924 -0.3745  0.2085
 3939TIP3    H136012   7.566   5.200  19.397  2.6684 -1.2743 -0.9145
 3939TIP3    H236013   7.478   5.120  19.490 -0.6185  2.4313 -0.6022
 3940TIP3   OH236014   2.607   5.657  16.968 -0.3849 -0.2795  0.1250
 3940TIP3    H136015   2.532   5.598  16.958 -0.5296 -0.1575  0.5006
 3940TIP3    H236016   2.634   5.647  17.059 -0.7418  0.6259  0.3433
 3941TIP3   OH236017   7.291   7.580  17.078 -0.3999  0.3883 -0.0769
 3941TIP3    H136018   7.286   7.512  17.010 -0.3826 -0.0350  0.3420
 3941TIP3    H236019   7.281   7.663  17.030  0.6705  0.1531 -0.7266
 3942TIP3   OH236020   3.085   4.287  19.596 -0.4354  0.8013 -0.0094
 3942TIP3    H136021   3.145   4.216  19.572 -0.8757  0.7333 -0.9500
 3942TIP3    H236022   3.129   4.367  19.564 -0.0279  0.9469  0.8823
 3943TIP3   OH236023   3.788   2.699  17.045 -0.2165 -0.4802 -0.1690
 3943TIP3    H136024   3.820   2.787  17.023  0.3137 -0.8665 -0.9975
 3943TIP3    H236025   3.863   2.641  17.031 -0.7250 -1.1457 -0.2183
 3944TIP3   OH236026   6.871   0.504  17.918  0.3893 -0.1237  0.1815
 3944TIP3    H136027   6.902   0.526  18.006  0.6390 -0.1140  0.0914
 3944TIP3    H236028   6.948   0.512  17.862 -0.0704  1.2563 -0.2929
 3945TIP3   OH236029   1.460   0.269  17.771  0.1804 -0.1477 -0.4564
 3945TIP3    H136030   1.548   0.280  17.733  0.3865  1.6711  0.4176
 3945TIP3    H236031   1.423   0.194  17.724  0.7537  1.3359 -3.5762
 3946TIP3   OH236032   5.356   5.781  18.683 -0.4613 -0.3250 -0.3684
 3946TIP3    H136033   5.407   5.787  18.764  0.0268  0.6086 -0.7216
 3946TIP3    H236034   5.285   5.844  18.695 -1.1669 -1.1338 -0.1547
 3947TIP3   OH236035   7.239   4.877  17.545 -0.6232 -0.1941 -0.0933
 3947TIP3    H136036   7.271   4.933  17.475 -3.2497  0.1917 -1.0556
 3947TIP3    H236037   7.309   4.812  17.557 -0.4333 -0.8854 -3.7426
 3948TIP3   OH236038   4.922   5.447  19.175  0.2401  0.1987 -0.1497
 3948TIP3    H136039   4.875   5.470  19.255  2.0449 -0.6801  1.2482
 3948TIP3    H236040   4.889   5.508  19.109 -1.0001  1.2382  1.3583
 3949TIP3   OH236041   4.254   5.243  17.091  0.0553 -0.1779  0.6646
 3949TIP3    H136042   4.349   5.246  17.091  0.0484  0.1907  1.1838
 3949TIP3    H236043   4.228   5.287  17.172 -0.5974  1.1905 -0.2507
 3950TIP3   OH236044   6.209   3.551  18.555 -0.4253 -0.4899 -0.2588
 3950TIP3    H136045   6.233   3.619  18.492 -0.6878 -0.1636 -0.0093
 3950TIP3    H236046   6.223   3.592  18.640 -2.3245 -0.1152 -0.1002
 3951TIP3   OH236047   3.753   2.671  17.644  0.2512  0.4163 -0.6428
 3951TIP3    H136048   3.778   2.713  17.726  0.2465 -1.5331  0.4336
 3951TIP3    H236049   3.830   2.681  17.588  0.2629  1.7576 -0.4130
 3952TIP3   OH236050   4.475   7.628  17.945  0.5300  0.0081  1.0032
 3952TIP3    H136051   4.410   7.601  18.010  2.2398 -0.6074  2.5388
 3952TIP3    H236052   4.449   7.716  17.920 -2.0088 -0.9016  0.0426
 3953TIP3   OH236053   5.595   2.666  18.673  0.3686  0.2525  0.1402
 3953TIP3    H136054   5.589   2.601  18.604 -2.4300  0.9272 -0.3736
 3953TIP3    H236055   5.570   2.619  18.753 -0.5707  0.3951 -0.0516
 3954TIP3   OH236056   2.213   7.224  16.698  0.2577  0.2482  0.3801
 3954TIP3    H136057   2.196   7.196  16.609  0.8345  0.4994  0.1855
 3954TIP3    H236058   2.268   7.302  16.689  3.8335 -1.9578  0.9508
 3955TIP3   OH236059   2.793   4.344  18.953 -0.0878 -0.2575  0.3178
 3955TIP3    H136060   2.810   4.360  19.046  0.0296  1.1035  0.0807
 3955TIP3    H236061   2.865   4.387  18.907 -1.5792  1.5169 -0.4886
 3956TIP3   OH236062   4.624   4.645  18.259 -0.2481  0.7709 -0.5728
 3956TIP3    H136063   4.547   4.641  18.316 -0.4323 -1.4461 -0.8798
 3956TIP3    H236064   4.603   4.586  18.187  2.3853 -1.3335  0.2330
 3957TIP3   OH236065   7.197   4.678  19.435 -0.2668 -0.9456  0.3268
 3957TIP3    H136066   7.291   4.679  19.419 -0.2217 -2.1064  0.4388
 3957TIP3    H236067   7.161   4.744  19.374  0.5020 -1.2380 -0.4535
 3958TIP3   OH236068   6.512   1.379  18.243 -0.5014  0.3030 -0.2357
 3958TIP3    H136069   6.508   1.473  18.261 -2.2241  0.6085 -1.8299
 3958TIP3    H236070   6.466   1.339  18.316 -0.2647  0.7469  0.1638
 3959TIP3   OH236071   2.493   0.320  19.236  0.5484  0.4748 -0.0326
 3959TIP3    H136072   2.554   0.294  19.304  0.6454 -0.1438 -0.3460
 3959TIP3    H236073   2.548   0.337  19.159  0.4276  1.0043 -0.0037
 3960TIP3   OH236074   1.366   5.141  19.253  0.9473  0.2849  0.2881
 3960TIP3    H136075   1.401   5.186  19.176  1.6691  0.6077  0.7988
 3960TIP3    H236076   1.352   5.051  19.224 -0.8662  0.8819 -0.8603
 3961TIP3   OH236077   6.148   7.604  18.895 -0.5654  0.4570  0.0037
 3961TIP3    H136078   6.095   7.530  18.862  2.9406 -1.3157 -2.3718
 3961TIP3    H236079   6.150   7.665  18.822  0.5238  0.5196  0.0733
 3962TIP3   OH236080   3.961   7.131  16.810 -0.2184  0.0127 -0.2782
 3962TIP3    H136081   3.986   7.208  16.758 -1.7270 -0.4873 -1.8298
 3962TIP3    H236082   4.011   7.059  16.770 -1.7885 -0.4684 -1.4426
 3963TIP3   OH236083   6.690   7.513  17.680  0.3085 -0.5439 -0.2926
 3963TIP3    H136084   6.677   7.452  17.753  0.8473 -0.3201  0.0000
 3963TIP3    H236085   6.608   7.563  17.676  1.4927  1.9488  2.5629
 3964TIP3   OH236086   6.343   3.409  16.953  0.1412  0.1910  0.4115
 3964TIP3    H136087   6.263   3.460  16.946  0.2500  0.2898 -0.0992
 3964TIP3    H236088   6.413   3.474  16.948  0.2809 -0.0084 -0.2433
 3965TIP3   OH236089   6.582   0.221  17.731 -0.1433 -0.3476 -0.3980
 3965TIP3    H136090   6.590   0.291  17.795 -0.4516 -0.5683 -0.1120
 3965TIP3    H236091   6.568   0.266  17.648  0.6183 -0.0539 -0.3708
 3966TIP3   OH236092   6.732   3.766  18.090 -0.4447  0.1758 -0.3465
 3966TIP3    H136093   6.691   3.850  18.071 -0.9597 -0.0026 -0.0338
 3966TIP3    H236094   6.683   3.703  18.036 -0.7880 -0.0827  0.2601
 3967TIP3   OH236095   0.233   2.099  16.878  0.3269 -0.3983  0.3055
 3967TIP3    H136096   0.212   2.169  16.816 -0.5840  0.0970  1.1482
 3967TIP3    H236097   0.152   2.049  16.885  0.7474 -1.0846  0.2998
 3968TIP3   OH236098   6.203   4.109  17.592 -0.3920 -0.0228 -0.1012
 3968TIP3    H136099   6.170   4.043  17.531 -1.9884 -0.4091  1.1101
 3968TIP3    H236100   6.298   4.102  17.587 -0.4876 -3.0567  0.6279
 3969TIP3   OH236101   5.315   1.597  17.477  0.1069 -0.0085 -0.0093
 3969TIP3    H136102   5.271   1.555  17.403 -0.0927 -0.5016  0.3784
 3969TIP3    H236103   5.325   1.688  17.451  0.9943 -0.3940 -1.0899
 3970TIP3   OH236104   5.154   0.173  17.201 -0.4647  0.3041 -0.4485
 3970TIP3    H136105   5.238   0.198  17.242 -0.2431  1.4531 -1.5389
 3970TIP3    H236106   5.088   0.222  17.251 -0.4435 -0.1911  0.0732
 3971TIP3   OH236107   7.420   7.295  19.160 -0.3983  0.2580 -0.8446
 3971TIP3    H136108   7.498   7.330  19.118 -0.2766  0.3932 -0.5089
 3971TIP3    H236109   7.452   7.239  19.230 -0.5670 -1.6442 -2.2171
 3972TIP3   OH236110   3.910   5.828  18.280  0.4856  0.0304 -0.4258
 3972TIP3    H136111   3.977   5.782  18.229  1.4580  1.8138 -0.8375
 3972TIP3    H236112   3.952   5.909  18.309 -1.1546  0.7025  0.2375
 3973TIP3   OH236113   3.282   1.987  18.404  0.0298 -0.6835 -0.4148
 3973TIP3    H136114   3.349   1.970  18.470  0.7026 -0.0472 -0.9237
 3973TIP3    H236115   3.210   2.027  18.452 -0.1942 -1.7909  0.2168
 3974TIP3   OH236116   5.914   2.059  19.215  0.1221 -0.0926 -0.2220
 3974TIP3    H136117   5.984   2.020  19.162 -0.3511 -0.3516 -0.6605
 3974TIP3    H236118   5.913   2.151  19.187  0.0381 -0.1731 -0.4843
 3975TIP3   OH236119   7.347   1.278  17.774 -0.3423 -0.0718 -0.3933
 3975TIP3    H136120   7.258   1.245  17.785 -0.5179  0.6025  0.3122
 3975TIP3    H236121   7.344   1.324  17.690 -0.6018 -0.2512 -0.4843
 3976TIP3   OH236122   4.527   5.755  18.719  0.3523 -0.4225  0.2714
 3976TIP3    H136123   4.453   5.699  18.695  0.7675 -0.3329 -1.3148
 3976TIP3    H236124   4.601   5.695  18.728  0.5814 -0.2523 -0.4439
 3977TIP3   OH236125   4.853   4.740  17.767 -0.4715 -0.5332  0.4817
 3977TIP3    H136126   4.930   4.790  17.797 -0.0286 -0.4008 -0.8217
 3977TIP3    H236127   4.889   4.670  17.713 -1.2490 -0.7272  0.2034
 3978TIP3   OH236128   3.769   1.574  18.993 -0.0054  0.2329  0.2980
 3978TIP3    H136129   3.836   1.641  18.987 -1.0878  1.2489 -1.5628
 3978TIP3    H236130   3.694   1.611  18.947 -1.0752 -1.7560  0.3127
 3979TIP3   OH236131   3.837   3.676  18.504 -0.6379  0.2199 -0.2408
 3979TIP3    H136132   3.799   3.589  18.489  0.6654 -0.1754 -1.4369
 3979TIP3    H236133   3.774   3.720  18.561 -0.3854 -2.2257  2.1227
 3980TIP3   OH236134   3.522   5.009  16.892 -0.0994 -0.4632 -0.4010
 3980TIP3    H136135   3.517   4.914  16.879 -1.0254 -0.5048  0.1572
 3980TIP3    H236136   3.453   5.045  16.836  1.2878  0.0348 -1.8440
 3981TIP3   OH236137   3.342   0.470  17.234  0.5014  0.4186 -0.2357
 3981TIP3    H136138   3.246   0.470  17.230  0.4475  3.2823 -1.8098
 3981TIP3    H236139   3.369   0.406  17.168 -0.3368 -0.0769 -0.1094
 3982TIP3   OH236140   0.596   7.353  18.835  0.0577 -0.0991  0.4442
 3982TIP3    H136141   0.651   7.281  18.803 -0.5551  0.0789 -1.1448
 3982TIP3    H236142   0.523   7.310  18.880 -1.0904 -0.6331 -1.7551
 3983TIP3   OH236143   6.195   0.042  17.609 -0.0919  0.1757 -0.2202
 3983TIP3    H136144   6.188   0.110  17.542 -1.4840  0.5190  0.2342
 3983TIP3    H236145   6.105   0.026  17.636  0.2901 -1.2413  0.3045
 3984TIP3   OH236146   4.910   0.013  17.976 -0.1083 -0.2897 -0.8508
 3984TIP3    H136147   4.831  -0.039  17.990 -0.8931  0.6628 -1.6257
 3984TIP3    H236148   4.890   0.098  18.016  0.4189  0.0415 -1.2866
 3985TIP3   OH236149   0.153   2.208  17.526 -0.0551 -0.0541  0.8968
 3985TIP3    H136150   0.197   2.207  17.441 -1.4732  0.4986  0.1067
 3985TIP3    H236151   0.190   2.283  17.572  0.3144 -0.0020  0.5161
 3986TIP3   OH236152   2.023   1.982  19.328 -0.0839 -0.5109 -0.3258
 3986TIP3    H136153   1.964   2.057  19.336 -0.6181 -0.8755 -0.7338
 3986TIP3    H236154   1.964   1.906  19.324  0.3634 -0.8108 -1.7443
 3987TIP3   OH236155   1.781   6.119  18.998  0.2690 -0.6134 -0.3749
 3987TIP3    H136156   1.775   6.199  19.050  2.4074 -0.5806 -0.0848
 3987TIP3    H236157   1.752   6.145  18.911  0.4469  0.3599 -0.1591
 3988TIP3   OH236158   1.743   4.392  18.448  0.0479  0.2989  0.0392
 3988TIP3    H136159   1.697   4.475  18.463  0.7775  0.7591 -0.2268
 3988TIP3    H236160   1.678   4.325  18.471 -0.8718  0.9220 -0.6310
 3989TIP3   OH236161   7.101   4.916  17.787  0.2138  0.4614 -0.0581
 3989TIP3    H136162   7.096   4.982  17.718 -0.4911 -1.1185 -1.6222
 3989TIP3    H236163   7.166   4.853  17.755  1.3786  0.6905  1.7100
 3990TIP3   OH236164   2.322   1.535  19.655  0.5690  0.6784  0.0964
 3990TIP3    H136165   2.368   1.606  19.610  1.8258  0.2570  0.6865
 3990TIP3    H236166   2.390   1.490  19.705  0.0701 -1.8448 -1.3690
 3991TIP3   OH236167   1.167   4.282  19.090 -0.6338  0.4360 -0.3260
 3991TIP3    H136168   1.094   4.225  19.067  0.3006 -1.0429  0.1872
 3991TIP3    H236169   1.138   4.328  19.169 -0.4522 -1.3867  0.8808
 3992TIP3   OH236170   4.084   3.042  19.313  0.2187  1.0040 -0.1161
 3992TIP3    H136171   4.041   3.109  19.365  0.5033  1.1957 -0.1234
 3992TIP3    H236172   4.169   3.081  19.289  0.6321  0.4148  0.3749
 3993TIP3   OH236173   4.886   5.712  17.682  0.5297  0.2198 -0.2506
 3993TIP3    H136174   4.833   5.741  17.608  0.5313 -1.7815 -1.1246
 3993TIP3    H236175   4.976   5.712  17.648  0.7118  0.6404  0.2186
 3994TIP3   OH236176   6.283   5.917  18.794 -0.0885 -0.1787  0.1076
 3994TIP3    H136177   6.317   6.000  18.760 -2.4887  0.4254 -1.0778
 3994TIP3    H236178   6.351   5.853  18.773  0.6324  1.0327 -1.5370
 3995TIP3   OH236179   1.318   2.315  17.045 -0.0245 -0.1533  0.1560
 3995TIP3    H136180   1.234   2.338  17.007  0.4866  0.4327 -0.6762
 3995TIP3    H236181   1.381   2.328  16.973  0.8307 -0.0783  0.8966
 3996TIP3   OH236182   5.979   1.654  17.796  0.5526 -0.3386  0.0786
 3996TIP3    H136183   6.067   1.690  17.797  0.2712  0.4188 -0.9695
 3996TIP3    H236184   5.943   1.677  17.882  1.2597 -0.3784  0.3888
 3997TIP3   OH236185   1.254   4.465  18.263  0.4449 -0.0422  0.1594
 3997TIP3    H136186   1.186   4.405  18.233  0.7402 -0.6300  0.6411
 3997TIP3    H236187   1.334   4.433  18.223  0.3416  1.1079 -1.0337
 3998TIP3   OH236188   7.670   0.382  18.333  0.0385 -0.2178  0.2000
 3998TIP3    H136189   7.635   0.453  18.389  1.7373  0.2960  0.6536
 3998TIP3    H236190   7.726   0.331  18.391  1.6197  0.1508 -0.9361
 3999TIP3   OH236191   7.132   5.533  19.125  0.1119 -0.0884  0.1088
 3999TIP3    H136192   7.130   5.438  19.142 -0.9745 -0.2429 -0.7293
 3999TIP3    H236193   7.039   5.558  19.123  0.4059  1.2239  1.4199
 4000TIP3   OH236194   5.825   2.013  17.850 -0.5264 -0.5358  0.0152
 4000TIP3    H136195   5.843   2.045  17.762  0.6441 -1.1863 -0.0052
 4000TIP3    H236196   5.773   2.082  17.891  0.1532  0.4348 -0.7125
 4001TIP3   OH236197   2.321   6.606  18.045  0.1569  0.5557  0.0078
 4001TIP3    H136198   2.397   6.660  18.071  0.8110  1.4267 -3.2794
 4001TIP3    H236199   2.247   6.667  18.047 -0.4626 -0.1351  2.5467
 4002TIP3   OH236200   4.085   2.014  17.963 -0.0143  0.3325  0.2214
 4002TIP3    H136201   4.001   2.029  18.007 -1.3174 -1.4401 -1.5104
 4002TIP3    H236202   4.144   1.985  18.033 -1.0012  0.9749  1.3563
 4003TIP3   OH236203   6.018   5.907  18.559 -0.0492  0.0061 -1.1588
 4003TIP3    H136204   6.006   5.870  18.646  1.0027  0.4729 -0.7960
 4003TIP3    H236205   6.107   5.882  18.534  0.6268  2.0352 -1.0061
 4004TIP3   OH236206   3.130   0.728  17.928  0.0642 -0.6853 -0.1215
 4004TIP3    H136207   3.039   0.716  17.954 -1.0148 -0.1179 -3.2052
 4004TIP3    H236208   3.154   0.814  17.963 -0.3105 -1.1303  1.2871
 4005TIP3   OH236209   3.973   7.419  17.920 -0.2050  1.1338 -0.1918
 4005TIP3    H136210   4.023   7.497  17.895  1.7377  0.4163  1.1507
 4005TIP3    H236211   4.021   7.346  17.880 -1.0653  0.5000 -0.1010
 4006TIP3   OH236212   2.457   4.614  19.400  0.4097  0.6054 -0.2386
 4006TIP3    H136213   2.417   4.655  19.323  0.2866  1.2445  0.1587
 4006TIP3    H236214   2.545   4.590  19.371  0.4406  1.0389 -0.5230
 4007TIP3   OH236215   1.517   1.468  18.945  0.1521  1.2823  0.2008
 4007TIP3    H136216   1.558   1.395  18.992  0.6838  1.6542  0.3241
 4007TIP3    H236217   1.538   1.453  18.853 -0.6718  0.6917  0.1023
 4008TIP3   OH236218   3.191   0.205  16.766 -0.4674  0.1970 -0.4472
 4008TIP3    H136219   3.155   0.252  16.691 -0.1002 -1.6781 -1.8754
 4008TIP3    H236220   3.281   0.237  16.773  0.0067 -0.6929 -1.8556
 4009TIP3   OH236221   2.293   0.521  18.981  0.0713 -0.0153  0.0240
 4009TIP3    H136222   2.374   0.568  18.961 -0.5321  0.2829 -1.9568
 4009TIP3    H236223   2.226   0.590  18.986 -0.1654 -0.3014  1.2135
 4010TIP3   OH236224   4.564   1.403  18.342 -0.3969  0.4137  1.0656
 4010TIP3    H136225   4.503   1.332  18.360 -0.1327 -0.2721 -0.5276
 4010TIP3    H236226   4.650   1.361  18.342 -0.4079  0.0908 -2.3763
 4011TIP3   OH236227   1.251   0.702  19.344  0.0799  0.1076  0.2664
 4011TIP3    H136228   1.161   0.733  19.351 -0.1174 -0.5994  1.2356
 4011TIP3    H236229   1.295   0.740  19.421 -0.0965 -1.6693  1.3110
 4012TIP3   OH236230   0.028   1.135  16.764 -0.2444  0.5115  0.1761
 4012TIP3    H136231  -0.046   1.196  16.763 -0.4747  0.2311 -0.5854
 4012TIP3    H236232  -0.012   1.048  16.774 -0.0104  0.3715 -0.0829
 4013TIP3   OH236233   0.184   4.207  16.985 -0.5338  0.0128  0.0492
 4013TIP3    H136234   0.140   4.192  16.901  0.2916 -0.6425 -0.2835
 4013TIP3    H236235   0.273   4.233  16.962 -0.3260 -0.0735  0.7189
 4014TIP3   OH236236   5.834   2.347  19.128 -0.0290 -0.4082 -0.2886
 4014TIP3    H136237   5.748   2.338  19.086  0.6447 -1.9773 -1.4553
 4014TIP3    H236238   5.879   2.414  19.075 -0.3125 -0.0324 -0.0571
 4015TIP3   OH236239   4.330   6.137  18.629 -0.6464  0.0347 -0.0918
 4015TIP3    H136240   4.293   6.216  18.590 -2.3944 -0.6606  0.0841
 4015TIP3    H236241   4.260   6.102  18.684  0.4798 -1.0390  0.7158
 4016TIP3   OH236242   1.732   3.166  17.490 -0.1975  0.1869 -0.0550
 4016TIP3    H136243   1.761   3.255  17.510  0.0727  0.1430 -0.2377
 4016TIP3    H236244   1.808   3.126  17.447 -0.0120 -0.4172  0.8217
 4017TIP3   OH236245   6.930   7.002  16.543 -0.6133  0.1504  0.2973
 4017TIP3    H136246   6.908   6.991  16.635 -0.7194  0.6366  0.3311
 4017TIP3    H236247   6.861   7.058  16.507 -2.1882 -2.2981 -0.7566
 4018TIP3   OH236248   3.463   6.223  17.660  0.2584  0.2879 -0.1302
 4018TIP3    H136249   3.518   6.149  17.636  0.8018  0.4280  0.6590
 4018TIP3    H236250   3.491   6.294  17.602  0.1183  0.0429 -0.5033
 4019TIP3   OH236251   6.817   1.359  18.306  0.8516 -0.1220 -0.5350
 4019TIP3    H136252   6.756   1.285  18.312  0.5176  0.1674 -0.2535
 4019TIP3    H236253   6.821   1.393  18.396 -0.4467  1.3348 -0.9823
 4020TIP3   OH236254   1.905   4.899  19.388 -0.2167 -0.0445  0.5213
 4020TIP3    H136255   1.990   4.909  19.344 -0.4969 -0.3250 -0.0991
 4020TIP3    H236256   1.927   4.869  19.476  0.3320 -0.1346  0.3599
 4021TIP3   OH236257   2.108   4.435  16.696  0.3845 -0.0380  0.1738
 4021TIP3    H136258   2.067   4.363  16.648  1.5821 -0.1979 -0.6678
 4021TIP3    H236259   2.085   4.513  16.644  1.7395 -0.2190 -0.7383
 4022TIP3   OH236260   7.323   1.278  19.366 -0.3278 -0.1562 -0.6916
 4022TIP3    H136261   7.328   1.183  19.358  0.0439 -0.1034 -1.0779
 4022TIP3    H236262   7.239   1.301  19.326  0.1802 -0.1891 -1.7982
 4023TIP3   OH236263   1.401   6.484  18.188  0.5684 -0.1429  0.2077
 4023TIP3    H136264   1.431   6.410  18.136 -1.8764 -0.0789 -1.4474
 4023TIP3    H236265   1.371   6.444  18.270 -0.3692 -0.9907 -0.5157
 4024TIP3   OH236266   4.604   4.391  19.537  0.4354  0.2501  0.2146
 4024TIP3    H136267   4.643   4.394  19.450 -0.3290  1.3612 -0.1125
 4024TIP3    H236268   4.677   4.405  19.597  0.8280  0.4038 -0.2950
 4025TIP3   OH236269   3.690   6.570  19.292 -0.4344  0.6910 -0.6465
 4025TIP3    H136270   3.609   6.518  19.297  0.0748  0.0042  1.9811
 4025TIP3    H236271   3.667   6.653  19.333 -0.0281  0.7843 -0.6057
 4026TIP3   OH236272   2.890   3.976  17.266  0.7110  0.4119 -0.3004
 4026TIP3    H136273   2.974   3.953  17.306  1.3209  0.1486 -1.6828
 4026TIP3    H236274   2.837   3.897  17.274  0.5086  0.6461  0.7659
 4027TIP3   OH236275   4.324   3.420  19.620 -0.4782 -0.1403  0.6557
 4027TIP3    H136276   4.398   3.431  19.680 -0.1898 -0.2645  0.3285
 4027TIP3    H236277   4.325   3.499  19.566  0.4044 -0.8409 -0.4099
 4028TIP3   OH236278   1.929   4.243  18.643 -0.1910 -0.1731  0.3043
 4028TIP3    H136279   2.016   4.218  18.673  0.2617  0.7592 -0.1802
 4028TIP3    H236280   1.927   4.219  18.550  0.1075  1.1377 -0.0659
 4029TIP3   OH236281   5.873   7.313  16.939 -0.0406 -0.2706 -0.2332
 4029TIP3    H136282   5.924   7.272  16.868  2.0988  0.3386  0.8676
 4029TIP3    H236283   5.817   7.377  16.894  1.6866  0.5242 -1.3627
 4030TIP3   OH236284   6.141   0.156  18.058  0.1690 -0.6170 -0.4527
 4030TIP3    H136285   6.210   0.098  18.089  0.3117  0.1208  0.6920
 4030TIP3    H236286   6.181   0.204  17.985  1.9544  1.9103  2.0039
 4031TIP3   OH236287   4.319   5.156  18.423 -0.0126  0.2293  0.7216
 4031TIP3    H136288   4.266   5.211  18.366  0.5540  0.5392  0.4856
 4031TIP3    H236289   4.259   5.089  18.456 -0.2989 -0.0663 -0.3906
 4032TIP3   OH236290   1.725   2.977  19.289 -0.1461  0.2113  0.0518
 4032TIP3    H136291   1.748   2.947  19.201  1.2043  0.0164  0.4476
 4032TIP3    H236292   1.797   3.034  19.315 -0.8512  0.7964  0.7880
 4033TIP3   OH236293   0.700   3.308  19.430  0.1668 -0.6786  0.1698
 4033TIP3    H136294   0.737   3.223  19.404  0.8718 -0.3841  0.1934
 4033TIP3    H236295   0.649   3.335  19.353  1.6580 -0.1504 -0.6722
 4034TIP3   OH236296   4.109   0.740  17.485  0.1678 -0.3046  0.5485
 4034TIP3    H136297   4.152   0.711  17.404  0.4461 -0.4271  0.7390
 4034TIP3    H236298   4.023   0.699  17.482 -0.7704  1.5660 -0.8547
 4035TIP3   OH236299   2.954   1.893  18.897  0.7489 -0.0530  0.0751
 4035TIP3    H136300   2.921   1.820  18.950 -3.4376  1.4730 -0.0170
 4035TIP3    H236301   2.954   1.967  18.957 -3.0987  1.4842 -1.4905
 4036TIP3   OH236302   2.721   5.878  18.243 -0.4020  0.7532  0.3918
 4036TIP3    H136303   2.760   5.803  18.288 -0.8852  0.4565  0.3257
 4036TIP3    H236304   2.637   5.891  18.287 -1.1208  0.1348 -0.7358
 4037TIP3   OH236305   1.928   3.869  18.056  0.0714 -0.3759  0.2880
 4037TIP3    H136306   1.975   3.845  17.976  1.3790 -1.8103  1.4372
 4037TIP3    H236307   1.891   3.955  18.036  0.4656 -0.6259 -1.8036
 4038TIP3   OH236308   4.074   2.569  18.007  0.3096 -0.7445 -0.7028
 4038TIP3    H136309   4.166   2.574  18.033 -0.1938  2.6114  0.9467
 4038TIP3    H236310   4.052   2.657  17.978 -2.9032 -0.8404  0.9536
 4039TIP3   OH236311   6.586   3.601  19.150 -0.5484 -0.1956 -0.1763
 4039TIP3    H136312   6.546   3.519  19.178  0.3484 -0.5549  0.1026
 4039TIP3    H236313   6.620   3.582  19.063  2.6132 -1.2422  1.1265
 4040TIP3   OH236314   7.076   2.643  19.330 -0.0598  0.2307  0.0294
 4040TIP3    H136315   6.996   2.693  19.316  0.8305  1.4306 -0.9558
 4040TIP3    H236316   7.082   2.633  19.425 -0.4644  1.6433  0.2170
 4041TIP3   OH236317   1.454   7.247  19.136  0.2184 -0.0875  0.1847
 4041TIP3    H136318   1.497   7.162  19.127  2.1596  0.9091 -0.5409
 4041TIP3    H236319   1.456   7.284  19.048 -0.4424  0.7954  0.5240
 4042TIP3   OH236320   1.373   4.889  17.459 -0.8200 -0.1294 -0.1162
 4042TIP3    H136321   1.315   4.966  17.464  1.2802  1.6587 -1.6813
 4042TIP3    H236322   1.441   4.906  17.525  0.3754  0.0387 -1.3576
 4043TIP3   OH236323   7.228   1.873  17.027  0.1202 -0.2653  0.5731
 4043TIP3    H136324   7.323   1.877  17.024  0.1424 -1.2062 -0.6606
 4043TIP3    H236325   7.208   1.811  17.097  0.4324 -0.6240  0.3443
 4044TIP3   OH236326   6.590   1.045  17.415  0.2452  0.8261  0.4664
 4044TIP3    H136327   6.636   0.994  17.481  0.1711 -0.3124 -0.3425
 4044TIP3    H236328   6.498   1.043  17.443  0.2563  0.5900  0.4910
 4045TIP3   OH236329   4.378   2.784  19.671  0.2081  0.2431 -0.1777
 4045TIP3    H136330   4.331   2.860  19.705  0.5984  1.2111 -1.7020
 4045TIP3    H236331   4.311   2.717  19.660 -0.2721  0.6016  0.5046
 4046TIP3   OH236332   6.118   2.508  19.638  0.0963 -0.9163  0.0260
 4046TIP3    H136333   6.174   2.476  19.567 -0.4904 -0.7703 -0.5058
 4046TIP3    H236334   6.039   2.540  19.594  0.9328  2.0085  0.3986
 4047TIP3   OH236335   1.901   0.585  18.509  0.2169 -0.6298  0.7710
 4047TIP3    H136336   1.920   0.519  18.576 -0.4136 -1.2476  0.3596
 4047TIP3    H236337   1.814   0.618  18.532  0.2302 -0.4508  0.5653
 4048TIP3   OH236338   4.395   2.427  17.716  0.1839  0.1501 -0.0392
 4048TIP3    H136339   4.309   2.405  17.751  0.4396 -0.0535  0.4720
 4048TIP3    H236340   4.456   2.407  17.787  0.7311 -0.4196 -0.6518
 4049TIP3   OH236341   1.853   1.759  17.901  0.4508 -0.0367 -0.2022
 4049TIP3    H136342   1.842   1.664  17.907 -0.4522  0.0768  0.0561
 4049TIP3    H236343   1.843   1.778  17.808 -1.7583  0.0660  0.0147
 4050TIP3   OH236344   4.134   2.644  17.611 -0.2602 -1.0318  0.2444
 4050TIP3    H136345   4.088   2.722  17.641 -0.8528 -0.3501 -2.2177
 4050TIP3    H236346   4.225   2.658  17.641 -0.3833  0.5315 -0.0012
 4051TIP3   OH236347   3.477   4.322  17.414  0.0284  0.0250 -0.6829
 4051TIP3    H136348   3.453   4.289  17.327 -0.0080 -0.8618 -0.3377
 4051TIP3    H236349   3.568   4.352  17.404 -0.0660  0.1903 -1.0916
 4052TIP3   OH236350   0.004   6.419  18.188  0.1839 -1.0171  0.0878
 4052TIP3    H136351  -0.027   6.508  18.170 -0.4189 -1.4056 -0.9122
 4052TIP3    H236352   0.008   6.414  18.283  0.1193  0.0428  0.1630
 4053TIP3   OH236353   3.078   5.871  18.021  0.3854 -0.1485 -0.0800
 4053TIP3    H136354   3.090   5.910  17.935  0.8233 -0.5463 -0.2003
 4053TIP3    H236355   3.138   5.797  18.023  1.6598  0.8486  1.1892
 4054TIP3   OH236356   6.598   4.981  19.936  0.2102  0.5740  0.6167
 4054TIP3    H136357   6.540   4.974  20.012  0.8418 -0.6134  1.0112
 4054TIP3    H236358   6.570   5.061  19.892 -0.1546  1.3207  2.1173
 4055TIP3   OH236359   3.150   1.316  18.504  0.0219  0.1784 -0.0639
 4055TIP3    H136360   3.086   1.265  18.553 -0.7073  0.3806 -0.7841
 4055TIP3    H236361   3.098   1.382  18.458  0.8905  1.2822  0.4730
 4056TIP3   OH236362   5.851   4.569  18.333  0.5783 -0.1131  0.4088
 4056TIP3    H136363   5.930   4.516  18.334  0.0294 -0.9795 -0.2846
 4056TIP3    H236364   5.781   4.509  18.359  0.2005  0.7618  1.5034
 4057TIP3   OH236365   4.322   5.102  18.047  0.1427  0.7294 -0.0251
 4057TIP3    H136366   4.412   5.103  18.079  0.0242  4.2984  0.5987
 4057TIP3    H236367   4.270   5.135  18.120 -1.5397 -0.1308 -0.7820
 4058TIP3   OH236368   7.670   4.137  17.252 -0.2481 -0.2664  0.1099
 4058TIP3    H136369   7.723   4.168  17.179 -0.9160 -0.3579 -0.4214
 4058TIP3    H236370   7.591   4.102  17.211 -0.4989 -0.5949  0.8580
 4059TIP3   OH236371   6.442   0.972  18.314  0.4939 -0.2894 -0.3278
 4059TIP3    H136372   6.414   0.881  18.325  2.8818 -1.0161  0.3231
 4059TIP3    H236373   6.535   0.966  18.295  0.5500  2.0221 -1.0998
 4060TIP3   OH236374   3.951   2.243  17.637 -0.4702  0.1552  0.1497
 4060TIP3    H136375   4.001   2.263  17.559  0.3153 -0.7968  0.3841
 4060TIP3    H236376   3.945   2.326  17.684 -1.6536  0.9251 -1.2773
 4061TIP3   OH236377   5.995   3.519  17.275  0.6211 -0.4558 -0.2580
 4061TIP3    H136378   5.902   3.523  17.255  0.6688 -0.1971 -0.4276
 4061TIP3    H236379   5.999   3.490  17.366  0.3700 -0.3144 -0.2024
 4062TIP3   OH236380   4.385   2.191  19.232  0.2074  0.3168 -0.4295
 4062TIP3    H136381   4.347   2.155  19.152 -1.6149 -1.4029  1.1131
 4062TIP3    H236382   4.442   2.262  19.201 -2.0604  1.1772 -3.1105
 4063TIP3   OH236383   2.235   1.273  17.885 -0.4526 -0.2785  0.0182
 4063TIP3    H136384   2.210   1.244  17.973 -0.1280  2.0767  0.9608
 4063TIP3    H236385   2.151   1.285  17.839 -0.6025 -2.1877 -0.2848
 4064TIP3   OH236386   1.928   4.921  17.740  0.3693 -0.4055  0.1620
 4064TIP3    H136387   1.896   4.958  17.658 -0.2490  0.5777  0.8197
 4064TIP3    H236388   1.997   4.981  17.768 -0.5081  0.1875  1.1447
 4065TIP3   OH236389   2.675   4.215  17.454  0.3197 -0.7322  0.1377
 4065TIP3    H136390   2.615   4.163  17.402 -0.0401 -0.2531  0.0710
 4065TIP3    H236391   2.663   4.305  17.424  2.4455 -0.8393 -1.2326
 4066TIP3   OH236392   2.573   0.898  17.236 -0.6054  0.0474  0.0841
 4066TIP3    H136393   2.527   0.919  17.155 -0.8339 -2.8698 -0.6604
 4066TIP3    H236394   2.511   0.844  17.286  0.8748 -1.4378  0.4205
 4067TIP3   OH236395   5.831   4.858  19.206 -0.3287  0.5203  0.4802
 4067TIP3    H136396   5.872   4.897  19.129  1.6115 -1.0208  0.6572
 4067TIP3    H236397   5.761   4.802  19.171 -1.7062  2.3468  0.1142
 4068TIP3   OH236398   3.419   1.220  17.999 -0.4925 -0.4312  0.5116
 4068TIP3    H136399   3.472   1.148  18.032 -0.9024 -0.4915  1.0400
 4068TIP3    H236400   3.374   1.255  18.076 -0.6049  0.1353  0.1977
 4069TIP3   OH236401   6.252   6.232  18.790 -0.2119  0.6849  0.8938
 4069TIP3    H136402   6.157   6.231  18.775 -0.0382 -0.6148 -0.3427
 4069TIP3    H236403   6.277   6.324  18.784 -1.3071  0.9782  0.6852
 4070TIP3   OH236404   3.532   1.168  19.455 -0.4439 -0.3983  0.4836
 4070TIP3    H136405   3.552   1.154  19.547  0.5556  0.2318  0.3869
 4070TIP3    H236406   3.564   1.257  19.437 -2.5524  0.3304  0.0428
 4071TIP3   OH236407   2.319   6.824  17.516 -0.0699  0.3176  0.0101
 4071TIP3    H136408   2.322   6.818  17.420  0.0804 -0.6706  0.0683
 4071TIP3    H236409   2.290   6.914  17.533  1.3599  0.9986 -0.9270
 4072TIP3   OH236410   1.407   2.588  17.981  0.1673 -0.0078  0.5400
 4072TIP3    H136411   1.391   2.674  18.020  0.7236  0.0205  0.7074
 4072TIP3    H236412   1.487   2.557  18.022 -0.0165 -0.6018  0.4619
 4073TIP3   OH236413   5.907   3.239  19.689 -0.5536 -0.2770 -0.5706
 4073TIP3    H136414   5.839   3.219  19.625  0.1726 -0.5052 -1.2931
 4073TIP3    H236415   5.987   3.249  19.637 -0.2510  1.2310  0.1260
 4074TIP3   OH236416   1.507   0.351  18.183 -0.1666 -0.0719  0.0835
 4074TIP3    H136417   1.413   0.349  18.165 -0.4443  0.7498  1.2982
 4074TIP3    H236418   1.543   0.282  18.128 -1.3620  0.1348 -1.0141
 4075TIP3   OH236419   6.396   7.259  18.190  0.6523  0.1247  0.2586
 4075TIP3    H136420   6.368   7.196  18.256  1.0623 -1.5744 -1.1408
 4075TIP3    H236421   6.330   7.253  18.121  0.7889  1.1303  0.0173
 4076TIP3   OH236422   0.285   0.824  18.247  1.0671 -0.4160 -0.4637
 4076TIP3    H136423   0.316   0.808  18.159  0.5202  1.5380 -1.0635
 4076TIP3    H236424   0.324   0.908  18.272 -0.8628  0.3894  0.0800
 4077TIP3   OH236425   1.898   0.556  19.141 -0.1137  0.3437  0.5209
 4077TIP3    H136426   1.942   0.608  19.073  0.5798 -0.9007 -0.0281
 4077TIP3    H236427   1.842   0.618  19.186  3.2103  2.4174  2.2123
 4078TIP3   OH236428   0.763   1.358  19.213  0.2496 -0.4297  0.1763
 4078TIP3    H136429   0.670   1.361  19.236  0.6852 -0.6899  2.0956
 4078TIP3    H236430   0.808   1.353  19.297  1.9982 -0.5315 -0.7392
 4079TIP3   OH236431   7.573   4.673  18.331  0.0753  0.0756  0.7148
 4079TIP3    H136432   7.520   4.651  18.407 -0.9931 -0.9198 -0.2861
 4079TIP3    H236433   7.510   4.699  18.264  0.8998 -0.3566 -0.2568
 4080TIP3   OH236434   3.727   2.211  19.562 -0.1344  0.0408  0.1347
 4080TIP3    H136435   3.729   2.281  19.497  2.8907 -1.1645 -1.2696
 4080TIP3    H236436   3.747   2.255  19.645  1.0398  0.9688 -0.6042
 4081TIP3   OH236437   6.616   0.744  18.652  0.0603 -0.1524  0.2945
 4081TIP3    H136438   6.675   0.720  18.723 -0.3648 -1.6456  0.1857
 4081TIP3    H236439   6.622   0.839  18.646  2.2155 -0.2268  0.4712
 4082TIP3   OH236440   4.428   2.922  18.382  0.1324 -0.4171 -0.5800
 4082TIP3    H136441   4.437   2.852  18.318 -1.5365  0.0293 -1.3749
 4082TIP3    H236442   4.391   2.880  18.459  1.3186 -0.8060 -0.2187
 4083TIP3   OH236443   6.699   5.958  19.345  0.2988 -0.1397  0.9263
 4083TIP3    H136444   6.623   6.015  19.339  1.3939  1.2553 -0.6787
 4083TIP3    H236445   6.675   5.892  19.411 -2.2264  0.2858  0.5293
 4084TIP3   OH236446   0.864   2.962  17.465  0.0813  0.0477 -0.2532
 4084TIP3    H136447   0.769   2.975  17.460 -0.0569 -0.9100 -0.3950
 4084TIP3    H236448   0.898   3.010  17.389 -0.1723  1.2096  0.3362
 4085TIP3   OH236449   0.962   2.756  17.877 -0.6175 -0.2863 -0.3463
 4085TIP3    H136450   1.027   2.801  17.824 -0.4851 -1.1751 -0.9708
 4085TIP3    H236451   0.878   2.776  17.835 -0.7810  1.0032  0.5646
 4086TIP3   OH236452   6.478   3.778  17.534 -0.2140  0.2445  0.6547
 4086TIP3    H136453   6.398   3.805  17.488 -2.0635 -1.1337  2.8513
 4086TIP3    H236454   6.537   3.749  17.464 -1.3564  1.8408 -1.0880
 4087TIP3   OH236455   2.082   6.361  17.976  0.4712 -0.6127 -0.2890
 4087TIP3    H136456   2.019   6.412  18.027  0.7322 -1.2693  0.7226
 4087TIP3    H236457   2.031   6.326  17.903 -0.6776 -2.0601  1.1157
 4088TIP3   OH236458   4.917   6.223  18.302 -0.0052 -0.0771  0.3896
 4088TIP3    H136459   4.852   6.165  18.264  0.9361 -1.2358  0.4912
 4088TIP3    H236460   4.911   6.208  18.396 -1.2589  1.6397  0.6266
 4089TIP3   OH236461   2.618   3.174  17.816  0.0824  0.3778  0.1283
 4089TIP3    H136462   2.694   3.128  17.851  1.1682  1.3516 -0.8506
 4089TIP3    H236463   2.644   3.266  17.813 -1.9517  1.1089  1.8419
 4090TIP3   OH236464   4.413   4.387  17.788 -0.1245  0.3248 -0.3835
 4090TIP3    H136465   4.453   4.301  17.771 -0.1334  0.3299 -0.4289
 4090TIP3    H236466   4.319   4.369  17.791 -0.2216  0.5434 -1.6785
 4091TIP3   OH236467   2.530   0.179  17.587  0.7931 -0.0024 -0.2750
 4091TIP3    H136468   2.434   0.169  17.584  0.6278  0.4269  1.8152
 4091TIP3    H236469   2.547   0.259  17.537  0.1500 -0.5033 -1.3254
 4092TIP3   OH236470   3.755   5.069  18.291 -0.2661 -0.1076 -0.3647
 4092TIP3    H136471   3.699   5.124  18.346 -0.8031  0.3311 -1.3309
 4092TIP3    H236472   3.708   5.061  18.208  0.6257 -0.5886 -0.8424
 4093TIP3   OH236473   0.060   6.177  18.455  0.0814 -0.1963 -0.2932
 4093TIP3    H136474   0.107   6.171  18.372 -1.2315  0.1329 -1.0920
 4093TIP3    H236475   0.010   6.259  18.448 -0.8584 -0.6941  0.3728
 4094TIP3   OH236476   3.367   7.615  17.277 -0.0877 -0.1608  0.2250
 4094TIP3    H136477   3.373   7.704  17.242  0.6808 -0.1289  0.4308
 4094TIP3    H236478   3.280   7.584  17.249 -0.9438  1.1379  1.3349
 4095TIP3   OH236479   6.012   4.419  18.849 -0.2374  0.5136  0.7833
 4095TIP3    H136480   5.962   4.345  18.884 -0.8473  0.2560 -0.5695
 4095TIP3    H236481   6.029   4.475  18.925 -0.7545 -0.4515  1.6264
 4096TIP3   OH236482   5.950   6.071  16.507  0.5729 -0.1158 -0.4686
 4096TIP3    H136483   6.031   6.122  16.503  1.2093 -0.7381  2.2661
 4096TIP3    H236484   5.892   6.115  16.445  2.9223  0.4025 -2.4575
 4097TIP3   OH236485   7.124   1.318  18.382 -0.1873  0.2640  0.1421
 4097TIP3    H136486   7.137   1.308  18.288 -0.4298  0.3752  0.0971
 4097TIP3    H236487   7.029   1.315  18.394 -0.1072 -1.5399  0.5895
 4098TIP3   OH236488   5.589   0.281  17.783 -0.0053 -0.2564 -0.4884
 4098TIP3    H136489   5.616   0.300  17.693  1.3922 -3.5264 -0.9044
 4098TIP3    H236490   5.496   0.259  17.776 -0.6177  2.1351 -0.6030
 4099TIP3   OH236491   3.782   4.911  17.805 -1.0849  0.2223 -0.2176
 4099TIP3    H136492   3.811   5.000  17.828 -0.6171 -0.1050  0.4698
 4099TIP3    H236493   3.812   4.900  17.714  1.4394 -0.2734  0.5933
 4100TIP3   OH236494   6.105   1.186  18.752 -0.4991  0.2684 -0.0164
 4100TIP3    H136495   6.011   1.198  18.739 -0.8418 -0.6293  1.4631
 4100TIP3    H236496   6.138   1.273  18.772 -0.9526  0.6331 -0.7985
 4101TIP3   OH236497   6.080   0.583  18.793  0.5532  0.4338 -0.5425
 4101TIP3    H136498   6.175   0.596  18.791  0.6825 -0.3997 -0.4318
 4101TIP3    H236499   6.048   0.628  18.714  1.3961 -1.7228 -2.2295
 4102TIP3   OH236500   2.514   1.972  17.970  0.5067 -0.0463 -0.8736
 4102TIP3    H136501   2.435   2.017  18.002 -1.2254 -2.3673 -1.6683
 4102TIP3    H236502   2.563   2.041  17.925  0.1194  1.9760  1.5389
 4103TIP3   OH236503   6.445   6.853  19.158 -0.0636  0.1777 -0.3318
 4103TIP3    H136504   6.483   6.827  19.074 -1.6529  1.1143 -1.4127
 4103TIP3    H236505   6.381   6.920  19.135 -1.0539 -0.0396  1.5772
 4104TIP3   OH236506   0.221   3.890  17.668 -0.5798 -0.3391 -0.3268
 4104TIP3    H136507   0.170   3.908  17.746 -0.9600 -0.2228 -0.6028
 4104TIP3    H236508   0.213   3.969  17.615  0.2156 -0.1564 -0.1970
 4105TIP3   OH236509   5.658   5.516  18.852 -0.0330  0.7103  0.3069
 4105TIP3    H136510   5.687   5.427  18.831 -0.7259  0.7186 -0.7332
 4105TIP3    H236511   5.582   5.505  18.908 -1.0624  0.6085 -1.0797
 4106TIP3   OH236512   0.739   7.242  18.280 -0.4978 -0.2055 -0.3042
 4106TIP3    H136513   0.660   7.214  18.234 -1.4477  2.3575 -0.4324
 4106TIP3    H236514   0.799   7.271  18.211 -0.6177  0.5358 -0.1127
 4107TIP3   OH236515   4.432   5.671  18.358 -0.2346 -0.1613  0.3274
 4107TIP3    H136516   4.450   5.616  18.282  0.2603  0.6449 -0.1572
 4107TIP3    H236517   4.518   5.698  18.388 -0.4885  1.3345 -0.2016
 4108TIP3   OH236518   2.613   6.742  16.360 -0.1617  0.0810 -0.6654
 4108TIP3    H136519   2.631   6.664  16.307 -0.1748 -0.4655  0.1170
 4108TIP3    H236520   2.557   6.710  16.431 -0.5774  0.9037 -0.6114
 4109TIP3   OH236521   3.833   5.937  18.757  0.1472  0.2041 -0.2123
 4109TIP3    H136522   3.790   5.894  18.683  1.2638 -1.2114 -0.0778
 4109TIP3    H236523   3.780   5.913  18.833 -1.7701  2.7113 -0.5954
 4110TIP3   OH236524   4.172   0.658  19.246 -0.6473  0.4375 -0.2274
 4110TIP3    H136525   4.181   0.584  19.305 -0.6546  0.0148 -0.7495
 4110TIP3    H236526   4.078   0.665  19.230 -0.5237 -0.4064 -1.3851
 4111TIP3   OH236527   2.464   2.800  17.072 -0.1181 -0.5048 -0.0903
 4111TIP3    H136528   2.471   2.705  17.058 -2.1856 -0.6064 -0.6907
 4111TIP3    H236529   2.466   2.809  17.168  0.4365 -1.1123 -0.0346
 4112TIP3   OH236530   5.973   2.591  17.041 -0.0920  0.1020 -0.0180
 4112TIP3    H136531   5.930   2.651  17.102  2.1928 -0.0941  1.8906
 4112TIP3    H236532   5.921   2.511  17.047 -1.0123  0.6889  0.1649
 4113TIP3   OH236533   0.890   4.925  18.566 -0.1166  0.1004  0.1746
 4113TIP3    H136534   0.888   5.009  18.521 -1.7047 -0.2956 -0.5753
 4113TIP3    H236535   0.801   4.892  18.559  0.6562 -2.0673 -0.3566
 4114TIP3   OH236536   5.410   1.767  19.100  0.3171 -0.5836  0.0307
 4114TIP3    H136537   5.328   1.774  19.149  0.6174  0.4753  0.4143
 4114TIP3    H236538   5.473   1.732  19.163  0.6469  0.5578  0.3563
 4115TIP3   OH236539   5.176   3.241  19.461 -0.4841 -0.0429  0.6717
 4115TIP3    H136540   5.264   3.278  19.468 -0.2271  0.1939 -2.5095
 4115TIP3    H236541   5.117   3.315  19.476 -0.1406  0.0783  1.4837
 4116TIP3   OH236542   0.212   2.428  18.176  0.1315  0.5851  0.2301
 4116TIP3    H136543   0.121   2.456  18.189  0.8696  3.0932  0.4076
 4116TIP3    H236544   0.206   2.357  18.112 -2.0509 -0.3488  1.3609
 4117TIP3   OH236545   2.307   1.718  17.162  0.4608 -0.2579 -0.2729
 4117TIP3    H136546   2.295   1.813  17.172 -2.9979 -0.5308 -0.5060
 4117TIP3    H236547   2.296   1.702  17.069  2.2542 -0.8331 -0.4246
 4118TIP3   OH236548   1.505   1.894  19.088 -0.0272  0.5509  0.0378
 4118TIP3    H136549   1.416   1.877  19.056  0.4902  0.2039 -1.2976
 4118TIP3    H236550   1.511   1.989  19.091 -1.0534  0.6057  2.0164
 4119TIP3   OH236551   5.304   2.301  16.352 -0.0131 -0.0811  0.0131
 4119TIP3    H136552   5.355   2.245  16.294 -0.2090  0.4614 -0.6996
 4119TIP3    H236553   5.216   2.262  16.352 -0.0389 -0.0279 -0.1492
 4120TIP3   OH236554   5.139   2.050  19.371  0.1842  0.2417 -0.4355
 4120TIP3    H136555   5.189   2.083  19.446  0.7030  2.0615 -1.5224
 4120TIP3    H236556   5.049   2.045  19.404  0.1049  2.6075 -0.0825
 4121TIP3   OH236557   0.863   2.682  19.508  0.0187 -0.7142  0.1122
 4121TIP3    H136558   0.851   2.656  19.417  0.3276 -1.8937  0.3782
 4121TIP3    H236559   0.783   2.729  19.531  0.3925  0.5709 -1.0640
 4122TIP3   OH236560   5.136   4.016  19.317 -0.1988 -0.3560 -0.0842
 4122TIP3    H136561   5.097   4.047  19.398  2.1620  0.6101  0.7820
 4122TIP3    H236562   5.187   4.090  19.285  0.5354 -1.3607 -1.3732
 4123TIP3   OH236563   5.141   4.720  18.257 -0.1832 -0.0189 -0.1306
 4123TIP3    H136564   5.145   4.673  18.174  1.1490 -0.6563  0.2676
 4123TIP3    H236565   5.191   4.665  18.318  0.2435  1.2387  0.6854
 4124TIP3   OH236566   5.016   7.371  19.433  0.3040  0.1973  0.4925
 4124TIP3    H136567   5.025   7.407  19.344 -0.5311  0.7321  0.6080
 4124TIP3    H236568   4.921   7.368  19.447  0.4171 -0.4586  1.1406
 4125TIP3   OH236569   0.767   2.136  17.638 -0.3911  0.4859  0.4048
 4125TIP3    H136570   0.816   2.181  17.707  0.5582 -0.9669  0.7130
 4125TIP3    H236571   0.721   2.065  17.683 -0.1744 -0.1636 -0.3707
 4126TIP3   OH236572   1.673   2.981  18.968  0.1249  0.0022  0.0340
 4126TIP3    H136573   1.584   2.995  18.936  0.2538 -1.4563 -1.0769
 4126TIP3    H236574   1.675   2.889  18.993  1.9008 -0.6154 -2.0754
 4127TIP3   OH236575   2.473   0.561  16.940 -0.2729 -0.3075  0.3891
 4127TIP3    H136576   2.389   0.559  16.985 -3.1561  1.4002 -4.1333
 4127TIP3    H236577   2.498   0.470  16.930 -1.9525 -0.9021  1.2836
 4128TIP3   OH236578   4.226   5.923  17.772 -0.2780 -0.1620 -0.0251
 4128TIP3    H136579   4.232   5.973  17.690  1.4296  0.1481  0.2455
 4128TIP3    H236580   4.214   5.989  17.840 -2.2309 -0.4575 -0.0514
 4129TIP3   OH236581   0.760   3.626  19.157 -0.4357 -0.0842  0.1502
 4129TIP3    H136582   0.809   3.547  19.135 -0.1416  0.3429 -0.8171
 4129TIP3    H236583   0.679   3.618  19.107 -0.0062  0.6402 -0.6994
 4130TIP3   OH236584   3.965   0.099  17.339 -0.4837 -0.2678 -0.1381
 4130TIP3    H136585   3.932   0.033  17.401 -0.7261  1.1047  1.2736
 4130TIP3    H236586   3.892   0.159  17.327 -0.0410  0.1407 -0.8498
 4131TIP3   OH236587   2.586   1.800  18.463  0.1956  0.5053  0.1795
 4131TIP3    H136588   2.646   1.762  18.527 -0.7569 -0.1133  0.7304
 4131TIP3    H236589   2.570   1.889  18.495  1.0192  0.7704 -0.1254
 4132TIP3   OH236590   6.825   6.487  17.368  0.3236 -0.6009 -0.1695
 4132TIP3    H136591   6.907   6.534  17.351 -0.9314  1.4184 -1.0818
 4132TIP3    H236592   6.807   6.440  17.286 -0.4660  0.7050 -0.7820
 4133TIP3   OH236593   1.051   2.818  17.062 -0.0899 -0.0537  0.1849
 4133TIP3    H136594   1.002   2.740  17.035 -2.1040  1.8468 -2.2003
 4133TIP3    H236595   1.081   2.856  16.979  2.7119  0.6164  1.4167
 4134TIP3   OH236596   4.111   0.100  18.027  0.4822  0.2955  0.4039
 4134TIP3    H136597   4.150   0.136  18.107 -1.2710 -2.8747  2.9170
 4134TIP3    H236598   4.029   0.146  18.017 -0.8199 -1.3683  2.4622
 4135TIP3   OH236599   0.098   2.379  18.817 -0.3743 -0.1434 -0.9942
 4135TIP3    H136600   0.152   2.432  18.877  0.2671 -2.2484  0.3836
 4135TIP3    H236601   0.138   2.392  18.731  1.2216 -0.1997 -0.2993
 4136TIP3   OH236602   7.442   0.778  19.299 -0.3604  0.0778 -0.6880
 4136TIP3    H136603   7.467   0.713  19.365  0.2255  0.8647 -0.1244
 4136TIP3    H236604   7.350   0.758  19.280 -0.9801  0.6910  1.3986
 4137TIP3   OH236605   4.976   1.882  18.603 -0.1428 -0.9078 -0.4033
 4137TIP3    H136606   5.056   1.880  18.654 -0.1757 -1.1532 -0.3586
 4137TIP3    H236607   4.911   1.838  18.658 -0.5290  0.0526 -0.0786
 4138TIP3   OH236608   2.128   6.096  19.301  0.3251 -0.6918  0.1582
 4138TIP3    H136609   2.085   6.056  19.225  2.3472 -0.1079 -1.3824
 4138TIP3    H236610   2.161   6.022  19.352  0.7692 -1.0672 -0.6611
 4139TIP3   OH236611   1.282   0.218  18.393  0.2510  0.4813  0.3000
 4139TIP3    H136612   1.219   0.179  18.332 -1.4607 -0.0687  2.3303
 4139TIP3    H236613   1.253   0.308  18.405  1.1418  0.8808 -0.3515
 4140TIP3   OH236614   0.172   1.537  18.402 -0.1990  0.1134 -0.2443
 4140TIP3    H136615   0.187   1.618  18.450 -0.5766 -0.7154  1.3183
 4140TIP3    H236616   0.143   1.474  18.468 -0.9164 -1.0231 -1.5814
 4141TIP3   OH236617   4.070   6.108  18.739  0.5005 -0.7060 -0.2203
 4141TIP3    H136618   4.105   6.156  18.814 -0.0412 -0.6704  0.0108
 4141TIP3    H236619   3.992   6.064  18.772  0.0094 -0.3435 -0.8626
 4142TIP3   OH236620   0.389   4.993  18.592 -0.2043 -0.3654  0.0368
 4142TIP3    H136621   0.356   4.903  18.601  0.6895 -0.9654 -1.9999
 4142TIP3    H236622   0.443   4.990  18.512 -1.2893  2.3008 -0.8896
 4143TIP3   OH236623   4.810   4.717  17.099 -0.4744  0.3366  0.0542
 4143TIP3    H136624   4.840   4.719  17.008 -1.0840  2.7173 -0.1819
 4143TIP3    H236625   4.839   4.633  17.132 -0.9101 -0.9478 -2.5540
 4144TIP3   OH236626   2.623   1.446  17.622 -0.6994  0.1323  0.2819
 4144TIP3    H136627   2.708   1.407  17.645  0.8853  3.1749  0.1292
 4144TIP3    H236628   2.572   1.442  17.703  0.9087  1.2346  1.4153
 4145TIP3   OH236629   4.749   1.900  19.558  0.2667  0.0058 -0.3736
 4145TIP3    H136630   4.655   1.887  19.565  0.0749  1.1212 -0.7064
 4145TIP3    H236631   4.786   1.811  19.562 -0.7386 -0.4024  0.3870
 4146TIP3   OH236632   5.860   2.772  18.583  0.5335  0.4065 -0.4447
 4146TIP3    H136633   5.874   2.740  18.494 -1.0066  1.0030 -0.9284
 4146TIP3    H236634   5.776   2.734  18.609  1.4142 -0.5633  1.1488
 4147TIP3   OH236635   2.196   5.232  18.618  0.1762 -0.1213  0.1156
 4147TIP3    H136636   2.284   5.245  18.581  0.7414 -0.9456  1.1393
 4147TIP3    H236637   2.155   5.319  18.611  1.0645  0.2784 -0.3735
 4148TIP3   OH236638   7.119   4.244  19.731  0.2573  0.4288  0.5288
 4148TIP3    H136639   7.141   4.305  19.801  1.4765  1.5338 -0.7614
 4148TIP3    H236640   7.193   4.183  19.728 -0.1549 -0.0929  0.6857
 4149TIP3   OH236641   2.885   5.445  17.880  0.1533 -0.6070 -0.1404
 4149TIP3    H136642   2.823   5.446  17.806 -0.0105  0.3167 -0.0043
 4149TIP3    H236643   2.856   5.517  17.936  0.8738 -0.6796  0.3332
 4150TIP3   OH236644   2.675   5.203  19.297 -0.2570  0.3490  0.1188
 4150TIP3    H136645   2.734   5.239  19.230 -1.3573  1.5889 -0.2313
 4150TIP3    H236646   2.627   5.134  19.251 -0.0699  0.3016 -0.0054
 4151TIP3   OH236647   6.354   3.902  18.129 -0.2644 -0.3462  0.1976
 4151TIP3    H136648   6.373   3.961  18.056  4.0926 -0.8406  0.6891
 4151TIP3    H236649   6.396   3.820  18.106 -2.9336 -2.1510  1.2512
 4152TIP3   OH236650   5.017   2.559  17.752 -0.3654  0.0781  0.5360
 4152TIP3    H136651   5.070   2.500  17.806 -1.4882 -0.3096  1.2380
 4152TIP3    H236652   4.986   2.505  17.680  2.1364  0.8764 -1.2825
 4153TIP3   OH236653   5.108   3.142  18.041  0.2202 -0.5447  0.0150
 4153TIP3    H136654   5.166   3.073  18.071  0.4972 -0.0788  0.5814
 4153TIP3    H236655   5.049   3.158  18.115  0.3217 -0.0086 -0.0095
 4154TIP3   OH236656   1.948   3.039  17.349  0.4508 -0.3957  0.4854
 4154TIP3    H136657   1.973   2.974  17.284  0.5935 -0.0031  0.1440
 4154TIP3    H236658   1.994   3.119  17.322  0.2768 -0.1522  0.8977
 4155TIP3   OH236659   5.619   4.486  18.748  0.3632 -0.4218  0.1552
 4155TIP3    H136660   5.662   4.549  18.690  0.9285  0.9886  1.9963
 4155TIP3    H236661   5.672   4.407  18.741  1.6818  0.4124  0.3290
 4156TIP3   OH236662   6.264   7.527  17.901 -0.0352 -0.1331  0.4625
 4156TIP3    H136663   6.275   7.581  17.824  2.3763  0.4242  1.1229
 4156TIP3    H236664   6.319   7.568  17.968 -1.0407 -1.3190  2.1011
 4157TIP3   OH236665   4.313   5.189  18.680  0.1116 -0.3213 -0.1365
 4157TIP3    H136666   4.220   5.211  18.673  0.2818  0.6157  0.4002
 4157TIP3    H236667   4.345   5.192  18.589 -0.3431 -0.5349 -0.3104
 4158TIP3   OH236668   1.428   1.116  17.531  1.0798 -0.2306 -0.3009
 4158TIP3    H136669   1.414   1.182  17.463  0.5512 -0.0730 -0.0472
 4158TIP3    H236670   1.396   1.035  17.493  0.0590 -0.0007  0.0252
 4159TIP3   OH236671   1.475   2.503  17.168 -0.1867  0.0338  0.3540
 4159TIP3    H136672   1.457   2.411  17.150  1.6884 -0.1085 -1.0667
 4159TIP3    H236673   1.434   2.550  17.095  3.2365 -0.1687 -1.9237
 4160TIP3   OH236674   2.916   6.812  19.033 -0.0320  0.4620 -0.0750
 4160TIP3    H136675   2.987   6.747  19.031 -0.7449 -0.3371 -0.1915
 4160TIP3    H236676   2.930   6.861  19.114  1.3204  1.0981 -0.6620
 4161TIP3   OH236677   6.868   5.455  17.681  0.5029 -0.2973 -0.1316
 4161TIP3    H136678   6.912   5.523  17.631 -1.2591  0.6049 -0.5475
 4161TIP3    H236679   6.782   5.492  17.701  0.3062 -1.5533  1.5601
 4162TIP3   OH236680   2.935   1.855  18.615 -0.0741 -0.5056 -0.3684
 4162TIP3    H136681   2.998   1.926  18.605  0.2402 -0.9673 -2.0518
 4162TIP3    H236682   2.920   1.848  18.709  0.5889  1.1655 -0.1181
 4163TIP3   OH236683   3.146   4.179  17.304 -0.9926  0.2974  0.2816
 4163TIP3    H136684   3.082   4.228  17.355 -0.6126 -0.5895  1.6592
 4163TIP3    H236685   3.154   4.095  17.349  0.9348  0.2860  0.0183
 4164TIP3   OH236686   2.805   4.865  19.193 -0.1899  0.3049  0.3116
 4164TIP3    H136687   2.812   4.770  19.207  0.1405  0.2725 -0.0641
 4164TIP3    H236688   2.888   4.900  19.227  0.3528  0.2924 -0.9617
 4165TIP3   OH236689   5.945   2.801  17.520 -0.6400 -0.0085  0.0321
 4165TIP3    H136690   5.860   2.771  17.552 -0.2082 -1.1683  0.1202
 4165TIP3    H236691   6.008   2.771  17.585  0.0150 -0.5470 -0.8279
 4166TIP3   OH236692   4.997   4.274  17.002 -0.6868  0.8601  0.3464
 4166TIP3    H136693   5.034   4.317  16.925 -0.3344  0.2550  0.1715
 4166TIP3    H236694   5.037   4.187  17.002 -2.9380 -0.2408 -0.4738
 4167TIP3   OH236695   4.686   2.788  19.270 -0.1852  0.1283 -0.4568
 4167TIP3    H136696   4.769   2.770  19.316 -1.2509 -1.7363  0.9163
 4167TIP3    H236697   4.635   2.838  19.333 -0.7022 -0.1929 -0.6168
 4168TIP3   OH236698   0.811   3.551  18.838  0.3881  0.5019  0.6123
 4168TIP3    H136699   0.785   3.643  18.834 -0.5087  0.3021  1.4400
 4168TIP3    H236700   0.749   3.506  18.780  1.8577  0.5927 -1.1415
 4169TIP3   OH236701   5.820   6.821  18.042 -0.1242 -0.0761 -0.0436
 4169TIP3    H136702   5.860   6.796  18.126 -0.1375  0.8362  0.2398
 4169TIP3    H236703   5.893   6.856  17.990 -0.2978  0.2943 -0.0406
 4170TIP3   OH236704   4.199   3.703  17.493 -0.1509 -0.1200  0.2752
 4170TIP3    H136705   4.172   3.713  17.584 -0.3795 -1.0413  0.3237
 4170TIP3    H236706   4.276   3.646  17.497 -2.3264 -3.3722 -0.3034
 4171TIP3   OH236707   2.122   3.821  18.485 -1.0689  0.9608 -0.6306
 4171TIP3    H136708   2.148   3.732  18.463  0.2175  1.4848 -1.3314
 4171TIP3    H236709   2.127   3.824  18.581 -2.4222 -0.0639 -0.4870
 4172TIP3   OH236710   0.138   1.728  17.530  0.6394  0.4397  0.1145
 4172TIP3    H136711   0.083   1.658  17.564  1.9778 -1.1995 -0.8882
 4172TIP3    H236712   0.114   1.805  17.581  0.2720 -1.1144  2.4511
 4173TIP3   OH236713   5.664   4.599  19.228 -0.2594  0.7230 -0.2318
 4173TIP3    H136714   5.617   4.648  19.295  0.3749  1.9381 -0.6355
 4173TIP3    H236715   5.756   4.605  19.254 -0.0702  0.6689 -0.8592
 4174TIP3   OH236716   1.081   6.548  18.776  0.2981 -0.3895  0.8017
 4174TIP3    H136717   1.026   6.608  18.827  0.5458  0.0597  0.5501
 4174TIP3    H236718   1.019   6.489  18.734  0.0729 -0.5680  1.3764
 4175TIP3   OH236719   3.034   2.740  17.549 -0.1828  0.2834 -0.0769
 4175TIP3    H136720   2.943   2.708  17.548 -0.3421  0.6963 -1.9003
 4175TIP3    H236721   3.068   2.716  17.463  1.6131 -0.2657  0.7412
 4176TIP3   OH236722   5.141   3.970  19.784  0.7105 -0.0016  0.5917
 4176TIP3    H136723   5.174   3.941  19.869  0.6778  0.6017  0.8090
 4176TIP3    H236724   5.112   3.889  19.742 -0.5096 -0.1792  1.6843
 4177TIP3   OH236725   1.275   3.964  17.717 -0.5251 -0.1033  0.0590
 4177TIP3    H136726   1.347   4.027  17.726 -0.2828 -0.4651  0.6974
 4177TIP3    H236727   1.284   3.931  17.627 -1.2654  1.4864 -0.6387
 4178TIP3   OH236728   2.704   2.094  19.123  0.4124  0.6199 -0.0929
 4178TIP3    H136729   2.671   2.012  19.088  0.0873  0.2536  1.0436
 4178TIP3    H236730   2.633   2.128  19.177 -0.4554  2.9197 -2.4592
 4179TIP3   OH236731   3.970   6.789  19.427 -0.0153 -0.3923  0.2073
 4179TIP3    H136732   3.874   6.794  19.420  0.0577 -0.5271 -1.0706
 4179TIP3    H236733   3.986   6.776  19.521 -1.3721 -2.8737  0.1820
 4180TIP3   OH236734   1.569   0.367  19.399  0.1521  0.2516  0.3090
 4180TIP3    H136735   1.555   0.327  19.485  0.0001 -0.6770 -0.1391
 4180TIP3    H236736   1.482   0.391  19.369  0.3221  2.0145  1.0574
 4181TIP3   OH236737   4.049   4.283  19.244  0.5372  0.1532  0.5600
 4181TIP3    H136738   4.098   4.345  19.298 -2.1929  2.9026  0.1914
 4181TIP3    H236739   4.076   4.303  19.154 -2.3143  3.1101  0.1488
 4182TIP3   OH236740   1.190   7.639  19.301 -0.1139  0.8673  0.1821
 4182TIP3    H136741   1.159   7.597  19.221 -0.4438  1.0780  0.1962
 4182TIP3    H236742   1.285   7.634  19.295 -0.1246 -1.5770  1.1030
 4183TIP3   OH236743   6.309   2.830  18.390 -0.1266 -0.3639 -0.0235
 4183TIP3    H136744   6.387   2.862  18.436 -0.2362  0.4599 -0.3987
 4183TIP3    H236745   6.250   2.905  18.387 -0.6602 -0.7886 -0.3489
 4184TIP3   OH236746   5.715   5.473  17.089  0.2980 -0.2496  0.3510
 4184TIP3    H136747   5.773   5.467  17.012 -0.2840 -0.4318 -0.0785
 4184TIP3    H236748   5.698   5.382  17.112 -1.4876 -0.2530 -0.8033
 4185TIP3   OH236749   7.060   0.036  17.372  0.2737  0.4137  0.0909
 4185TIP3    H136750   7.037  -0.034  17.311  0.3370  0.4047  0.0770
 4185TIP3    H236751   7.041   0.117  17.325  1.3295  0.4287 -0.3500
 4186TIP3   OH236752   1.989   7.623  18.773  0.1043  0.1553 -0.2110
 4186TIP3    H136753   1.978   7.684  18.700  2.1226  0.9355  0.0788
 4186TIP3    H236754   1.906   7.628  18.821 -0.1173  1.9916 -0.7089
 4187TIP3   OH236755   7.352   3.760  19.682 -0.6754 -0.0333 -0.3884
 4187TIP3    H136756   7.381   3.671  19.663 -1.0088 -0.4945  1.1034
 4187TIP3    H236757   7.433   3.811  19.692 -0.4467 -0.4888  0.1264
 4188TIP3   OH236758   6.023   6.664  19.246 -0.3866  0.5264  0.7556
 4188TIP3    H136759   5.974   6.618  19.314 -1.0107  0.7330  0.4551
 4188TIP3    H236760   6.083   6.599  19.211 -1.9246 -0.3960 -0.3384
 4189TIP3   OH236761   1.010   2.850  18.639  0.0072  0.1068  0.3188
 4189TIP3    H136762   0.925   2.851  18.594  0.0582  2.4463  0.1494
 4189TIP3    H236763   1.072   2.822  18.572 -0.4903 -0.6632  0.1678
 4190TIP3   OH236764   5.496   0.893  17.700 -0.6139 -0.6315 -0.4482
 4190TIP3    H136765   5.581   0.936  17.697 -1.2450  0.7518  0.3572
 4190TIP3    H236766   5.496   0.833  17.626  0.8016 -0.1623 -0.8508
 4191TIP3   OH236767   6.660   7.669  18.813 -0.2152  0.4316  0.2805
 4191TIP3    H136768   6.655   7.574  18.812  1.2644  0.2860  1.8042
 4191TIP3    H236769   6.751   7.689  18.792 -0.2961  1.4586  0.8459
 4192TIP3   OH236770   2.656   0.016  18.137  0.2266  0.1944 -0.0116
 4192TIP3    H136771   2.710  -0.011  18.211  0.5049 -0.2173 -0.3523
 4192TIP3    H236772   2.627  -0.067  18.098 -1.1950  0.4048  0.5459
 4193TIP3   OH236773   3.659   0.131  17.502 -0.3776  0.1198 -0.2341
 4193TIP3    H136774   3.591   0.198  17.495 -1.4443 -0.7986  0.8144
 4193TIP3    H236775   3.717   0.163  17.571 -1.0326 -0.1196  0.4515
 4194TIP3   OH236776   2.621   7.118  17.820 -0.6446 -0.0220  0.2793
 4194TIP3    H136777   2.530   7.111  17.849 -1.3952  1.4757 -1.5011
 4194TIP3    H236778   2.648   7.206  17.844 -0.0154 -0.1013 -0.1139
 4195TIP3   OH236779   6.828   7.020  18.350 -0.3936 -0.6879  0.1964
 4195TIP3    H136780   6.746   6.987  18.314 -0.4537  1.2269 -1.5919
 4195TIP3    H236781   6.871   7.064  18.277  2.1797 -1.4496  1.1269
 4196TIP3   OH236782   3.437   3.900  19.658  0.2919  0.1633  0.4555
 4196TIP3    H136783   3.414   3.816  19.621 -1.2349  0.2679  1.1068
 4196TIP3    H236784   3.430   3.888  19.753  0.3041  0.9542  0.5699
 4197TIP3   OH236785   5.250   4.372  16.589  0.1747 -0.0048  0.1172
 4197TIP3    H136786   5.212   4.331  16.512  0.9606 -2.9194  1.1425
 4197TIP3    H236787   5.324   4.423  16.556 -0.7155  0.4737 -1.2028
 4198TIP3   OH236788   1.485   0.189  18.961  0.6089 -1.0131 -0.2088
 4198TIP3    H136789   1.533   0.251  19.016  2.7520 -2.2808 -0.5402
 4198TIP3    H236790   1.487   0.107  19.010 -2.6073 -0.8152  0.4537
 4199TIP3   OH236791   0.139   6.305  17.555 -0.0777  0.3104 -0.7503
 4199TIP3    H136792   0.210   6.295  17.491  0.1956 -0.5184 -0.3375
 4199TIP3    H236793   0.142   6.397  17.581  2.0198 -0.0464  0.5648
 4200TIP3   OH236794   0.979   1.468  16.850  0.5247  0.0272  0.3105
 4200TIP3    H136795   1.001   1.431  16.764  0.5482 -0.2816  0.4489
 4200TIP3    H236796   1.023   1.553  16.851  0.8641 -0.1460  0.1821
 4201TIP3   OH236797   3.392   6.979  18.277  0.0265 -0.4350 -0.0536
 4201TIP3    H136798   3.316   6.952  18.327  1.4020 -0.4590  2.1897
 4201TIP3    H236799   3.383   6.935  18.193 -1.9834 -1.1042  0.4626
 4202TIP3   OH236800   3.332   0.795  18.166  0.2670  0.1251  0.1032
 4202TIP3    H136801   3.299   0.851  18.096 -0.0098  0.7188  0.6963
 4202TIP3    H236802   3.254   0.761  18.209  0.4365 -0.1812  0.1780
 4203TIP3   OH236803   5.753   0.007  17.163  0.1128  0.0462 -0.2619
 4203TIP3    H136804   5.792   0.013  17.251 -1.3937  1.8879  0.3466
 4203TIP3    H236805   5.709  -0.079  17.163  0.8265 -0.3369  0.4644
 4204TIP3   OH236806   6.170   3.712  17.162 -0.4432 -0.2475 -0.1799
 4204TIP3    H136807   6.120   3.638  17.197 -0.5854 -0.4068 -0.7093
 4204TIP3    H236808   6.136   3.724  17.074  0.1044 -0.0289 -0.3634
 4205TIP3   OH236809   5.417   2.551  18.855  0.6032 -0.2265 -0.0524
 4205TIP3    H136810   5.358   2.500  18.800  0.7709  0.8499 -1.2749
 4205TIP3    H236811   5.359   2.609  18.905  0.5707  0.5483 -0.9580
 4206TIP3   OH236812   7.652   4.210  19.078  0.4298  0.1458 -0.0993
 4206TIP3    H136813   7.578   4.152  19.059  0.0742  1.3267 -2.7909
 4206TIP3    H236814   7.711   4.157  19.131 -1.4082 -1.5121  0.4102
 4207TIP3   OH236815   2.793   7.057  17.609 -0.1541 -0.2953  0.2860
 4207TIP3    H136816   2.750   7.114  17.673  0.1770 -1.4788  1.6144
 4207TIP3    H236817   2.882   7.047  17.643  0.0365 -0.9104 -0.3820
 4208TIP3   OH236818   5.282   2.321  17.521 -0.2796  0.2885 -0.3774
 4208TIP3    H136819   5.329   2.266  17.457  0.9187  0.5978  0.2057
 4208TIP3    H236820   5.194   2.284  17.523 -0.4944  0.5267 -2.5332
 4209TIP3   OH236821   2.927   0.688  17.530 -0.1670 -0.1157 -0.0244
 4209TIP3    H136822   2.878   0.685  17.612  1.2036 -1.1342  0.7995
 4209TIP3    H236823   2.898   0.769  17.488 -1.8486 -0.2230  0.8381
 4210TIP3   OH236824   3.448   0.370  18.208 -0.0341  0.4041  0.0447
 4210TIP3    H136825   3.401   0.427  18.147 -1.9172  0.1957  1.2260
 4210TIP3    H236826   3.380   0.320  18.252  1.4001 -0.8456  0.9668
 4211TIP3   OH236827   3.521   4.780  19.258 -0.0927 -0.6648 -0.1700
 4211TIP3    H136828   3.603   4.780  19.208 -0.5663  1.2034 -1.0020
 4211TIP3    H236829   3.518   4.866  19.301 -1.1609 -1.0786  0.6419
 4212TIP3   OH236830   0.721   1.563  19.625  0.1743  0.6803 -0.0006
 4212TIP3    H136831   0.736   1.649  19.586  1.1273  0.3209 -0.4413
 4212TIP3    H236832   0.655   1.579  19.692 -0.5590  1.5397 -0.8914
 4213TIP3   OH236833   3.781   1.120  18.156  0.0130  0.1377  0.0221
 4213TIP3    H136834   3.850   1.121  18.089  0.9325  0.4947  0.9392
 4213TIP3    H236835   3.707   1.078  18.113  0.5238  0.4741 -1.2636
 4214TIP3   OH236836   3.358   0.346  18.588 -0.1352 -0.4879  0.3272
 4214TIP3    H136837   3.263   0.336  18.602  0.0676 -1.2435  1.3372
 4214TIP3    H236838   3.376   0.436  18.614 -0.7447  0.0227 -0.9634
 4215TIP3   OH236839   6.393   0.258  18.983 -0.2614 -0.0717  0.5257
 4215TIP3    H136840   6.309   0.218  19.003 -1.0722  0.5176 -1.4599
 4215TIP3    H236841   6.415   0.227  18.895  1.1190  0.5491  0.6168
 4216TIP3   OH236842   3.512   0.335  19.245 -0.4192 -0.4396 -0.2846
 4216TIP3    H136843   3.584   0.396  19.227 -2.2298  1.5232 -1.2718
 4216TIP3    H236844   3.476   0.365  19.329  0.1001 -1.6556  0.3988
 4217TIP3   OH236845   4.580   1.790  17.576 -0.1199  0.5194  0.1587
 4217TIP3    H136846   4.530   1.711  17.555  0.7665  0.1256 -0.5230
 4217TIP3    H236847   4.638   1.803  17.501 -0.1074  1.7120  0.3497
 4218TIP3   OH236848   2.687   4.114  17.140  0.5224 -0.1842  0.5669
 4218TIP3    H136849   2.728   4.137  17.057 -0.2331 -0.2640  0.1670
 4218TIP3    H236850   2.759   4.077  17.192  1.2871  1.0715  0.4507
 4219TIP3   OH236851   5.806   3.277  17.567  0.4448 -0.4015 -0.0067
 4219TIP3    H136852   5.850   3.332  17.632 -0.0781  0.4617 -0.3647
 4219TIP3    H236853   5.876   3.248  17.508  0.6051  0.7066 -0.3917
 4220TIP3   OH236854   5.832   6.712  17.730 -0.3835  0.0397 -0.4149
 4220TIP3    H136855   5.899   6.747  17.787  0.4318 -0.0730 -1.2735
 4220TIP3    H236856   5.803   6.786  17.677 -1.2315  0.1745  0.2184
 4221TIP3   OH236857   4.700   4.240  19.114 -0.1789 -0.0647  0.5326
 4221TIP3    H136858   4.765   4.222  19.046  0.7989  1.0377  1.1275
 4221TIP3    H236859   4.696   4.336  19.118 -1.8904 -0.1099  0.4872
 4222TIP3   OH236860   7.235   3.578  19.198  0.2691  0.3434 -0.8382
 4222TIP3    H136861   7.266   3.640  19.264 -1.0295  2.4619 -2.1027
 4222TIP3    H236862   7.186   3.513  19.247  1.8984  0.0926  0.5612
 4223TIP3   OH236863   7.271   3.021  17.442 -0.2646 -0.1955 -0.8394
 4223TIP3    H136864   7.236   3.055  17.525  0.8830 -2.9806  0.9317
 4223TIP3    H236865   7.194   2.994  17.392 -0.9212 -1.6798  0.8676
 4224TIP3   OH236866   2.272   1.793  17.457  0.5188 -0.0327  0.4473
 4224TIP3    H136867   2.350   1.850  17.454  0.3003  0.2314 -1.3694
 4224TIP3    H236868   2.291   1.724  17.395 -1.1216  0.6305 -0.8593
 4225TIP3   OH236869   6.013   2.533  18.533 -0.5384 -0.1299 -0.0069
 4225TIP3    H136870   5.993   2.584  18.454 -1.5385 -0.9588 -0.3135
 4225TIP3    H236871   5.934   2.483  18.549 -0.2568 -0.1500  1.4094
 4226TIP3   OH236872   2.615   4.438  19.250 -0.0825  0.5048 -0.3415
 4226TIP3    H136873   2.562   4.461  19.173 -1.6924  2.4896  1.2183
 4226TIP3    H236874   2.560   4.378  19.300 -0.8174  2.2599  1.0892
 4227TIP3   OH236875   1.931   1.144  18.199 -0.3179  0.4106  0.4967
 4227TIP3    H136876   1.956   1.072  18.256  0.9337 -0.1993 -0.7542
 4227TIP3    H236877   1.885   1.103  18.126 -0.3258  0.9620  0.1842
 4228TIP3   OH236878   1.590   6.315  18.057 -0.3696 -0.4671  0.2039
 4228TIP3    H136879   1.590   6.232  18.009  0.4753  0.1647 -0.9122
 4228TIP3    H236880   1.675   6.318  18.100  0.2058  0.4878 -0.9609
 4229TIP3   OH236881   7.420   7.005  18.668 -0.1215 -0.2135 -0.6041
 4229TIP3    H136882   7.440   7.058  18.591  0.4704 -0.0841 -0.3648
 4229TIP3    H236883   7.469   7.046  18.739 -3.2138  1.7203  0.6179
 4230TIP3   OH236884   1.629   3.119  17.115  0.1115  0.1119 -0.3318
 4230TIP3    H136885   1.550   3.068  17.098 -0.7116  1.3291 -0.2948
 4230TIP3    H236886   1.698   3.074  17.065 -0.5756 -1.0259 -0.2762
 4231TIP3   OH236887   3.852   3.961  16.633  0.0987  0.2611  0.0313
 4231TIP3    H136888   3.918   3.910  16.680 -0.5494 -1.2517 -0.6481
 4231TIP3    H236889   3.793   3.991  16.702  0.2881 -0.2083  0.4085
 4232TIP3   OH236890   0.429   6.751  18.274  0.1212  0.5833 -0.3881
 4232TIP3    H136891   0.403   6.742  18.366 -0.5414 -1.5677 -0.7428
 4232TIP3    H236892   0.525   6.748  18.276  0.0892 -0.2944  0.1720
 4233TIP3   OH236893   5.441   2.727  19.434 -0.0426  0.2763  0.2802
 4233TIP3    H136894   5.404   2.728  19.522  1.0425 -0.4210  0.7749
 4233TIP3    H236895   5.372   2.763  19.378 -1.7678 -1.7188  0.9999
 4234TIP3   OH236896   3.949   4.229  16.623  0.1115 -0.0153  0.6299
 4234TIP3    H136897   3.934   4.135  16.612  1.5441 -0.1389 -0.4638
 4234TIP3    H236898   4.028   4.235  16.676  0.7091  0.5554 -0.3105
 4235TIP3   OH236899   3.913   3.338  19.141  0.0015 -0.6874  0.7004
 4235TIP3    H136900   3.930   3.249  19.112 -1.5105 -0.5831 -0.6545
 4235TIP3    H236901   3.939   3.392  19.066 -0.6277 -0.1301  0.8756
 4236TIP3   OH236902   3.088   5.788  19.729  0.5358  0.3296  0.0582
 4236TIP3    H136903   3.029   5.717  19.754  1.0921 -0.3734 -0.5891
 4236TIP3    H236904   3.115   5.826  19.813  0.5626 -0.4965  0.4399
 4237TIP3   OH236905   3.750   6.044  18.016 -0.0021  0.2173 -0.0749
 4237TIP3    H136906   3.807   5.987  17.966 -0.0196 -0.5071  0.7084
 4237TIP3    H236907   3.808   6.115  18.045  0.8899 -1.2214  1.8884
 4238TIP3   OH236908   7.609   4.005  18.522 -0.4537  0.4920 -0.6775
 4238TIP3    H136909   7.646   3.999  18.434 -0.2841 -0.7177 -0.5369
 4238TIP3    H236910   7.543   3.936  18.525  0.2561 -0.1767  0.4764
 4239TIP3   OH236911   2.857   3.049  17.634 -0.1857  0.5888  0.0809
 4239TIP3    H136912   2.852   3.065  17.728 -0.2666  1.7414 -0.1073
 4239TIP3    H236913   2.817   2.963  17.622 -0.2135  0.4520  1.0918
 4240TIP3   OH236914   0.029   3.366  17.755 -0.3124  0.0586  0.1522
 4240TIP3    H136915   0.087   3.432  17.793 -0.6573 -0.0476  0.8668
 4240TIP3    H236916  -0.037   3.350  17.822 -0.2138 -1.0436  0.0006
 4241TIP3   OH236917   2.169   5.890  19.503 -0.0123  0.1116 -0.0961
 4241TIP3    H136918   2.130   5.812  19.463 -0.3677 -1.1528  2.4995
 4241TIP3    H236919   2.236   5.856  19.562 -0.8897  1.6457  1.9199
 4242TIP3   OH236920   4.441   0.918  19.054  0.4144 -0.1741 -0.2620
 4242TIP3    H136921   4.387   0.950  19.126 -0.0828  1.2162 -1.2033
 4242TIP3    H236922   4.378   0.888  18.988  0.8627 -1.3266 -0.1991
 4243TIP3   OH236923   1.661   0.691  19.290  0.1170 -0.1865 -0.1387
 4243TIP3    H136924   1.565   0.682  19.284  0.2201 -1.7924  0.1464
 4243TIP3    H236925   1.688   0.614  19.340  1.6883 -0.3623 -1.2209
 4244TIP3   OH236926   2.549   1.905  18.996 -0.2704  0.1358  0.4031
 4244TIP3    H136927   2.528   1.848  18.922  0.4510 -2.0057  1.7493
 4244TIP3    H236928   2.503   1.867  19.070 -1.1304  2.3454  1.0808
 4245TIP3   OH236929   6.821   5.914  17.664  0.0646 -0.0242  0.5396
 4245TIP3    H136930   6.751   5.854  17.691 -0.8190  0.4487 -0.6469
 4245TIP3    H236931   6.782   5.970  17.598  1.5967  0.2051 -0.2309
 4246TIP3   OH236932   6.934   0.716  16.855  0.3135 -0.2616  0.4080
 4246TIP3    H136933   6.974   0.630  16.848  0.5679 -0.1081 -0.0736
 4246TIP3    H236934   6.840   0.698  16.860  0.3202 -0.5510 -0.2814
 4247TIP3   OH236935   0.183   1.915  18.807 -0.0464  0.6299  0.0758
 4247TIP3    H136936   0.209   1.873  18.889 -1.2237 -2.2091 -0.8801
 4247TIP3    H236937   0.101   1.959  18.828 -0.1053  0.2990  0.5460
 4248TIP3   OH236938   2.249   3.578  18.442  0.1137 -0.0285 -0.4311
 4248TIP3    H136939   2.328   3.620  18.476  0.0788 -0.5354  0.3217
 4248TIP3    H236940   2.229   3.510  18.507  0.0778 -1.0848 -1.5133
 4249TIP3   OH236941   5.817   4.676  18.902  0.1652 -0.5468 -0.3326
 4249TIP3    H136942   5.767   4.652  18.824  0.8365 -1.9693 -0.3547
 4249TIP3    H236943   5.752   4.712  18.963 -0.2942  1.0821 -1.7071
 4250TIP3   OH236944   4.862   5.457  17.793  0.2069 -0.0567  0.2191
 4250TIP3    H136945   4.872   5.544  17.755  0.1449 -0.6838 -1.2911
 4250TIP3    H236946   4.789   5.466  17.854 -0.3893  0.7387 -0.5936
 4251TIP3   OH236947   3.137   5.104  18.012  0.5767 -0.2393  0.2200
 4251TIP3    H136948   3.171   5.038  18.072 -0.5756 -1.4648 -0.4282
 4251TIP3    H236949   3.182   5.185  18.038  1.0116 -0.9728  1.9209
 4252TIP3   OH236950   5.515   4.385  17.855  0.4638 -0.7730 -0.7080
 4252TIP3    H136951   5.433   4.343  17.832  0.5919 -1.1102 -0.5530
 4252TIP3    H236952   5.514   4.468  17.807 -0.4843 -0.2498  0.1867
 4253TIP3   OH236953   5.543   3.991  18.464 -0.7386 -0.4825  0.0214
 4253TIP3    H136954   5.494   3.916  18.498 -0.1580 -0.4537  0.9502
 4253TIP3    H236955   5.511   4.066  18.513 -0.2831 -0.3495  0.1232
 4254TIP3   OH236956   7.391   6.129  17.657  0.3444  0.0476 -0.2609
 4254TIP3    H136957   7.339   6.204  17.627  1.8114  1.0369 -0.3989
 4254TIP3    H236958   7.450   6.165  17.723  0.3031 -1.2219  0.5056
 4255TIP3   OH236959   0.326   3.302  19.635 -0.0328  0.0535  0.3450
 4255TIP3    H136960   0.237   3.315  19.603  0.3970  0.2079 -0.8359
 4255TIP3    H236961   0.318   3.235  19.703 -0.7306 -1.7961 -1.4661
 4256TIP3   OH236962   6.516   5.404  17.169 -0.0889  0.0851 -0.4036
 4256TIP3    H136963   6.506   5.393  17.264  0.2341  1.7835 -0.1428
 4256TIP3    H236964   6.426   5.405  17.135 -0.5567  3.7774  0.4902
 4257TIP3   OH236965   3.170   3.028  19.446  0.1775  0.2411 -0.0283
 4257TIP3    H136966   3.149   3.112  19.488 -0.8684 -0.1471  0.2301
 4257TIP3    H236967   3.100   3.014  19.383 -0.1011 -0.8269  0.4941
 4258TIP3   OH236968   0.896   5.896  19.289 -0.0581  0.0324 -0.8998
 4258TIP3    H136969   0.826   5.936  19.237 -0.0131  2.0239  0.4796
 4258TIP3    H236970   0.851   5.836  19.348 -0.8983  2.3759  1.0082
 4259TIP3   OH236971   6.080   3.498  16.955  0.5145  0.2262 -0.5875
 4259TIP3    H136972   6.098   3.589  16.928  0.2257 -0.1010 -1.9836
 4259TIP3    H236973   5.985   3.493  16.960  0.5596  0.2314  0.3835
 4260TIP3   OH236974   4.890   1.494  18.971  0.2653 -0.2527 -0.6067
 4260TIP3    H136975   4.915   1.487  19.063  0.1403 -0.4638 -0.5886
 4260TIP3    H236976   4.972   1.517  18.926 -0.1335  2.3769 -0.1392
 4261TIP3   OH236977   7.420   3.522  19.587  0.3370 -0.5997  0.0810
 4261TIP3    H136978   7.487   3.462  19.618  0.0150 -0.3572  1.3073
 4261TIP3    H236979   7.352   3.466  19.551 -0.2221 -1.0421  1.7246
 4262TIP3   OH236980   0.702   3.584  18.420  0.2844 -0.9505  0.4217
 4262TIP3    H136981   0.634   3.540  18.369  0.6553 -0.5293 -0.4463
 4262TIP3    H236982   0.720   3.525  18.493  0.3523 -1.9550 -0.3991
 4263TIP3   OH236983   5.223   6.757  18.060 -0.5767  0.2282 -0.2440
 4263TIP3    H136984   5.234   6.721  18.148  0.6745 -1.1098 -0.9123
 4263TIP3    H236985   5.256   6.847  18.068 -0.9875  0.3056  0.7677
 4264TIP3   OH236986   2.202   3.327  18.616  0.2638 -0.3930  0.6295
 4264TIP3    H136987   2.125   3.362  18.659  0.7378  1.9366 -0.2560
 4264TIP3    H236988   2.170   3.252  18.565 -1.4248  0.5466  0.2528
 4265TIP3   OH236989   0.047   4.684  17.926  0.6515 -0.4552 -0.1746
 4265TIP3    H136990  -0.024   4.622  17.911 -0.0443 -1.3897  5.1654
 4265TIP3    H236991   0.004   4.770  17.927  0.1493 -0.7032 -0.0122
 4266TIP3   OH236992   4.784   7.276  17.280  0.0690  0.2577  0.5765
 4266TIP3    H136993   4.723   7.293  17.208 -2.4052 -0.0329  2.4954
 4266TIP3    H236994   4.771   7.184  17.301 -0.6525  0.7722  2.5651
 4267TIP3   OH236995   4.177   7.177  19.236 -0.4952 -0.1654 -0.1098
 4267TIP3    H136996   4.199   7.084  19.230 -0.1417 -0.0298 -1.1745
 4267TIP3    H236997   4.136   7.187  19.321 -0.3131 -1.2552  0.1143
 4268TIP3   OH236998   1.980   2.441  17.860  0.4112  0.7697 -0.6266
 4268TIP3    H136999   1.961   2.446  17.954 -1.2158 -0.3432 -0.8527
 4268TIP3    H237000   1.919   2.375  17.827  0.3433  1.7613 -2.6311
 4269TIP3   OH237001   5.274   1.484  19.251  0.3424  0.6499  0.5098
 4269TIP3    H137002   5.347   1.491  19.188  1.3859  1.8995  1.7995
 4269TIP3    H237003   5.224   1.565  19.239  1.1502  1.4079  1.9484
 4270TIP3   OH237004   0.600   6.997  18.648  0.4499 -0.2639  0.1679
 4270TIP3    H137005   0.536   6.931  18.620  0.5749 -1.8331  3.1702
 4270TIP3    H237006   0.553   7.080  18.640 -1.9644 -1.3343  2.0269
 4271TIP3   OH237007   4.503   4.612  19.344  0.4419 -0.3295  0.4200
 4271TIP3    H137008   4.447   4.676  19.388  0.6924 -0.4284  0.8893
 4271TIP3    H237009   4.592   4.635  19.370  0.4054 -2.4225  2.7577
 4272TIP3   OH237010   3.681   6.886  17.767 -0.0555  0.4895 -0.0747
 4272TIP3    H137011   3.653   6.904  17.677 -0.3351 -0.9832 -0.3154
 4272TIP3    H237012   3.642   6.801  17.787  1.7946 -0.2473  0.6430
 4273TIP3   OH237013   1.943   5.364  18.898  0.0762 -0.5123  0.0199
 4273TIP3    H137014   1.997   5.297  18.856  0.9774 -0.2323  0.7224
 4273TIP3    H237015   1.900   5.317  18.971 -0.9004 -0.8124 -0.7249
 4274TIP3   OH237016   0.159   5.812  17.088 -0.3373 -0.0882  0.0074
 4274TIP3    H137017   0.198   5.790  17.003 -0.4578  1.0185 -0.3501
 4274TIP3    H237018   0.168   5.732  17.140  1.0862 -0.3250 -0.5534
 4275TIP3   OH237019   5.873   2.631  16.777 -0.4360 -0.3263  0.7419
 4275TIP3    H137020   5.881   2.592  16.864 -2.9364 -0.7860  0.8374
 4275TIP3    H237021   5.916   2.716  16.786 -0.0417 -0.6415  2.2228
 4276TIP3   OH237022   2.684   4.920  17.961  0.7916 -0.0374 -0.2908
 4276TIP3    H137023   2.621   4.880  18.021  1.0839 -0.1747 -0.0745
 4276TIP3    H237024   2.634   4.934  17.880  0.8459 -1.4813 -0.6076
 4277TIP3   OH237025   4.993   7.491  18.145 -0.3073  0.4355 -0.1952
 4277TIP3    H137026   4.953   7.570  18.108 -0.3954  1.0186  1.1224
 4277TIP3    H237027   4.971   7.493  18.238 -0.8627 -1.4878 -0.2343
 4278TIP3   OH237028   0.856   7.312  17.467  0.7647  0.2337 -0.4189
 4278TIP3    H137029   0.802   7.241  17.502  0.9088  0.9545  1.3837
 4278TIP3    H237030   0.935   7.268  17.436  0.8228 -0.4271  0.5988
 4279TIP3   OH237031   6.112   2.887  19.865 -0.6791  0.1739 -0.1649
 4279TIP3    H137032   6.022   2.856  19.876 -0.3692 -0.6845  0.0628
 4279TIP3    H237033   6.114   2.972  19.909 -1.3029  0.0583  0.0971
 4280TIP3   OH237034   3.033   6.453  18.332  0.3035 -0.3283 -0.3820
 4280TIP3    H137035   3.054   6.360  18.342 -0.0306 -0.2457  1.4674
 4280TIP3    H237036   3.087   6.482  18.259  1.9905 -1.4967  0.3462
 4281TIP3   OH237037   0.599   3.134  18.624  0.0719  0.1642  0.3977
 4281TIP3    H137038   0.548   3.087  18.558  2.0411 -1.2959 -0.1870
 4281TIP3    H237039   0.657   3.067  18.661  2.5189  1.9606  0.0554
 4282TIP3   OH237040   0.572   3.096  17.015  0.2211 -0.2893  0.6017
 4282TIP3    H137041   0.533   3.009  17.003 -1.2347  0.3897  0.1424
 4282TIP3    H237042   0.497   3.153  17.030  1.0568  1.0965 -0.3287
 4283TIP3   OH237043   5.815   6.612  18.616 -0.5589  0.4052 -0.4030
 4283TIP3    H137044   5.776   6.628  18.702  0.8442  0.8309  0.1790
 4283TIP3    H237045   5.909   6.620  18.630 -0.3110  0.8430 -2.0550
 4284TIP3   OH237046   5.311   2.091  17.336  0.3006  0.2812 -0.0483
 4284TIP3    H137047   5.222   2.088  17.301  0.2658 -1.6378  0.0802
 4284TIP3    H237048   5.367   2.100  17.259  0.0870 -1.2255 -0.4205
 4285TIP3   OH237049   1.156   2.947  19.502  0.9835  0.5396 -0.3499
 4285TIP3    H137050   1.084   2.884  19.506  1.6670 -0.3148 -1.1540
 4285TIP3    H237051   1.232   2.899  19.533  0.8531  2.1100  2.8795
 4286TIP3   OH237052   3.829   1.739  17.020 -0.3855 -0.9929 -0.1432
 4286TIP3    H137053   3.791   1.795  16.953  1.2162 -1.7248 -1.7386
 4286TIP3    H237054   3.899   1.792  17.059 -1.8650 -0.2364  1.6779
 4287TIP3   OH237055   1.081   5.659  18.211 -0.5943 -0.1722 -0.1622
 4287TIP3    H137056   1.007   5.605  18.239 -0.0398 -1.5389 -1.2524
 4287TIP3    H237057   1.054   5.693  18.126  0.3787 -1.4157 -0.9838
 4288TIP3   OH237058   2.238   4.863  18.178  0.1217 -0.3345 -0.0197
 4288TIP3    H137059   2.147   4.868  18.146 -0.0536 -0.1576  0.5037
 4288TIP3    H237060   2.238   4.914  18.259  0.3287 -1.6391  0.8230
 4289TIP3   OH237061   5.411   4.534  19.414  0.0358 -0.1293 -0.3233
 4289TIP3    H137062   5.354   4.603  19.380  1.4461  1.2671  0.0191
 4289TIP3    H237063   5.399   4.461  19.353 -2.8529 -0.3172  0.3051
 4290TIP3   OH237064   5.447   4.652  18.066  0.4207 -0.4271  0.2657
 4290TIP3    H137065   5.447   4.669  17.972  1.5637 -1.6661  0.0105
 4290TIP3    H237066   5.484   4.732  18.104 -0.6863  0.3600 -0.2435
 4291TIP3   OH237067   4.824   6.286  17.985 -0.3329  0.1195  0.1776
 4291TIP3    H137068   4.810   6.381  17.978 -0.3942  0.2464  1.6215
 4291TIP3    H237069   4.915   6.278  18.015  0.2893 -0.3864 -1.6973
 4292TIP3   OH237070   2.746   2.591  17.408  0.4669  0.5316  0.1470
 4292TIP3    H137071   2.697   2.509  17.401 -0.7559  1.2573 -0.1179
 4292TIP3    H237072   2.765   2.616  17.318 -0.3737  1.2148  0.1360
 4293TIP3   OH237073   4.106   1.009  17.824 -0.3703  0.5495  0.6509
 4293TIP3    H137074   4.053   0.997  17.745 -0.6001  0.3289  0.8333
 4293TIP3    H237075   4.165   0.934  17.824  0.4488  1.1839  0.0620
 4294TIP3   OH237076   5.413   4.960  17.574 -0.1196  0.0236  0.2170
 4294TIP3    H137077   5.418   5.051  17.545  3.3121  0.5024  1.7085
 4294TIP3    H237078   5.439   4.908  17.498 -0.0638  0.4747 -0.0716
 4295TIP3   OH237079   5.179   4.068  17.127  0.0171 -0.0939  0.0950
 4295TIP3    H137080   5.228   4.140  17.088  0.7054 -1.3440 -1.4705
 4295TIP3    H237081   5.171   4.004  17.056  1.6852 -2.7127  2.0918
 4296TIP3   OH237082   2.101   3.573  18.792 -0.4710  0.2057  0.0499
 4296TIP3    H137083   2.036   3.534  18.733  0.5175 -0.7957 -0.4242
 4296TIP3    H237084   2.120   3.659  18.754 -1.5207  0.5260  0.2149
 4297TIP3   OH237085   7.189   3.029  17.710 -0.5241  0.4039 -0.0676
 4297TIP3    H137086   7.116   3.069  17.757 -0.2289  0.3677  0.4350
 4297TIP3    H237087   7.197   2.941  17.748 -0.9571 -0.0272 -0.9319
 4298TIP3   OH237088   1.034   4.410  18.551  0.1923 -0.1885  0.3375
 4298TIP3    H137089   1.051   4.361  18.631 -0.5384  1.6171  1.6637
 4298TIP3    H237090   0.979   4.483  18.579 -1.2864 -0.2810 -2.0739
 4299TIP3   OH237091   2.272   6.025  17.921 -0.1786 -0.4517 -0.2911
 4299TIP3    H137092   2.307   6.112  17.940  1.0047 -0.5005 -2.0046
 4299TIP3    H237093   2.178   6.038  17.913  0.0921  0.9776 -1.8030
 4300TIP3   OH237094   3.677   2.321  17.283  0.0823 -0.5900  0.0530
 4300TIP3    H137095   3.631   2.249  17.327  0.9139 -0.4834  1.1494
 4300TIP3    H237096   3.762   2.283  17.259  0.0299 -0.3402 -0.5512
 4301TIP3   OH237097   3.306   0.534  17.996  0.3101 -0.7275 -0.2817
 4301TIP3    H137098   3.343   0.494  17.918 -0.6407  0.5238 -1.4080
 4301TIP3    H237099   3.289   0.625  17.971 -3.0656 -1.0907  0.2849
 4302TIP3   OH237100   6.266   1.759  17.785  0.0469  0.4022 -0.3101
 4302TIP3    H137101   6.289   1.701  17.858 -0.8146  0.2558 -0.1369
 4302TIP3    H237102   6.342   1.757  17.727  0.9099  0.8338  0.7731
 4303TIP3   OH237103   3.369   1.715  17.120 -0.0858  0.2071  0.0665
 4303TIP3    H137104   3.379   1.802  17.158  0.5059 -0.4482  1.4587
 4303TIP3    H237105   3.446   1.704  17.063  0.7486 -0.0376  1.2041
 4304TIP3   OH237106   6.926   1.055  18.157  0.0463 -0.0717  0.0998
 4304TIP3    H137107   6.944   1.136  18.109  0.9034 -0.9103 -1.0542
 4304TIP3    H237108   7.011   1.012  18.165  0.0393  0.2257  2.8397
 4305TIP3   OH237109   3.664   3.958  19.091  0.1822  0.5437 -0.4784
 4305TIP3    H137110   3.597   3.980  19.156  0.3806  1.4881 -0.5777
 4305TIP3    H237111   3.742   4.005  19.120  0.1192  1.4724 -1.7013
 4306TIP3   OH237112   5.205   4.157  19.002 -0.6715  1.2198 -0.7071
 4306TIP3    H137113   5.274   4.213  18.965 -1.0347  1.7391 -0.6135
 4306TIP3    H237114   5.194   4.188  19.092 -0.8547  0.9769 -0.6445
 4307TIP3   OH237115   6.787   0.142  17.407  0.4295  0.0716 -0.4311
 4307TIP3    H137116   6.862   0.177  17.359 -0.2375  0.8278 -0.9448
 4307TIP3    H237117   6.797   0.047  17.401  1.7476  0.1615  0.1664
 4308TIP3   OH237118   0.250   5.670  19.124  0.2744  0.5617  0.2610
 4308TIP3    H137119   0.345   5.665  19.133  0.4464  0.3116 -1.4141
 4308TIP3    H237120   0.234   5.756  19.085 -0.1253  0.2739 -0.2179
 4309TIP3   OH237121   4.261   2.010  17.765  0.8746 -0.8413  0.1682
 4309TIP3    H137122   4.261   1.927  17.719 -0.5311 -0.6410 -0.2392
 4309TIP3    H237123   4.193   2.001  17.832  2.1572 -0.7536  1.5494
 4310TIP3   OH237124   6.696   2.982  18.235 -0.9729  0.7999  0.4592
 4310TIP3    H137125   6.653   3.017  18.157  0.8287  1.6173 -0.2046
 4310TIP3    H237126   6.790   2.993  18.219 -0.5400  1.4276  2.9297
 4311TIP3   OH237127   1.216   6.086  18.709  0.1004 -0.0893  0.5773
 4311TIP3    H137128   1.258   6.016  18.659 -2.4737 -0.8770 -0.6994
 4311TIP3    H237129   1.192   6.151  18.642  1.7912  1.7332  1.6435
 4312TIP3   OH237130   5.189   6.163  17.716 -0.0781 -0.1048 -0.2399
 4312TIP3    H137131   5.169   6.237  17.659 -0.9109 -0.0740  0.0804
 4312TIP3    H237132   5.184   6.198  17.805 -0.3054 -0.5059 -0.0911
 4313TIP3   OH237133   0.961   4.268  19.550 -0.2788  0.8669 -0.1155
 4313TIP3    H137134   0.887   4.208  19.540 -1.8874  2.0894  3.0830
 4313TIP3    H237135   0.935   4.326  19.622  2.3304  3.6618 -1.2256
 4314TIP3   OH237136   2.683   6.150  17.814 -0.6112 -0.3880 -0.2010
 4314TIP3    H137137   2.752   6.150  17.880  0.4269 -1.4419 -1.2225
 4314TIP3    H237138   2.679   6.240  17.783 -0.4274 -0.0957  0.6091
 4315TIP3   OH237139   0.414   2.914  19.331 -0.0782  0.3984 -0.1372
 4315TIP3    H137140   0.348   2.905  19.262  0.5880 -0.9567 -0.6308
 4315TIP3    H237141   0.411   3.006  19.354 -0.5150  0.8382 -1.7931
 4316TIP3   OH237142   3.158   3.534  18.976  0.0606  0.3240  0.4325
 4316TIP3    H137143   3.132   3.478  18.903 -0.8266 -0.4414  1.3099
 4316TIP3    H237144   3.231   3.585  18.942 -0.2080 -0.1565 -0.9253
 4317TIP3   OH237145   3.138   5.487  18.917  0.6830 -0.4304 -0.1591
 4317TIP3    H137146   3.124   5.396  18.942  1.1329 -1.2168 -2.5143
 4317TIP3    H237147   3.055   5.531  18.935  0.8298 -0.9394  2.1628
 4318TIP3   OH237148   1.963   0.066  17.308 -0.7194 -0.3985  0.5259
 4318TIP3    H137149   1.946   0.072  17.214 -0.7222 -0.6024  0.5144
 4318TIP3    H237150   2.043   0.013  17.315  0.6564  1.5691  0.5056
 4319TIP3   OH237151   3.333   0.113  19.513  0.5039  0.0319  0.1234
 4319TIP3    H137152   3.345   0.208  19.514 -2.8380  0.5817  0.6737
 4319TIP3    H237153   3.381   0.084  19.436  0.8223  2.3070 -0.6271
 4320TIP3   OH237154   1.998   4.399  18.362 -0.4653  0.5796 -0.5614
 4320TIP3    H137155   1.919   4.386  18.414 -0.3950 -0.2521 -0.6573
 4320TIP3    H237156   2.055   4.450  18.420  0.9709 -3.1054  1.6642
 4321TIP3   OH237157   5.134   4.486  18.075 -0.1046 -0.4098  0.5256
 4321TIP3    H137158   5.138   4.555  18.009  2.8782 -0.2163  0.7984
 4321TIP3    H237159   5.174   4.410  18.033  0.6053 -0.6809  1.6578
 4322TIP3   OH237160   2.843   2.205  18.501  0.4432  0.8094  0.8418
 4322TIP3    H137161   2.825   2.117  18.468 -2.1351  0.6643  2.3270
 4322TIP3    H237162   2.801   2.264  18.438 -0.2039  0.8012  1.2567
 4323TIP3   OH237163   7.255   6.864  19.144 -0.3229  0.3597 -0.0758
 4323TIP3    H137164   7.345   6.844  19.171 -0.3955  0.3684  0.1763
 4323TIP3    H237165   7.259   6.867  19.049  0.7409  3.9185 -0.0517
 4324TIP3   OH237166   0.281   0.363  18.254 -0.0846  0.2392 -0.1670
 4324TIP3    H137167   0.192   0.371  18.219 -0.6086  1.0327  1.2488
 4324TIP3    H237168   0.285   0.429  18.323  1.5051 -0.0184  0.0190
 4325TIP3   OH237169   3.209   4.575  16.979  0.1526 -0.0962  0.1331
 4325TIP3    H137170   3.272   4.524  16.928 -1.6698 -1.1732 -1.1757
 4325TIP3    H237171   3.165   4.510  17.035 -0.2348  0.5181  0.5525
 4326TIP3   OH237172   5.481   1.167  17.332 -0.1593 -0.3348 -0.5106
 4326TIP3    H137173   5.389   1.184  17.311  0.2501  1.2178 -1.1527
 4326TIP3    H237174   5.513   1.112  17.261 -0.8546 -1.8599  0.3025
 4327TIP3   OH237175   4.560   6.389  18.657  0.2873 -0.2060  0.7608
 4327TIP3    H137176   4.535   6.387  18.564  1.2241 -1.2817  0.5051
 4327TIP3    H237177   4.500   6.452  18.697 -1.9826 -1.7351 -0.0328
 4328TIP3   OH237178   1.711   5.711  18.224 -0.3293 -0.0691  0.6264
 4328TIP3    H137179   1.695   5.664  18.142  1.0722 -0.9193  0.8066
 4328TIP3    H237180   1.642   5.778  18.227 -1.3277 -0.9978 -0.4796
 4329TIP3   OH237181   5.275   0.739  19.304  0.1138 -0.6819  0.6038
 4329TIP3    H137182   5.318   0.653  19.305 -0.0548 -0.8249 -1.0340
 4329TIP3    H237183   5.204   0.728  19.240  0.6319  0.9352 -0.2713
 4330TIP3   OH237184   3.631   1.311  18.613  0.3959 -0.2112  0.2909
 4330TIP3    H137185   3.640   1.331  18.519  0.8721 -3.3350 -0.4389
 4330TIP3    H237186   3.673   1.225  18.623 -0.4705 -0.3907  3.2170
 4331TIP3   OH237187   3.162   0.549  18.230  0.1759  0.6625  0.3624
 4331TIP3    H137188   3.208   0.538  18.147  2.4790  0.8081  1.5476
 4331TIP3    H237189   3.130   0.461  18.251 -0.5155  0.6421 -0.6934
 4332TIP3   OH237190   1.021   3.005  18.872  0.1731 -0.1938  0.4564
 4332TIP3    H137191   1.114   3.026  18.861  0.5131 -1.4290  0.8813
 4332TIP3    H237192   0.993   2.974  18.786  0.2490 -0.2000  0.4333
 4333TIP3   OH237193   4.163   3.196  18.730 -0.1474  0.1547 -0.1155
 4333TIP3    H137194   4.226   3.207  18.658 -1.4511  2.1908 -1.0488
 4333TIP3    H237195   4.218   3.180  18.807  1.7795  3.8668 -0.4784
 4334TIP3   OH237196   2.890   1.279  17.501  0.0574  0.1349  0.0278
 4334TIP3    H137197   2.935   1.242  17.425 -1.3149 -0.6578 -0.4302
 4334TIP3    H237198   2.837   1.207  17.535 -0.5157  0.9088  0.8079
 4335TIP3   OH237199   7.514   1.755  18.109  0.0007  0.0668  0.5368
 4335TIP3    H137200   7.448   1.702  18.064  0.4933 -0.2319  0.1552
 4335TIP3    H237201   7.589   1.757  18.048  0.4019  0.2644  1.0290
 4336TIP3   OH237202   6.847   4.636  17.596  0.3586  0.0222 -0.6211
 4336TIP3    H137203   6.794   4.706  17.634  1.7031  0.2081  1.0436
 4336TIP3    H237204   6.799   4.609  17.518  0.2287  3.4018 -1.8644
 4337TIP3   OH237205   4.394   6.818  17.804  0.3861 -0.3817 -1.0477
 4337TIP3    H137206   4.484   6.812  17.773  0.6790  0.9432 -0.5005
 4337TIP3    H237207   4.374   6.911  17.804  0.2437 -0.3080  2.1680
 4338TIP3   OH237208   2.141   5.542  16.908 -0.2326  0.2461 -0.2842
 4338TIP3    H137209   2.217   5.518  16.856 -0.2462  0.6417 -0.4907
 4338TIP3    H237210   2.073   5.563  16.843 -0.0329  1.4418 -0.1267
 4339TIP3   OH237211   7.540   3.081  17.446  0.3191 -0.2749 -0.4955
 4339TIP3    H137212   7.446   3.080  17.434  0.0505  1.5066  1.0088
 4339TIP3    H237213   7.571   3.151  17.388  0.5379 -0.0568 -0.1243
 4340TIP3   OH237214   3.224   1.941  19.014 -0.0389 -0.1825 -0.3110
 4340TIP3    H137215   3.301   1.996  19.028 -1.2596  1.2639  1.3222
 4340TIP3    H237216   3.152   2.004  19.004 -1.2517 -1.4819 -0.0846
 4341TIP3   OH237217   3.556   2.048  18.532 -0.3061 -0.0720  0.0216
 4341TIP3    H137218   3.530   2.119  18.474 -0.8342 -0.8560 -0.7202
 4341TIP3    H237219   3.648   2.031  18.510  0.6839  2.1073  2.0402
 4342TIP3   OH237220   5.015   2.996  18.306 -0.2687 -0.1995  0.2663
 4342TIP3    H137221   5.030   2.902  18.304  1.0528 -0.0150  0.0644
 4342TIP3    H237222   5.103   3.033  18.316 -0.7596  1.0078  0.2272
 4343TIP3   OH237223   1.148   2.554  18.262 -0.1808 -0.1005 -0.5957
 4343TIP3    H137224   1.236   2.528  18.233 -0.1345  1.0749 -1.5514
 4343TIP3    H237225   1.150   2.540  18.357  1.1113  0.1017 -0.5700
 4344TIP3   OH237226   6.272   5.336  19.107  0.2815  0.3554 -0.4039
 4344TIP3    H137227   6.254   5.249  19.071  0.0326  0.2534 -0.0383
 4344TIP3    H237228   6.274   5.323  19.202  1.3678  0.5365 -0.3852
 4345TIP3   OH237229   0.608   4.365  18.224  0.0379  0.5900  0.2179
 4345TIP3    H137230   0.562   4.340  18.304  1.2235  0.7627  0.9833
 4345TIP3    H237231   0.694   4.393  18.254  1.3167 -1.4026 -1.3104
 4346TIP3   OH237232   6.518   2.625  17.077  0.1847  0.2081  0.3992
 4346TIP3    H137233   6.525   2.541  17.121  1.7422 -0.5431 -1.1797
 4346TIP3    H237234   6.495   2.603  16.986  0.0975  1.5197  0.0848
 4347TIP3   OH237235   0.673   4.118  18.138  0.3052 -0.0423  0.4888
 4347TIP3    H137236   0.613   4.098  18.066  0.8210  1.2694 -0.3364
 4347TIP3    H237237   0.652   4.208  18.162 -1.0206 -0.9653  3.1731
 4348TIP3   OH237238   0.823   5.667  18.423  0.0018 -0.6752  0.8435
 4348TIP3    H137239   0.731   5.652  18.402 -0.2509  0.4821  1.0705
 4348TIP3    H237240   0.844   5.597  18.486 -1.2552  0.1351  2.2279
 4349TIP3   OH237241   6.261   5.171  18.557  0.1629  0.6223 -0.0781
 4349TIP3    H137242   6.293   5.090  18.598 -0.9074  1.0678  1.7470
 4349TIP3    H237243   6.321   5.186  18.484  1.1949 -1.0922  0.3555
 4350TIP3   OH237244   4.938   7.208  17.617 -0.0146  0.6469  0.0077
 4350TIP3    H137245   4.844   7.199  17.601 -0.1747  1.5264  0.4073
 4350TIP3    H237246   4.944   7.266  17.693  0.8574  0.7023 -0.0918
 4351TIP3   OH237247   2.729   0.613  19.483 -0.1763  0.3164 -0.3154
 4351TIP3    H137248   2.712   0.679  19.550 -0.8226  0.1773 -0.3319
 4351TIP3    H237249   2.806   0.566  19.515  0.0105  0.7788 -0.0745
 4352TIP3   OH237250   5.507   6.072  19.206 -0.1970  0.4613  0.6190
 4352TIP3    H137251   5.569   6.004  19.180  0.7432  0.6043  2.3302
 4352TIP3    H237252   5.422   6.030  19.205 -0.0722  0.1467 -1.3845
 4353TIP3   OH237253   0.160   7.250  17.454  0.2789  0.4906  0.1099
 4353TIP3    H137254   0.206   7.172  17.422  0.7553 -0.4060  2.7328
 4353TIP3    H237255   0.069   7.222  17.461  0.3468  0.3619  0.4838
 4354TIP3   OH237256   4.481   2.363  19.022 -0.1108 -0.4962 -0.3512
 4354TIP3    H137257   4.538   2.286  19.016  3.3861  1.8527 -0.0853
 4354TIP3    H237258   4.463   2.387  18.931  2.0561  0.4792 -0.5855
 4355TIP3   OH237259   2.597   6.777  19.263  0.9895 -0.3407  0.1437
 4355TIP3    H137260   2.587   6.857  19.315 -0.9624 -0.2883 -0.2405
 4355TIP3    H237261   2.586   6.805  19.172 -2.4732 -1.3115  0.1251
 4356TIP3   OH237262   4.488   0.356  18.792  0.6187  0.7162 -0.0383
 4356TIP3    H137263   4.403   0.345  18.748  0.8728  0.4475 -0.4740
 4356TIP3    H237264   4.552   0.359  18.720  1.1877 -1.1009  0.3338
 4357TIP3   OH237265   2.075   2.310  18.226  0.0923  0.2196 -1.1232
 4357TIP3    H137266   2.029   2.312  18.310 -0.0403  0.7636 -1.2005
 4357TIP3    H237267   2.031   2.242  18.176  0.8121 -0.8092 -0.4022
 4358TIP3   OH237268   3.446   4.851  18.351 -0.4054 -0.1015 -0.0623
 4358TIP3    H137269   3.416   4.856  18.442 -0.7703 -0.1459 -0.1799
 4358TIP3    H237270   3.513   4.783  18.352 -0.3141 -0.0096  0.1989
 4359TIP3   OH237271   5.403   0.240  17.324  0.0514  0.3034 -0.0130
 4359TIP3    H137272   5.432   0.306  17.261  2.8114  2.2408  2.9289
 4359TIP3    H237273   5.453   0.161  17.300 -1.2372  0.0105 -1.9444
 4360TIP3   OH237274   0.387   6.161  17.657 -0.2126 -0.0440  0.3568
 4360TIP3    H137275   0.406   6.250  17.626 -0.6207  0.1387  0.6126
 4360TIP3    H237276   0.341   6.120  17.584 -0.6455  0.1894  0.4940
 4361TIP3   OH237277   1.589   6.058  19.390  0.1321 -0.0424 -0.3280
 4361TIP3    H137278   1.502   6.029  19.417  0.1070 -0.8598 -1.2124
 4361TIP3    H237279   1.593   6.035  19.297  0.7397  1.3420 -0.6605
 4362TIP3   OH237280   1.455   6.598  17.850 -0.3120 -0.2196  0.0189
 4362TIP3    H137281   1.393   6.580  17.920  1.3961 -1.9682  1.1746
 4362TIP3    H237282   1.460   6.517  17.799  3.4152 -1.4621  1.9986
 4363TIP3   OH237283   7.370   4.629  18.512  0.1435  0.6769  0.2482
 4363TIP3    H137284   7.313   4.683  18.567  0.4712 -0.0038  1.2712
 4363TIP3    H237285   7.362   4.541  18.548 -1.1019 -0.1944 -1.9763
 4364TIP3   OH237286   6.090   3.119  19.211  0.4577 -0.4746 -0.1795
 4364TIP3    H137287   6.062   3.091  19.123 -0.3182 -0.7480  0.1481
 4364TIP3    H237288   6.009   3.145  19.254  0.6207 -1.7800  0.9816
 4365TIP3   OH237289   2.522   5.458  16.564  0.5776  0.1271  0.0032
 4365TIP3    H137290   2.515   5.542  16.520 -0.1837 -0.2034 -0.5200
 4365TIP3    H237291   2.617   5.441  16.567  0.6665 -0.3987 -2.6435
 4366TIP3   OH237292   6.032   1.883  18.917  0.1237 -0.3867  0.1745
 4366TIP3    H137293   6.114   1.887  18.967 -0.0989 -0.4492  0.5533
 4366TIP3    H237294   6.015   1.973  18.892  0.1579 -0.3316  0.3472
 4367TIP3   OH237295   6.253   3.254  18.745 -0.4111  0.6808 -0.4197
 4367TIP3    H137296   6.219   3.164  18.748  2.1533 -0.3697  0.9240
 4367TIP3    H237297   6.181   3.308  18.777 -1.4177 -1.1222  0.5341
 4368TIP3   OH237298   5.341   2.901  17.564 -0.1480  0.1757 -0.6306
 4368TIP3    H137299   5.412   2.960  17.540 -0.3145  1.5378  1.8982
 4368TIP3    H237300   5.269   2.959  17.590 -1.2994 -1.1679 -0.6799
 4369TIP3   OH237301   2.222   4.913  18.753  0.4380 -0.0429 -0.3540
 4369TIP3    H137302   2.297   4.938  18.699  0.4231  1.6681  0.3568
 4369TIP3    H237303   2.251   4.927  18.843 -0.3295 -0.5434 -0.0169
 4370TIP3   OH237304   2.177   2.778  18.479  0.0035  0.4329  0.2042
 4370TIP3    H137305   2.101   2.765  18.422  0.3010 -0.3976 -0.0181
 4370TIP3    H237306   2.143   2.775  18.568 -0.4967  1.9203  0.0881
 4371TIP3   OH237307   6.306   6.606  19.122 -0.2524  0.6055  0.1998
 4371TIP3    H137308   6.350   6.641  19.199 -0.0855 -0.3321  0.5369
 4371TIP3    H237309   6.377   6.579  19.064 -0.3073  3.2943 -1.2764
 4372TIP3   OH237310   4.827   6.544  17.695  0.2467 -0.2587 -0.2250
 4372TIP3    H137311   4.755   6.488  17.723  0.6420 -0.5417  0.2355
 4372TIP3    H237312   4.866   6.576  17.776  1.3119 -0.9660 -0.4344
 4373TIP3   OH237313   2.556   0.957  18.481  0.3948  0.1904 -0.5854
 4373TIP3    H137314   2.574   1.049  18.499 -0.1313  0.1737  0.1243
 4373TIP3    H237315   2.468   0.957  18.443  0.2631 -0.0401 -0.2859
 4374TIP3   OH237316   7.554   0.082  18.003 -0.7290  0.2514 -0.2858
 4374TIP3    H137317   7.510   0.129  17.933 -0.4438  0.0207 -0.6199
 4374TIP3    H237318   7.533   0.132  18.082 -1.8651 -0.0346 -0.3886
 4375TIP3   OH237319   4.949   7.328  16.651  0.5372  0.3523 -0.1704
 4375TIP3    H137320   4.926   7.325  16.559  0.2768  0.7462 -0.1186
 4375TIP3    H237321   4.934   7.239  16.683 -0.1353  0.4143 -0.3196
 4376TIP3   OH237322   4.829   5.902  18.802  0.1726  0.0381  0.4489
 4376TIP3    H137323   4.771   5.977  18.786  0.1048 -0.1897 -0.4170
 4376TIP3    H237324   4.917   5.937  18.787  0.3392  0.4969  2.1739
 4377TIP3   OH237325   3.459   5.704  18.004 -0.0574  0.3372 -0.1450
 4377TIP3    H137326   3.483   5.654  18.082 -1.2832 -0.2933 -0.1565
 4377TIP3    H237327   3.403   5.645  17.953 -1.9855  1.8701  0.0855
 4378TIP3   OH237328   7.006   1.302  17.411  0.1398 -0.4962  0.7195
 4378TIP3    H137329   6.952   1.286  17.489 -0.4462  0.2642  0.4837
 4378TIP3    H237330   7.009   1.218  17.366  0.1992 -0.8560  1.3874
 4379TIP3   OH237331   2.495   0.691  19.335  0.4214 -0.6082  0.5891
 4379TIP3    H137332   2.533   0.639  19.406  1.7796 -0.4134  0.0200
 4379TIP3    H237333   2.422   0.637  19.303  1.5520 -2.0049  0.2700
 4380TIP3   OH237334   6.301   5.917  17.773 -0.4936 -0.3244 -0.3342
 4380TIP3    H137335   6.323   6.006  17.801 -1.9485  0.3266 -1.1214
 4380TIP3    H237336   6.320   5.916  17.679  1.0389 -1.3888 -0.0591
 4381TIP3   OH237337   3.631   0.691  17.506 -0.4482 -0.0534 -0.1640
 4381TIP3    H137338   3.709   0.645  17.476  0.0810  1.3659 -1.0611
 4381TIP3    H237339   3.572   0.689  17.431 -1.2476 -0.9913  0.4586
 4382TIP3   OH237340   3.517   2.848  18.980  0.1691  0.0997  0.2591
 4382TIP3    H137341   3.498   2.756  18.958  1.9106 -0.2854  0.2473
 4382TIP3    H237342   3.448   2.872  19.042 -0.8444 -0.9138 -0.4197
 4383TIP3   OH237343   6.097   7.213  17.471 -0.5862 -0.0588 -0.3846
 4383TIP3    H137344   6.082   7.306  17.454  1.7743  0.4678 -0.0524
 4383TIP3    H237345   6.090   7.171  17.385 -0.1086  0.7140 -0.8182
 4384TIP3   OH237346   0.670   0.540  18.624  0.0849  0.1764  0.3566
 4384TIP3    H137347   0.634   0.478  18.560  1.5436  0.0638 -0.3928
 4384TIP3    H237348   0.737   0.491  18.671  1.5300  1.2312 -0.5027
 4385TIP3   OH237349   6.088   6.051  16.755 -0.4268  0.2786 -0.1424
 4385TIP3    H137350   6.023   6.055  16.685 -0.7190 -1.6363 -0.0304
 4385TIP3    H237351   6.167   6.016  16.713 -1.4392 -3.7488  0.9124
 4386TIP3   OH237352   2.280   2.958  17.586  0.7000 -0.1922 -0.6561
 4386TIP3    H137353   2.340   2.888  17.610 -0.4373 -0.7987  0.5349
 4386TIP3    H237354   2.306   2.983  17.497  1.2935 -1.9568 -1.0095
 4387TIP3   OH237355   7.052   0.272  18.619  0.2052 -0.8916 -0.3934
 4387TIP3    H137356   7.066   0.210  18.547  0.8757 -0.3903 -0.7125
 4387TIP3    H237357   7.129   0.330  18.616  1.2080 -1.9854  1.9035
 4388TIP3   OH237358   2.243   7.489  17.723 -0.5301 -0.3454 -0.1131
 4388TIP3    H137359   2.217   7.402  17.755  0.6858  0.1875  2.5948
 4388TIP3    H237360   2.316   7.471  17.664  0.8389 -1.1623  1.7193
 4389TIP3   OH237361   2.255   6.983  18.950 -0.1672  0.0560 -0.2644
 4389TIP3    H137362   2.273   6.946  19.037 -0.1132 -1.1595 -0.7832
 4389TIP3    H237363   2.334   7.032  18.928 -0.5725  1.2733  0.7945
 4390TIP3   OH237364   3.009   6.673  18.035  0.2038 -0.5882  0.2881
 4390TIP3    H137365   2.972   6.698  17.951  1.2527  0.2061  0.0500
 4390TIP3    H237366   3.075   6.607  18.014  0.6257 -0.2232  0.4670
 4391TIP3   OH237367   7.559   3.544  16.994 -0.2944 -0.1278  0.2998
 4391TIP3    H137368   7.473   3.518  17.029  0.0895 -1.4172  0.3550
 4391TIP3    H237369   7.541   3.567  16.903 -0.7353 -0.2442  0.3539
 4392TIP3   OH237370   1.900   6.763  18.725 -0.2726  0.9075  0.3352
 4392TIP3    H137371   1.889   6.820  18.801  1.4118 -0.5526  1.7524
 4392TIP3    H237372   1.820   6.711  18.722 -0.5597  1.3100  0.7899
 4393TIP3   OH237373   6.621   4.357  19.692 -0.0738 -0.5879 -0.0337
 4393TIP3    H137374   6.553   4.303  19.651  0.8966 -0.9839 -1.1656
 4393TIP3    H237375   6.623   4.327  19.783 -1.5851 -0.3743  0.0967
 4394TIP3   OH237376   1.763   4.890  18.665 -0.1021  0.3353  0.4507
 4394TIP3    H137377   1.832   4.936  18.711  0.5919  0.3687 -0.5892
 4394TIP3    H237378   1.754   4.936  18.581 -0.0103 -0.8464 -0.2463
 4395TIP3   OH237379   6.346   3.417  17.374  0.2646  0.0160 -0.3185
 4395TIP3    H137380   6.336   3.465  17.292 -0.4604 -0.8504 -0.7624
 4395TIP3    H237381   6.436   3.433  17.401  0.2422  1.0492 -0.8104
 4396TIP3   OH237382   7.564   5.835  18.203  0.8397 -0.0357  0.4284
 4396TIP3    H137383   7.596   5.885  18.127 -1.1443  0.7438  0.0315
 4396TIP3    H237384   7.532   5.753  18.166 -0.3333  0.4352  0.3486
 4397TIP3   OH237385   5.259   3.098  18.380  0.3659 -0.2630 -0.9282
 4397TIP3    H137386   5.354   3.107  18.374  0.2401  0.9856 -1.3083
 4397TIP3    H237387   5.236   3.137  18.465  0.4654 -3.2480  0.5771
 4398TIP3   OH237388   4.366   6.825  18.859  0.6097 -0.4765 -0.0232
 4398TIP3    H137389   4.292   6.798  18.805  1.2973 -2.1507 -0.1879
 4398TIP3    H237390   4.382   6.916  18.835  1.6869 -1.4718 -3.6584
 4399TIP3   OH237391   1.897   4.169  17.560  0.3526  0.0641 -0.0524
 4399TIP3    H137392   1.899   4.074  17.576  1.0025 -0.2976 -2.0462
 4399TIP3    H237393   1.842   4.179  17.483  1.3188  1.1924 -0.6126
 4400TIP3   OH237394   3.895   1.757  18.244  0.2563  0.1748  0.2493
 4400TIP3    H137395   3.896   1.751  18.149  0.8159 -2.1898  0.3526
 4400TIP3    H237396   3.803   1.746  18.268  0.2629 -0.4508  0.0148
 4401TIP3   OH237397   5.529   2.209  18.360  0.4213 -0.1378 -0.3978
 4401TIP3    H137398   5.504   2.166  18.441  0.0223 -0.1912 -0.5464
 4401TIP3    H237399   5.476   2.165  18.293  0.7218 -0.0702 -0.6793
 4402TIP3   OH237400   3.420   0.592  17.750  0.1138  0.2282 -0.3204
 4402TIP3    H137401   3.490   0.656  17.735  2.5672 -1.9526  0.8747
 4402TIP3    H237402   3.348   0.622  17.696  2.0446  2.5197 -1.8442
 4403TIP3   OH237403   2.619   2.179  17.803  0.1897  0.0115  0.3404
 4403TIP3    H137404   2.610   2.188  17.708  0.4961 -0.8280  0.2243
 4403TIP3    H237405   2.596   2.265  17.837 -1.8493 -0.2027 -0.3552
 4404TIP3   OH237406   0.458   3.109  18.372 -0.0967 -0.3018  0.3751
 4404TIP3    H137407   0.367   3.108  18.401 -0.2117  0.2955  0.0685
 4404TIP3    H237408   0.454   3.088  18.278 -0.2660  2.7200 -0.4006
 4405TIP3   OH237409   6.232   3.827  19.430 -0.1864 -0.0514  0.1662
 4405TIP3    H137410   6.322   3.842  19.401  0.3313 -0.6881  1.3779
 4405TIP3    H237411   6.232   3.739  19.465 -1.2395  0.0246  0.3957
 4406TIP3   OH237412   4.535   6.574  17.926  0.3890 -0.2887  0.0989
 4406TIP3    H137413   4.546   6.669  17.924 -2.6962  0.1837  0.5262
 4406TIP3    H237414   4.529   6.553  18.019 -2.3588 -0.2802  0.0230
 4407TIP3   OH237415   6.008   3.528  17.546  0.0630 -0.4488 -0.0562
 4407TIP3    H137416   5.974   3.611  17.513  0.4880 -0.2284  0.0548
 4407TIP3    H237417   5.962   3.515  17.629 -2.1317 -1.7483 -1.3886
 4408TIP3   OH237418   1.987   0.531  16.991  0.2573  0.2900  0.0085
 4408TIP3    H137419   1.895   0.507  17.006 -0.3046  2.3809  0.3186
 4408TIP3    H237420   1.996   0.534  16.896 -0.0143  0.0923 -0.0238
 4409TIP3   OH237421   3.171   6.879  17.643 -0.6152 -0.0683  0.3679
 4409TIP3    H137422   3.114   6.927  17.703 -2.8199 -1.0452 -0.7782
 4409TIP3    H237423   3.179   6.936  17.567  1.0474  0.5964  1.0083
 4410TIP3   OH237424   3.400   4.110  18.293  0.0094  0.2489  0.1863
 4410TIP3    H137425   3.440   4.103  18.206 -1.3257 -0.2002 -0.4186
 4410TIP3    H237426   3.316   4.065  18.284 -0.9636  1.7744  1.2167
 4411TIP3   OH237427   3.718   6.442  18.276  0.3022 -0.4836 -0.4268
 4411TIP3    H137428   3.662   6.520  18.273  1.5065  0.3808 -1.7388
 4411TIP3    H237429   3.733   6.420  18.184  0.9608 -1.5394 -0.0834
 4412TIP3   OH237430   4.829   1.121  19.275  0.3163 -0.4177 -0.3616
 4412TIP3    H137431   4.906   1.153  19.227 -0.0585  1.2604  0.0758
 4412TIP3    H237432   4.755   1.168  19.234  0.1002  2.1729  2.6040
 4413TIP3   OH237433   2.380   7.500  18.116  0.1730  0.1827 -0.0875
 4413TIP3    H137434   2.350   7.539  18.198 -0.9300 -1.3266  0.2606
 4413TIP3    H237435   2.317   7.529  18.051 -0.3341 -0.5465  0.0689
 4414TIP3   OH237436   1.907   1.758  18.603 -0.1334 -0.4914 -0.5524
 4414TIP3    H137437   1.887   1.693  18.670  0.1856 -0.0787 -0.0413
 4414TIP3    H237438   2.002   1.752  18.592  0.0584  0.6138  0.2880
 4415TIP3   OH237439   3.581   6.657  17.921  0.3971 -0.3408 -0.0019
 4415TIP3    H137440   3.625   6.573  17.937  0.1703 -0.3104  0.8696
 4415TIP3    H237441   3.496   6.648  17.965  0.4171  0.3778  0.2003
 4416TIP3   OH237442   1.835   3.835  17.301 -0.1929  0.0310  0.2453
 4416TIP3    H137443   1.888   3.811  17.377 -1.5171 -3.3569  0.2875
 4416TIP3    H237444   1.821   3.752  17.255 -1.6678  1.5354 -2.2468
 4417TIP3   OH237445   4.348   0.725  18.859 -0.4906 -0.2743  0.3962
 4417TIP3    H137446   4.425   0.678  18.891 -0.7087 -1.1488 -0.3219
 4417TIP3    H237447   4.281   0.657  18.852 -1.0059  0.2748 -0.0582
 4418TIP3   OH237448   2.372   3.265  18.145  0.2290 -0.1178 -0.3683
 4418TIP3    H137449   2.306   3.317  18.100  0.7943  0.0879 -0.9779
 4418TIP3    H237450   2.424   3.328  18.193  0.8833 -0.1051 -1.0668
 4419TIP3   OH237451   0.516   0.418  17.688  0.4368 -0.3079  0.0183
 4419TIP3    H137452   0.548   0.372  17.765  1.6864 -0.3063 -0.4796
 4419TIP3    H237453   0.475   0.498  17.722  2.2025  0.3862  0.6153
 4420TIP3   OH237454   5.604   3.176  17.784 -0.5829  0.1584  0.0717
 4420TIP3    H137455   5.577   3.087  17.764 -0.2837  0.0743  0.0465
 4420TIP3    H237456   5.690   3.186  17.743  0.1008 -0.0554  1.3881
 4421TIP3   OH237457   7.441   1.964  19.090  0.3852 -0.3132  0.0169
 4421TIP3    H137458   7.473   1.977  19.179 -1.2341  1.6736  0.3933
 4421TIP3    H237459   7.383   1.888  19.096 -1.4537  1.0743  1.2489
 4422TIP3   OH237460   3.993   1.002  16.882 -0.2514 -0.4062  0.1244
 4422TIP3    H137461   3.904   0.966  16.878 -0.2988 -0.4510  1.3251
 4422TIP3    H237462   3.980   1.096  16.896 -0.1051 -0.1809 -1.1119
 4423TIP3   OH237463   7.033   1.677  19.314 -0.0575 -1.0076 -0.1493
 4423TIP3    H137464   6.945   1.685  19.350  0.1913  0.5085  0.1654
 4423TIP3    H237465   7.024   1.612  19.244 -1.2674 -1.3766  0.3148
 4424TIP3   OH237466   6.076   1.296  19.410  0.1304 -0.7652 -0.1941
 4424TIP3    H137467   6.004   1.340  19.365  0.3464  1.0251  1.0979
 4424TIP3    H237468   6.034   1.224  19.457 -0.6821 -0.2276 -0.0779
 4425TIP3   OH237469   7.591   6.127  16.875  0.2052 -0.4812  0.2753
 4425TIP3    H137470   7.623   6.098  16.789 -1.1728 -0.7901 -0.1548
 4425TIP3    H237471   7.533   6.056  16.903  0.4285 -0.2484  1.3373
 4426TIP3   OH237472   2.227   3.825  18.745 -0.5112 -0.3322  0.7203
 4426TIP3    H137473   2.233   3.881  18.822  2.6835 -0.5048  0.7167
 4426TIP3    H237474   2.317   3.800  18.726 -1.1229 -0.1106 -3.2501
 4427TIP3   OH237475   2.609   4.927  17.452 -0.8495  0.1596 -0.4425
 4427TIP3    H137476   2.704   4.921  17.462 -0.7565 -2.0525 -1.9710
 4427TIP3    H237477   2.574   4.891  17.534 -0.3539 -0.0974 -0.3436
 4428TIP3   OH237478   0.184   7.343  17.705  0.0737  0.2093 -0.1020
 4428TIP3    H137479   0.196   7.307  17.617  3.3116 -0.2332  0.4047
 4428TIP3    H237480   0.155   7.268  17.758 -2.9312  0.7017 -0.8813
 4429TIP3   OH237481   2.083   7.448  18.980 -0.5430  0.0394  0.7736
 4429TIP3    H137482   2.050   7.507  18.912 -3.4661 -1.1113  1.0644
 4429TIP3    H237483   2.176   7.440  18.960 -0.5343  2.6679 -0.8190
 4430TIP3   OH237484   6.969   4.261  18.143  0.5480 -0.0829 -0.0103
 4430TIP3    H137485   7.027   4.216  18.082  0.5522 -2.2447  1.4912
 4430TIP3    H237486   6.927   4.191  18.193 -3.6278  1.3440 -1.1588
 4431TIP3   OH237487   3.918   4.082  17.401 -0.0375 -0.0338 -0.5797
 4431TIP3    H137488   3.938   4.039  17.485  0.9173 -1.2287 -1.3834
 4431TIP3    H237489   3.981   4.154  17.396 -1.5187  1.4375  0.6859
 4432TIP3   OH237490   5.094   2.810  17.824 -0.0902  0.6073  0.0845
 4432TIP3    H137491   5.059   2.728  17.791 -1.1056  1.8578 -2.1414
 4432TIP3    H237492   5.110   2.794  17.918 -2.1289 -1.4634  0.1428
 4433TIP3   OH237493   3.554   5.907  16.684  0.7482  0.1076 -0.2593
 4433TIP3    H137494   3.476   5.856  16.705  0.5440  0.4521 -0.1714
 4433TIP3    H237495   3.552   5.917  16.589  0.8364 -0.1217 -0.2874
 4434TIP3   OH237496   4.571   2.481  19.262  0.0181 -0.9228 -0.1512
 4434TIP3    H137497   4.550   2.447  19.175  0.1173  0.0598 -0.5786
 4434TIP3    H237498   4.571   2.577  19.251 -2.2693 -0.6530  1.4562
 4435TIP3   OH237499   3.784   5.594  16.852 -1.0126  0.3341  0.4072
 4435TIP3    H137500   3.707   5.552  16.814  0.3571  0.7735 -3.2242
 4435TIP3    H237501   3.851   5.526  16.855 -0.9836  0.3811  1.9734
 4436TIP3   OH237502   6.894   2.743  18.126 -0.0343  0.1248  0.2816
 4436TIP3    H137503   6.825   2.740  18.192  0.0589  0.6048  0.4051
 4436TIP3    H237504   6.855   2.703  18.049 -0.1303 -0.4875  0.6379
 4437TIP3   OH237505   2.604   4.663  17.617 -0.2077 -0.8745  0.3631
 4437TIP3    H137506   2.690   4.672  17.576  0.2714 -2.8079  0.8204
 4437TIP3    H237507   2.593   4.743  17.668  0.4897  0.2243 -1.1436
 4438TIP3   OH237508   1.688   1.917  18.731  0.3397  0.0867 -0.0446
 4438TIP3    H137509   1.767   1.908  18.677  0.2874  1.5377 -0.4070
 4438TIP3    H237510   1.630   1.848  18.700  1.3031 -0.7535 -0.0428
 4439TIP3   OH237511   2.724   4.638  18.974  0.2956  0.0393 -0.3677
 4439TIP3    H137512   2.728   4.638  19.070  2.5149  1.9918 -0.3700
 4439TIP3    H237513   2.809   4.604  18.947 -0.3764 -0.6616 -1.6816
 4440TIP3   OH237514   0.912   3.150  17.880 -0.0935  0.1945 -0.0576
 4440TIP3    H137515   0.936   3.090  17.809  1.6063  0.6740  0.0670
 4440TIP3    H237516   0.939   3.106  17.960 -2.9088 -0.7897  0.4701
 4441TIP3   OH237517   5.712   1.077  17.670  0.1924 -0.0262 -0.1707
 4441TIP3    H137518   5.711   1.084  17.766  0.8391 -1.2055 -0.0521
 4441TIP3    H237519   5.784   1.016  17.652 -0.8047 -0.9017 -1.3254
 4442TIP3   OH237520   1.641   5.423  19.128 -0.0865  0.3604 -0.2347
 4442TIP3    H137521   1.597   5.463  19.204 -1.9633 -2.2319  0.2038
 4442TIP3    H237522   1.724   5.390  19.163 -0.8912 -0.7275  0.7619
 4443TIP3   OH237523   3.815   3.407  16.551 -0.2981  0.1118 -0.3644
 4443TIP3    H137524   3.750   3.436  16.615 -0.8070 -1.4636 -0.1246
 4443TIP3    H237525   3.771   3.415  16.467 -0.5952 -0.3699 -0.2589
 4444TIP3   OH237526   0.785   0.164  17.112  0.1986  0.6870 -0.4904
 4444TIP3    H137527   0.747   0.252  17.117 -2.6457 -0.1315 -3.5121
 4444TIP3    H237528   0.717   0.112  17.069  1.4332 -3.2582  1.8247
 4445TIP3   OH237529   0.676   3.218  18.980  0.0707 -0.1407 -0.2323
 4445TIP3    H137530   0.597   3.179  18.942  0.4999 -1.3039  0.0131
 4445TIP3    H237531   0.746   3.195  18.919  0.3228  0.3196 -0.1176
 4446TIP3   OH237532   5.773   4.267  18.738  0.0932  0.4407  0.0506
 4446TIP3    H137533   5.794   4.208  18.666  2.7900 -0.6752  1.6164
 4446TIP3    H237534   5.773   4.212  18.816  1.6644  2.2661  1.4415
 4447TIP3   OH237535   4.178   3.907  19.080  0.7371  0.3258  0.1984
 4447TIP3    H137536   4.092   3.939  19.053  1.1914 -0.0541 -1.8376
 4447TIP3    H237537   4.221   3.984  19.118  0.0868  0.9376 -0.2654
 4448TIP3   OH237538   1.399   7.636  18.016  0.0945 -0.5517 -0.2140
 4448TIP3    H137539   1.392   7.576  18.091 -1.4133 -1.4638 -1.0200
 4448TIP3    H237540   1.431   7.580  17.945 -0.3113 -0.1560 -0.7115
 4449TIP3   OH237541   2.197   5.481  18.348 -0.3761 -0.3337 -0.7689
 4449TIP3    H137542   2.285   5.472  18.313 -0.1039 -1.3926  0.1066
 4449TIP3    H237543   2.206   5.459  18.441 -1.5288 -0.3144 -0.6309
 4450TIP3   OH237544   7.516   2.689  18.618 -0.2428  0.8100  0.2851
 4450TIP3    H137545   7.524   2.760  18.681 -2.0717  0.9306  0.4376
 4450TIP3    H237546   7.422   2.668  18.617  0.0926 -0.8368 -0.5875
 4451TIP3   OH237547   0.905   4.651  17.184 -0.0633 -0.6222 -0.4092
 4451TIP3    H137548   0.839   4.596  17.227  0.8732 -0.5368  1.1928
 4451TIP3    H237549   0.857   4.730  17.161 -1.0614 -1.4695 -1.3650
 4452TIP3   OH237550   0.985   2.503  19.046 -0.0337 -0.2981 -0.4741
 4452TIP3    H137551   0.963   2.536  18.959 -0.2922 -1.7522 -0.9898
 4452TIP3    H237552   1.063   2.553  19.071  1.6409 -1.6149 -2.6844
 4453TIP3   OH237553   5.435   7.264  17.380  0.7883  0.2843  0.3980
 4453TIP3    H137554   5.395   7.181  17.404  0.6801  0.1107 -0.3657
 4453TIP3    H237555   5.389   7.329  17.434 -0.7636  0.1343 -0.6683
 4454TIP3   OH237556   2.559   4.923  18.290 -0.1988  0.1653  0.5882
 4454TIP3    H137557   2.534   4.850  18.233 -0.9498 -1.7299  3.1679
 4454TIP3    H237558   2.535   5.001  18.240 -1.3603 -1.3631 -1.4267
 4455TIP3   OH237559   5.833   1.866  18.706 -0.1620  0.8090  0.7277
 4455TIP3    H137560   5.884   1.851  18.626 -0.8645  1.0131  0.2265
 4455TIP3    H237561   5.892   1.840  18.777  0.5959  0.9302  0.1647
 4456TIP3   OH237562   2.679   0.424  19.044 -0.2710  0.2208  0.2067
 4456TIP3    H137563   2.757   0.439  18.990  0.2099 -0.5685  0.6526
 4456TIP3    H237564   2.613   0.392  18.983  0.5072 -1.4259  0.1769
 4457TIP3   OH237565   5.052   5.656  18.808 -0.2198 -0.4182  0.1977
 4457TIP3    H137566   5.084   5.644  18.898 -0.4441 -2.4470  0.0601
 4457TIP3    H237567   5.081   5.744  18.784  2.9422 -1.0831  1.0273
 4458TIP3   OH237568   0.113   3.097  18.007 -0.3889 -0.5000 -0.2504
 4458TIP3    H137569   0.149   3.144  17.931 -0.3278 -0.2136 -0.0449
 4458TIP3    H237570   0.127   3.004  17.986  0.4508 -0.3950 -0.1922
 4459TIP3   OH237571   3.450   7.521  19.395 -0.9287  0.1743 -0.0161
 4459TIP3    H137572   3.503   7.600  19.384 -1.0353  0.0924 -1.3361
 4459TIP3    H237573   3.407   7.532  19.480  3.0716 -0.9256  2.4334
 4460TIP3   OH237574   3.890   5.386  18.468 -0.4797 -0.3711  0.2764
 4460TIP3    H137575   3.850   5.471  18.487 -1.0406 -0.3782 -0.7774
 4460TIP3    H237576   3.845   5.356  18.389  1.8029 -0.2456 -1.1438
 4461TIP3   OH237577   1.055   0.645  19.115  0.5344  0.5416 -0.0122
 4461TIP3    H137578   1.099   0.659  19.031  1.2698  0.9936  0.4422
 4461TIP3    H237579   1.003   0.724  19.128 -0.1339  0.1683 -0.3704
 4462TIP3   OH237580   4.948   4.720  17.352  0.5151 -0.5453 -0.0036
 4462TIP3    H137581   4.867   4.685  17.388  1.4977 -0.8443  2.0181
 4462TIP3    H237582   4.919   4.780  17.283 -1.5320  0.8316  1.9107
 4463TIP3   OH237583   6.363   1.627  16.976  0.0501 -0.9282 -0.5192
 4463TIP3    H137584   6.304   1.593  16.909 -0.9086  2.6566 -1.7067
 4463TIP3    H237585   6.450   1.623  16.935 -0.5240  1.2170 -2.0982
 4464TIP3   OH237586   5.578   4.617  17.697 -0.3065  0.0444 -0.3617
 4464TIP3    H137587   5.619   4.678  17.758  3.4141  0.5406 -3.0145
 4464TIP3    H237588   5.500   4.662  17.666  1.2093  2.6742 -0.6767
 4465TIP3   OH237589   3.445   5.749  18.578 -0.1970  0.2918  0.1024
 4465TIP3    H137590   3.470   5.782  18.492  0.3489 -0.8826 -0.2108
 4465TIP3    H237591   3.355   5.778  18.590 -1.0270 -1.2465 -1.7903
 4466TIP3   OH237592   5.542   6.716  17.031 -0.6641 -0.4389  0.2253
 4466TIP3    H137593   5.608   6.664  16.986 -1.7878 -1.8347  0.1282
 4466TIP3    H237594   5.533   6.795  16.978 -0.0089 -0.8230 -0.4757
 4467TIP3   OH237595   2.699   4.055  17.695  0.2063 -0.6595 -0.3780
 4467TIP3    H137596   2.754   3.982  17.665  0.3945 -0.8157  0.3304
 4467TIP3    H237597   2.665   4.094  17.615  1.3568 -0.5525 -0.8349
 4468TIP3   OH237598   2.102   7.405  17.344 -0.3393 -0.3575  0.4068
 4468TIP3    H137599   2.188   7.363  17.341 -0.0546  0.0940 -3.5996
 4468TIP3    H237600   2.121   7.498  17.356 -0.1403 -0.1732 -1.1243
 4469TIP3   OH237601   6.975   0.607  18.647  0.4766  0.2261 -0.0399
 4469TIP3    H137602   6.898   0.563  18.685  0.0327  1.0026 -0.0057
 4469TIP3    H237603   7.048   0.549  18.668  0.1377  0.2599  1.3799
 4470TIP3   OH237604   1.793   3.837  18.300  0.0032 -0.4877  0.0068
 4470TIP3    H137605   1.816   3.749  18.328  0.6445 -0.4183 -0.2831
 4470TIP3    H237606   1.842   3.850  18.219 -0.3408  0.0166 -0.1272
 4471TIP3   OH237607   5.385   4.824  17.866  0.8672 -0.3767  0.0560
 4471TIP3    H137608   5.366   4.894  17.929 -1.3634 -0.5087 -0.3792
 4471TIP3    H237609   5.425   4.869  17.792  0.1780  0.3522  0.1092
 4472TIP3   OH237610   1.914   6.345  17.723 -0.2012 -0.1590  0.3652
 4472TIP3    H137611   1.987   6.367  17.664 -0.2405  0.6545  0.6182
 4472TIP3    H237612   1.939   6.261  17.761  1.0206  0.5053  1.0931
 4473TIP3   OH237613   7.050   4.443  19.334  0.1722 -0.0655 -0.3627
 4473TIP3    H137614   7.104   4.511  19.375  0.1512  0.3467 -0.9979
 4473TIP3    H237615   6.980   4.426  19.397  0.3919  0.2312 -0.0358
 4474TIP3   OH237616   4.261   6.369  18.014 -0.0450  0.3014 -0.2898
 4474TIP3    H137617   4.277   6.324  17.931  0.7408 -1.7877  0.9303
 4474TIP3    H237618   4.254   6.462  17.990  2.3275  0.0187 -2.4146
 4475TIP3   OH237619   3.692   1.288  18.341  0.6512 -0.2234 -0.0395
 4475TIP3    H137620   3.710   1.355  18.276  2.9613 -0.3854  0.3305
 4475TIP3    H237621   3.727   1.207  18.303 -0.6891 -0.9298  0.1696
 4476TIP3   OH237622   4.902   1.545  19.271 -0.1520 -0.2967 -0.2535
 4476TIP3    H137623   4.872   1.585  19.353  1.1269 -0.7357  0.4512
 4476TIP3    H237624   4.922   1.619  19.214  0.1489  0.0360  0.2782
 4477TIP3   OH237625   4.618   6.890  17.041 -0.1515 -0.2119 -0.0254
 4477TIP3    H137626   4.608   6.968  16.987  3.0337  1.1122  1.0723
 4477TIP3    H237627   4.567   6.909  17.120  2.4883  2.0131  1.3144
 4478TIP3   OH237628   6.839   1.264  19.137  0.5772 -0.0547 -0.1334
 4478TIP3    H137629   6.747   1.239  19.138  0.4103  0.5314  1.0789
 4478TIP3    H237630   6.884   1.196  19.187  0.6802  0.0659 -0.0577
 4479TIP3   OH237631   6.220   5.222  16.549  1.1279 -0.3600 -0.1373
 4479TIP3    H137632   6.303   5.265  16.530  0.1504  1.8376  0.3548
 4479TIP3    H237633   6.158   5.293  16.566 -0.5074 -1.9585  1.0372
 4480TIP3   OH237634   2.809   5.921  17.317 -0.7979 -0.0924  0.2699
 4480TIP3    H137635   2.742   5.954  17.377 -0.2378  1.0729  0.2594
 4480TIP3    H237636   2.775   5.941  17.230 -1.3820 -1.3538  0.1729
 4481TIP3   OH237637   0.122   0.319  17.960 -0.6380 -0.1889 -0.2226
 4481TIP3    H137638   0.086   0.363  17.883 -2.4208  1.0393  1.2125
 4481TIP3    H237639   0.046   0.277  18.001  0.0383  0.1198  1.4479
 4482TIP3   OH237640   0.293   0.022  18.392  0.2037 -0.1247 -0.1811
 4482TIP3    H137641   0.280   0.052  18.302 -1.8379  1.9105  0.6825
 4482TIP3    H237642   0.230  -0.049  18.403 -0.8221  0.7968  0.0989
 4483TIP3   OH237643   3.970   7.331  18.399  0.1165 -0.0780  0.3083
 4483TIP3    H137644   3.942   7.392  18.331 -1.6794  2.1206  2.7765
 4483TIP3    H237645   4.061   7.355  18.417  0.0739  0.4458 -0.1616
 4484TIP3   OH237646   0.400   4.113  18.053  0.2154 -0.1534 -0.7982
 4484TIP3    H137647   0.357   4.189  18.094  2.0078  0.7032 -0.4110
 4484TIP3    H237648   0.338   4.041  18.066 -1.6556  1.2627 -1.3953
 4485TIP3   OH237649   7.228   2.195  16.845  0.1932 -0.5073 -0.4987
 4485TIP3    H137650   7.317   2.169  16.870  0.8242 -0.5282 -2.5329
 4485TIP3    H237651   7.238   2.285  16.814 -0.3974 -0.6457 -1.1266
 4486TIP3   OH237652   6.301   2.795  18.074  0.0504 -0.0098  0.3296
 4486TIP3    H137653   6.229   2.857  18.064  0.0354  0.0765  0.9270
 4486TIP3    H237654   6.292   2.761  18.163  0.9496  0.2595  0.5412
 4487TIP3   OH237655   5.060   5.563  16.950 -0.0508 -0.4604 -0.8166
 4487TIP3    H137656   5.052   5.589  17.041  0.4807  1.2231 -1.2158
 4487TIP3    H237657   4.970   5.550  16.920 -0.2784  0.0317 -0.3469
 4488TIP3   OH237658   5.672   1.592  17.627 -0.3527  0.6099  0.0422
 4488TIP3    H137659   5.607   1.569  17.694 -0.0793 -0.4932 -0.0496
 4488TIP3    H237660   5.639   1.673  17.589 -2.1486 -0.3748 -0.6098
 4489TIP3   OH237661   2.447   4.765  17.001  0.0807 -0.1411 -0.3699
 4489TIP3    H137662   2.440   4.698  17.068  2.5078 -0.8004 -0.6914
 4489TIP3    H237663   2.416   4.721  16.921 -1.7872  0.3179  0.0434
 4490TIP3   OH237664   0.241   1.217  16.910 -0.2319  0.2203  0.2686
 4490TIP3    H137665   0.183   1.192  16.838  1.4033  0.1665 -1.0724
 4490TIP3    H237666   0.191   1.196  16.989 -1.3375 -1.4681 -0.8214
 4491TIP3   OH237667   6.235   4.211  19.544  0.6694 -0.4612 -0.2798
 4491TIP3    H137668   6.183   4.238  19.468  1.4584  0.2602 -0.5860
 4491TIP3    H237669   6.326   4.217  19.513  0.9789 -0.5111  0.6107
 4492TIP3   OH237670   3.974   4.019  18.966  0.0126  0.5195  0.5421
 4492TIP3    H137671   3.903   4.071  19.004  0.2865  1.7518 -0.5463
 4492TIP3    H237672   3.951   4.011  18.873 -0.5593 -2.2843  0.8282
 4493TIP3   OH237673   5.856   1.501  18.490 -0.7513  0.0643  0.4397
 4493TIP3    H137674   5.796   1.568  18.457 -0.0041  0.7064  0.3695
 4493TIP3    H237675   5.836   1.495  18.584 -2.4273 -1.3057  0.0476
 4494TIP3   OH237676   2.741   0.829  18.634 -0.4413  0.5008  0.1471
 4494TIP3    H137677   2.737   0.876  18.718  0.1978 -0.4092  0.7004
 4494TIP3    H237678   2.691   0.884  18.574 -1.0309  1.1025  1.1534
 4495TIP3   OH237679   1.649   5.526  18.031 -0.3194  0.1071  0.4883
 4495TIP3    H137680   1.584   5.460  18.009  0.1503  0.5129 -2.6089
 4495TIP3    H237681   1.733   5.483  18.015  0.0391  0.8323  0.3649
 4496TIP3   OH237682   0.152   7.321  18.276  0.7310 -0.1151  0.6709
 4496TIP3    H137683   0.205   7.278  18.343 -1.6503 -0.1438  2.6650
 4496TIP3    H237684   0.093   7.378  18.324 -0.5207  0.5373 -1.4732
 4497TIP3   OH237685   4.600   3.048  19.341 -0.4534  0.1677  0.0582
 4497TIP3    H137686   4.682   3.029  19.387  0.3231  0.9085 -0.9751
 4497TIP3    H237687   4.605   3.141  19.321 -0.9998 -0.0352 -1.0656
 4498TIP3   OH237688   2.298   1.473  17.519 -0.9054 -0.1417  0.0120
 4498TIP3    H137689   2.322   1.453  17.610  1.9831 -0.2717 -0.6792
 4498TIP3    H237690   2.342   1.555  17.500 -1.0587 -0.3612 -1.4221
 4499TIP3   OH237691   5.998   5.247  19.319  0.4776  0.7260  0.7205
 4499TIP3    H137692   5.975   5.205  19.402  0.8172  0.6100  0.7607
 4499TIP3    H237693   6.094   5.252  19.321  0.6822 -1.2861 -0.5995
 4500TIP3   OH237694   5.062   2.506  17.322 -0.1600  0.5082 -0.1360
 4500TIP3    H137695   5.157   2.494  17.329 -0.1414  0.6456 -0.1564
 4500TIP3    H237696   5.029   2.491  17.411 -0.0739  0.8711 -0.0415
 4501TIP3   OH237697   5.202   6.769  18.616 -0.2173 -0.0316 -0.5098
 4501TIP3    H137698   5.275   6.784  18.556 -0.2848  0.0649 -0.5684
 4501TIP3    H237699   5.237   6.708  18.681 -0.1331 -0.1096 -0.6266
 4502TIP3   OH237700   2.985   3.773  16.890 -0.0347 -0.0158 -0.1959
 4502TIP3    H137701   3.076   3.763  16.863 -0.0838 -0.5628 -0.1784
 4502TIP3    H237702   2.972   3.867  16.897  1.0224  0.0623  1.4224
 4503TIP3   OH237703   5.442   7.166  19.542 -0.0651 -0.0681 -0.2009
 4503TIP3    H137704   5.412   7.077  19.524 -0.7200  0.3084 -1.0336
 4503TIP3    H237705   5.366   7.212  19.576  0.3245  0.1199  0.4331
 4504TIP3   OH237706   5.551   0.472  17.003  0.1213 -0.6516  0.0924
 4504TIP3    H137707   5.497   0.450  16.926  1.0571 -0.4468 -0.6370
 4504TIP3    H237708   5.555   0.391  17.053 -1.8206 -0.3810  0.7777
 4505TIP3   OH237709   6.387   1.350  19.247 -0.6385  0.2225  0.1246
 4505TIP3    H137710   6.355   1.325  19.161  0.6410 -1.6059  0.1455
 4505TIP3    H237711   6.307   1.361  19.299 -1.5100  2.6615 -1.5434
 4506TIP3   OH237712   5.278   0.536  18.472 -0.1918 -0.1391 -0.2414
 4506TIP3    H137713   5.337   0.593  18.520  0.7595  0.4485 -2.0332
 4506TIP3    H237714   5.306   0.447  18.495 -0.0280  0.1094  0.5592
 4507TIP3   OH237715   0.954   0.564  17.281  0.4604  0.4119  0.3147
 4507TIP3    H137716   0.909   0.530  17.358  1.4464  0.7819  1.0714
 4507TIP3    H237717   1.024   0.619  17.316  1.9641 -0.7001 -0.7980
 4508TIP3   OH237718   1.148   1.228  18.278 -0.2602  0.5496 -0.1093
 4508TIP3    H137719   1.106   1.235  18.192  1.6706 -0.4642 -1.2153
 4508TIP3    H237720   1.232   1.271  18.267  1.2383 -2.0247  0.3409
 4509TIP3   OH237721   2.461   5.495  17.390  0.0233  0.1232  0.4104
 4509TIP3    H137722   2.432   5.458  17.474 -1.2405  0.5975  0.1999
 4509TIP3    H237723   2.409   5.448  17.324  0.6780  0.0777 -0.0908
 4510TIP3   OH237724   1.916   4.450  18.853 -1.0139 -0.1323 -0.4930
 4510TIP3    H137725   1.830   4.492  18.859 -1.5226 -1.3487  1.3310
 4510TIP3    H237726   1.902   4.377  18.793 -1.5041 -0.8332  0.4453
 4511TIP3   OH237727   2.408   4.489  19.040  0.2640  0.6235  0.4894
 4511TIP3    H137728   2.318   4.519  19.051 -0.7358 -1.8484 -0.1290
 4511TIP3    H237729   2.431   4.515  18.951 -0.1392  0.5742  0.3688
 4512TIP3   OH237730   4.182   4.707  19.191  0.1612  0.1282  0.2462
 4512TIP3    H137731   4.277   4.719  19.195  0.3618 -1.2104 -0.0587
 4512TIP3    H237732   4.147   4.783  19.238  1.4400 -0.5081  2.3802
 4513TIP3   OH237733   4.308   3.353  18.977 -0.2780 -0.0500 -0.0732
 4513TIP3    H137734   4.328   3.365  19.069 -1.1845 -1.6932  0.3903
 4513TIP3    H237735   4.348   3.268  18.955  0.1054  0.4177 -1.2494
 4514TIP3   OH237736   2.843   6.296  17.456  0.2334 -0.4470  0.3396
 4514TIP3    H137737   2.755   6.270  17.483  0.9030 -2.3595  0.8268
 4514TIP3    H237738   2.839   6.297  17.360 -0.4076 -0.1360  0.3594
 4515TIP3   OH237739   1.087   4.138  17.947 -0.1308  0.1747 -0.3064
 4515TIP3    H137740   1.065   4.120  17.855 -0.1822  1.5372 -0.5808
 4515TIP3    H237741   1.033   4.077  17.997 -3.5269  2.3673 -0.9910
 4516TIP3   OH237742   2.758   7.020  19.371  0.1338  0.2025  0.2322
 4516TIP3    H137743   2.819   6.946  19.366 -0.0944  0.0139  0.2139
 4516TIP3    H237744   2.727   7.018  19.462  0.7107  0.7489  0.4518
 4517TIP3   OH237745   6.847   7.116  18.081 -0.0204 -0.3801  0.6572
 4517TIP3    H137746   6.764   7.163  18.069  0.2797 -0.0959 -0.4550
 4517TIP3    H237747   6.914   7.184  18.075  0.4317 -0.9272 -1.0701
 4518TIP3   OH237748   0.351   1.807  17.369  0.1141 -0.1339  0.2256
 4518TIP3    H137749   0.274   1.784  17.420  0.7702 -0.1313  1.2468
 4518TIP3    H237750   0.379   1.724  17.330 -1.4103  0.1587 -1.6373
 4519TIP3   OH237751   4.514   7.450  18.194 -0.0143  0.0752 -0.1250
 4519TIP3    H137752   4.495   7.392  18.120 -1.0655  1.6868 -1.1674
 4519TIP3    H237753   4.432   7.498  18.208  1.3011  2.5280 -0.4027
 4520TIP3   OH237754   4.705   4.265  17.922 -0.5566 -0.5526  0.0375
 4520TIP3    H137755   4.628   4.209  17.909  0.2383 -1.6446 -0.0305
 4520TIP3    H237756   4.694   4.301  18.010 -2.3641  1.2481 -0.8300
 4521TIP3   OH237757   2.847   5.000  18.457  0.0358  0.4335 -0.0429
 4521TIP3    H137758   2.932   4.999  18.413  2.0232 -0.6647  3.4315
 4521TIP3    H237759   2.784   5.007  18.386  2.7375 -3.3933 -3.3234
 4522TIP3   OH237760   1.546   2.068  18.353  0.2844  0.0074 -0.2224
 4522TIP3    H137761   1.506   2.054  18.439 -0.0265  0.4907 -0.2853
 4522TIP3    H237762   1.479   2.114  18.302  0.2332 -0.8359 -0.9289
 4523TIP3   OH237763   3.886   0.411  19.422  0.3994 -0.3307 -0.4262
 4523TIP3    H137764   3.884   0.451  19.508 -0.0815 -1.3269  0.0480
 4523TIP3    H237765   3.807   0.443  19.378 -0.2466 -1.0980  0.1310
 4524TIP3   OH237766   6.990   3.202  19.373 -0.3030  0.2280  0.1839
 4524TIP3    H137767   6.956   3.235  19.457  2.0378  1.1543  0.8383
 4524TIP3    H237768   6.919   3.149  19.338 -1.3411 -0.2514  2.7866
 4525TIP3   OH237769   4.737   2.201  19.265 -0.1014 -0.8542 -0.3352
 4525TIP3    H137770   4.747   2.296  19.280  1.2239 -0.7542 -1.5679
 4525TIP3    H237771   4.745   2.162  19.352 -1.2210  0.1950  0.2658
 4526TIP3   OH237772   1.860   3.681  19.423 -0.0246 -0.5624  0.2938
 4526TIP3    H137773   1.798   3.635  19.481  0.9082 -2.7305 -0.3164
 4526TIP3    H237774   1.892   3.613  19.364  0.7066  1.1368 -1.3627
 4527TIP3   OH237775   0.382   1.757  17.683 -0.3134 -0.1425 -0.0668
 4527TIP3    H137776   0.454   1.703  17.651  0.2139  0.7500 -0.4393
 4527TIP3    H237777   0.331   1.777  17.604 -0.0520  0.5406 -0.0733
 4528TIP3   OH237778   6.756   1.966  19.500  0.3186  0.1288 -0.5464
 4528TIP3    H137779   6.783   1.905  19.569  0.5003  3.0789  2.2039
 4528TIP3    H237780   6.836   1.980  19.448  0.4944 -1.1833 -0.6809
 4529TIP3   OH237781   4.954   4.951  17.925 -0.3501  0.5071  0.4978
 4529TIP3    H137782   4.919   5.029  17.881  0.7590  0.6035 -0.2632
 4529TIP3    H237783   4.888   4.929  17.991 -2.9194 -0.5988 -2.2317
 4530TIP3   OH237784   2.516   7.034  17.308  0.1300  0.0122 -0.0618
 4530TIP3    H137785   2.484   7.053  17.396  0.6925 -0.8843  0.3442
 4530TIP3    H237786   2.560   6.950  17.315 -0.5341 -0.4870 -1.3798
 4531TIP3   OH237787   4.087   0.944  17.166  0.4136  0.6440 -0.3959
 4531TIP3    H137788   4.041   0.863  17.185 -0.0189  1.2414  1.3227
 4531TIP3    H237789   4.071   0.960  17.073  1.0685 -1.5529 -0.9403
 4532TIP3   OH237790   0.044   6.972  18.097  0.2747  0.3383 -0.4011
 4532TIP3    H137791   0.013   6.925  18.020 -0.5501 -0.2967  0.2968
 4532TIP3    H237792   0.134   6.940  18.110 -0.1670 -0.8404 -0.1192
 4533TIP3   OH237793   1.049   2.025  17.586  0.2049 -0.3359  0.1567
 4533TIP3    H137794   0.996   2.001  17.662 -1.4647  0.0526 -0.8295
 4533TIP3    H237795   0.988   2.067  17.526  1.5683 -0.2094 -1.2262
 4534TIP3   OH237796   2.618   5.590  18.510 -0.2373 -0.4221 -0.5412
 4534TIP3    H137797   2.706   5.588  18.548 -0.2687 -3.7349 -0.3797
 4534TIP3    H237798   2.573   5.660  18.558  1.7404  0.1078  0.6626
 4535TIP3   OH237799   1.961   6.942  17.730 -0.3200  0.5313  0.3635
 4535TIP3    H137800   1.958   6.882  17.805 -1.0930  0.7904  0.5532
 4535TIP3    H237801   1.888   7.002  17.746 -0.7042  0.3764 -0.7669
 4536TIP3   OH237802   2.457   7.161  18.843 -0.3083 -0.3797  0.4440
 4536TIP3    H137803   2.431   7.178  18.752 -2.7033 -0.5065  1.0293
 4536TIP3    H237804   2.538   7.211  18.855 -0.8080  0.9527 -1.2915
 4537TIP3   OH237805   4.013   6.123  17.294  0.1825 -0.5171 -0.0132
 4537TIP3    H137806   4.021   6.119  17.199 -0.5947 -1.5405 -0.0557
 4537TIP3    H237807   4.102   6.111  17.327  0.7965  1.8648 -0.6104
 4538TIP3   OH237808   0.004   5.303  18.623 -0.4443 -0.3910 -0.1306
 4538TIP3    H137809  -0.044   5.330  18.702  0.3953  0.8708 -0.0295
 4538TIP3    H237810   0.070   5.241  18.656 -0.6048 -0.4740  0.0406
 4539TIP3   OH237811   1.690   4.141  18.739  0.3210 -1.1077 -1.1433
 4539TIP3    H137812   1.772   4.185  18.718  0.1499  0.3249  0.9403
 4539TIP3    H237813   1.624   4.188  18.688  0.3527  0.0950 -0.1196
 4540TIP3   OH237814   0.394   2.263  16.277  0.6201  0.6380  0.0463
 4540TIP3    H137815   0.314   2.306  16.307  0.6712  0.9375 -0.2462
 4540TIP3    H237816   0.371   2.224  16.193 -0.0426 -1.7255  1.2137
 4541TIP3   OH237817   2.925   1.713  17.438 -0.1261 -0.7898 -0.5381
 4541TIP3    H137818   2.858   1.767  17.481 -0.9971 -0.6519 -2.0172
 4541TIP3    H237819   2.992   1.776  17.413 -0.7706 -0.4806 -1.5480
 4542TIP3   OH237820   2.623   6.409  18.042  0.1672 -0.5030 -0.5811
 4542TIP3    H137821   2.600   6.500  18.059 -1.9101 -0.7868 -1.5631
 4542TIP3    H237822   2.545   6.360  18.064  1.6462 -2.2497  1.1411
 4543TIP3   OH237823   5.835   0.450  17.032  0.5542 -0.2550 -0.3820
 4543TIP3    H137824   5.739   0.450  17.034  0.5324  1.0309 -0.5876
 4543TIP3    H237825   5.860   0.392  17.104 -0.3733 -0.6982 -0.3987
 4544TIP3   OH237826   7.381   1.709  18.895  0.1553  0.0145  0.1770
 4544TIP3    H137827   7.328   1.778  18.854  0.8214  0.7256  0.4947
 4544TIP3    H237828   7.450   1.692  18.831  0.2219 -0.0753  0.2749
 4545TIP3   OH237829   5.906   6.436  19.360 -0.3171  0.2807 -0.2822
 4545TIP3    H137830   5.981   6.378  19.373 -0.3032  0.3379 -0.1117
 4545TIP3    H237831   5.830   6.381  19.377 -0.3196  0.2003 -0.5363
 4546TIP3   OH237832   3.164   0.690  17.653 -0.5866  0.6229 -0.0344
 4546TIP3    H137833   3.084   0.687  17.602  0.0816  0.9245 -1.1430
 4546TIP3    H237834   3.135   0.692  17.745 -1.9038  2.6369 -0.4213
 4547TIP3   OH237835   4.843   7.116  18.580  0.0443  0.7431 -0.0665
 4547TIP3    H137836   4.931   7.147  18.603  0.7498 -1.1573  0.0260
 4547TIP3    H237837   4.823   7.160  18.498 -0.1346  3.3357  1.2745
 4548TIP3   OH237838   5.298   3.171  18.659 -0.3393 -0.3935  0.0341
 4548TIP3    H137839   5.344   3.254  18.642  2.2375 -2.0717 -1.8551
 4548TIP3    H237840   5.341   3.135  18.736 -0.1103 -0.8548 -0.3039
 4549TIP3   OH237841   2.051   1.588  19.496 -0.3132 -0.2099  0.3203
 4549TIP3    H137842   2.101   1.546  19.566 -0.2373  1.0687  1.0744
 4549TIP3    H237843   2.114   1.643  19.451 -0.1162 -1.8120 -1.4813
 4550TIP3   OH237844   7.025   1.599  18.255 -0.0516  0.2592 -1.3410
 4550TIP3    H137845   6.983   1.658  18.318  1.1412  1.1824 -1.3859
 4550TIP3    H237846   7.049   1.522  18.307  0.5001  0.8169 -0.7639
 4551TIP3   OH237847   6.418   4.915  17.731 -0.2317 -0.2739 -0.3750
 4551TIP3    H137848   6.364   4.969  17.673 -0.0605  1.6665  1.1833
 4551TIP3    H237849   6.364   4.837  17.748 -2.9583  1.8466  1.6139
 4552TIP3   OH237850   1.482   3.323  18.679 -0.1104 -0.1613 -0.1628
 4552TIP3    H137851   1.437   3.328  18.594  1.1601  1.3444 -0.7752
 4552TIP3    H237852   1.556   3.265  18.663  0.8667  1.1380 -0.4551
 4553TIP3   OH237853   3.316   6.637  17.732  0.2750  0.5142  0.3495
 4553TIP3    H137854   3.394   6.628  17.677 -0.0402  0.0323 -0.0266
 4553TIP3    H237855   3.289   6.728  17.718  0.0698  0.3367 -0.4780
 4554TIP3   OH237856   1.164   6.621  18.273  0.2797  0.4148  0.4110
 4554TIP3    H137857   1.179   6.636  18.367  0.2990 -1.8526  0.8304
 4554TIP3    H237858   1.251   6.607  18.237  0.2541  1.0960  0.0715
 4555TIP3   OH237859   5.676   3.203  19.550 -0.1691  0.4624 -0.5998
 4555TIP3    H137860   5.643   3.289  19.576  0.3462  0.4253  0.2102
 4555TIP3    H237861   5.606   3.165  19.497 -0.5631  1.2187 -0.6286
 4556TIP3   OH237862   6.595   1.680  18.475 -0.1877  0.0383 -0.0759
 4556TIP3    H137863   6.625   1.648  18.560 -0.4042 -0.9516 -0.3646
 4556TIP3    H237864   6.672   1.720  18.435 -0.3525  1.6010  1.0631
 4557TIP3   OH237865   5.079   0.423  18.964 -0.3120  0.3194 -0.4950
 4557TIP3    H137866   5.065   0.382  18.879 -2.6140 -0.2118  0.0679
 4557TIP3    H237867   5.160   0.384  18.996 -0.3242 -0.7699 -1.7017
 4558TIP3   OH237868   5.258   5.037  18.006  0.2068 -0.0383 -0.2526
 4558TIP3    H137869   5.266   5.120  17.960 -1.2059  0.1981 -0.1086
 4558TIP3    H237870   5.169   5.008  17.988 -0.3533 -0.0195  2.1515
 4559TIP3   OH237871   5.256   2.755  16.935 -0.1064 -0.0412 -0.0685
 4559TIP3    H137872   5.260   2.774  16.842 -0.7215 -2.6263 -0.7070
 4559TIP3    H237873   5.284   2.664  16.942  0.6402  0.3016  2.3919
 4560TIP3   OH237874   2.924   7.397  19.399  0.2988  0.2733 -0.2424
 4560TIP3    H137875   3.005   7.345  19.395 -0.3264 -0.7231 -0.2644
 4560TIP3    H237876   2.930   7.444  19.482  0.4572 -0.5511  0.2252
 4561TIP3   OH237877   5.721   1.376  19.776  0.1505 -0.1037  0.4474
 4561TIP3    H137878   5.737   1.467  19.798  0.1758 -0.3663  1.5661
 4561TIP3    H237879   5.707   1.333  19.860 -1.5215 -0.8260 -0.1585
 4562TIP3   OH237880   2.422   4.198  18.117  0.0081  0.3941  0.5411
 4562TIP3    H137881   2.433   4.289  18.145  0.8948  0.4191  0.1488
 4562TIP3    H237882   2.337   4.172  18.152 -0.4256  1.4920  0.3427
 4563TIP3   OH237883   2.234   0.270  17.305  0.5378 -0.2965  0.0687
 4563TIP3    H137884   2.296   0.294  17.374  0.1283 -0.7512  0.6024
 4563TIP3    H237885   2.148   0.293  17.341  0.4136  0.7672 -0.8489
 4564TIP3   OH237886   5.782   0.918  18.288  0.3576 -0.2878  0.2319
 4564TIP3    H137887   5.719   0.977  18.247 -0.1432 -0.9509  0.0440
 4564TIP3    H237888   5.774   0.836  18.240  2.7487  0.1573 -1.1331
 4565TIP3   OH237889   6.783   2.657  18.560 -0.5819 -0.2559  0.3212
 4565TIP3    H137890   6.761   2.696  18.476  0.2538  0.4832  0.4379
 4565TIP3    H237891   6.871   2.620  18.548  0.1542  1.1102  1.2653
 4566TIP3   OH237892   6.641   3.166  18.005 -0.2854 -0.4025  0.1633
 4566TIP3    H137893   6.685   3.244  17.972 -1.5427  0.9146  1.4716
 4566TIP3    H237894   6.665   3.097  17.944  0.0393  1.2189 -1.6135
 4567TIP3   OH237895   2.991   7.327  17.565  0.2454  0.2576 -0.2347
 4567TIP3    H137896   2.900   7.325  17.534  0.1825 -1.1773 -0.0070
 4567TIP3    H237897   2.984   7.312  17.659  0.6900  0.7610 -0.1183
 4568TIP3   OH237898   7.192   6.057  18.037  0.0657  0.1228 -0.0711
 4568TIP3    H137899   7.195   6.151  18.018  1.0761  0.1311  0.0447
 4568TIP3    H237900   7.101   6.032  18.024 -0.6905  1.5569  1.9915
 4569TIP3   OH237901   1.686   0.926  17.334  0.3003  0.3868  0.4214
 4569TIP3    H137902   1.624   0.974  17.280  0.1173 -0.1690  0.1337
 4569TIP3    H237903   1.716   0.854  17.279  2.0827  1.2702  0.1236
 4570TIP3   OH237904   4.971   0.580  17.835 -0.6268  0.1727 -0.0133
 4570TIP3    H137905   5.026   0.513  17.796  0.9950  2.3144 -1.6099
 4570TIP3    H237906   4.940   0.632  17.761 -0.7997  1.9342  1.2389
 4571TIP3   OH237907   2.644   4.000  18.720  0.3621  0.3035 -0.1538
 4571TIP3    H137908   2.710   3.987  18.653 -0.0842  2.2953 -1.0505
 4571TIP3    H237909   2.646   4.094  18.739 -1.5231  0.2714  0.4909
 4572TIP3   OH237910   0.871   3.963  17.136  0.3110 -0.5398 -0.1016
 4572TIP3    H137911   0.817   4.008  17.071 -0.3538  0.4625  1.1216
 4572TIP3    H237912   0.954   3.947  17.090 -0.2175 -0.0738 -1.2688
 4573TIP3   OH237913   3.279   4.305  18.806  0.0623 -0.1522  0.1281
 4573TIP3    H137914   3.276   4.395  18.839 -2.8099 -0.1767  0.2057
 4573TIP3    H237915   3.299   4.252  18.884  0.8161  0.3282  0.2708
 4574TIP3   OH237916   1.543   5.811  17.921 -0.0226 -0.0328 -0.5380
 4574TIP3    H137917   1.484   5.808  17.995  0.1051 -1.0773 -0.4645
 4574TIP3    H237918   1.588   5.727  17.922 -0.5772 -0.4004 -2.2458
 4575TIP3   OH237919   0.862   6.975  18.295 -0.0375 -0.2514 -0.2156
 4575TIP3    H137920   0.844   7.069  18.297 -1.5723 -0.4586 -1.7380
 4575TIP3    H237921   0.884   6.952  18.385 -0.5684  1.3989  0.3643
 4576TIP3   OH237922   3.175   2.636  19.374 -0.0912 -0.0740 -0.2952
 4576TIP3    H137923   3.114   2.665  19.442 -0.2913  0.5729 -0.7370
 4576TIP3    H237924   3.172   2.706  19.308  0.6852 -0.3213 -0.6017
 4577TIP3   OH237925   3.333   4.784  18.609 -0.2980 -0.7565  0.4178
 4577TIP3    H137926   3.424   4.754  18.617 -0.5746 -1.3011  1.8547
 4577TIP3    H237927   3.281   4.704  18.613 -0.9341 -0.3128  1.9308
 4578TIP3   OH237928   6.291   6.994  18.263 -0.5126  0.1168  0.7312
 4578TIP3    H137929   6.259   6.918  18.312 -1.1144  0.8980  1.5825
 4578TIP3    H237930   6.299   6.963  18.173  0.3154 -1.2640  1.2416
 4579TIP3   OH237931   0.065   3.309  16.565  0.7263 -0.1666  0.0438
 4579TIP3    H137932   0.058   3.378  16.499  1.9214  0.8220  0.9242
 4579TIP3    H237933   0.138   3.336  16.621 -0.2005 -1.0263  1.7328
 4580TIP3   OH237934   5.501   4.100  18.225  0.1154 -0.3317 -0.3991
 4580TIP3    H137935   5.493   4.074  18.317 -0.1552 -0.1001 -0.3575
 4580TIP3    H237936   5.562   4.174  18.226  2.2969 -2.0023 -0.7022
 4581TIP3   OH237937   6.763   2.655  17.908  0.1143  0.2036  0.0756
 4581TIP3    H137938   6.687   2.665  17.965  0.0599  0.7129 -0.0794
 4581TIP3    H237939   6.749   2.572  17.862  0.5803 -0.6516  1.4323
 4582TIP3   OH237940   5.711   2.840  19.341 -0.3024 -0.2259  0.1555
 4582TIP3    H137941   5.783   2.812  19.397  0.5756 -1.8236 -1.6631
 4582TIP3    H237942   5.641   2.777  19.357 -0.4711 -0.0150  0.2593
 4583TIP3   OH237943   3.670   3.023  19.432  0.0632  0.2124 -0.1668
 4583TIP3    H137944   3.762   3.036  19.455 -0.3353  1.8699  0.6157
 4583TIP3    H237945   3.642   3.106  19.393 -0.9384 -0.4870 -1.0013
 4584TIP3   OH237946   0.451   1.250  17.474 -0.0234  0.0631  0.1562
 4584TIP3    H137947   0.530   1.276  17.520 -0.0097 -1.1761  0.8929
 4584TIP3    H237948   0.448   1.155  17.484 -0.9032 -0.0528 -1.0036
 4585TIP3   OH237949   3.033   7.459  18.480 -0.2899 -1.1068  0.2585
 4585TIP3    H137950   2.996   7.384  18.527 -0.7652 -0.2469  1.3039
 4585TIP3    H237951   3.105   7.423  18.429  1.6981 -1.8167  3.2962
 4586TIP3   OH237952   5.861   7.460  18.189 -0.5448  0.2216 -0.0374
 4586TIP3    H137953   5.883   7.392  18.126 -0.5709  0.5832 -0.4443
 4586TIP3    H237954   5.866   7.542  18.139 -2.0481  0.3968  0.0317
 4587TIP3   OH237955   3.727   7.630  18.528  0.3445  0.1580  0.2574
 4587TIP3    H137956   3.733   7.697  18.460  0.1394 -0.8382 -0.7766
 4587TIP3    H237957   3.733   7.547  18.481 -0.4208 -0.5770  1.3882
 4588TIP3   OH237958   7.382   5.829  19.524  0.4849  0.1512 -0.3579
 4588TIP3    H137959   7.289   5.821  19.503  0.9695 -1.4889 -2.2046
 4588TIP3    H237960   7.386   5.824  19.619 -1.3586  1.0844 -0.1941
 4589TIP3   OH237961   0.166   4.119  17.535  0.2490 -0.0200 -0.2521
 4589TIP3    H137962   0.125   4.115  17.448 -1.8326 -0.1204  0.6754
 4589TIP3    H237963   0.154   4.209  17.563  0.5893 -0.0822  0.1028
 4590TIP3   OH237964   3.133   3.547  19.395  0.1607  0.0340 -0.3241
 4590TIP3    H137965   3.118   3.470  19.450 -1.1022  0.3467 -0.1960
 4590TIP3    H237966   3.088   3.528  19.313  1.9002 -0.3604 -1.2313
 4591TIP3   OH237967   6.155   6.921  16.437  0.0563  0.1703 -0.1014
 4591TIP3    H137968   6.230   6.927  16.378  1.3328 -0.2214  1.3981
 4591TIP3    H237969   6.132   7.012  16.456  0.3898  0.2930 -0.2798
 4592TIP3   OH237970   2.960   4.033  16.966  0.1168 -0.4821  0.2460
 4592TIP3    H137971   2.922   4.118  16.944 -3.1968 -1.3414  2.0328
 4592TIP3    H237972   2.962   4.031  17.062  1.1535 -2.0242  0.2285
 4593TIP3   OH237973   4.818   1.100  17.999  0.3890  0.1963 -0.3176
 4593TIP3    H137974   4.819   1.043  17.922 -0.5071  0.2134 -0.3515
 4593TIP3    H237975   4.780   1.046  18.069 -0.4984  0.7382 -0.3606
 4594TIP3   OH237976   5.133   1.302  19.725  0.1227  0.2005  0.2232
 4594TIP3    H137977   5.184   1.282  19.646  1.2955 -0.1253  1.0282
 4594TIP3    H237978   5.101   1.217  19.755 -0.3419  0.3273  0.0934
 4595TIP3   OH237979   6.221   4.914  18.220 -0.4217 -0.1257  0.0803
 4595TIP3    H137980   6.304   4.915  18.266 -1.7765  0.4578  2.7057
 4595TIP3    H237981   6.209   5.004  18.190 -1.2770  0.5113  2.1372
 4596TIP3   OH237982   3.439   7.646  18.516  0.1878 -0.5752 -0.2508
 4596TIP3    H137983   3.496   7.571  18.498 -1.0359 -2.2323  2.2276
 4596TIP3    H237984   3.498   7.716  18.543  1.1971 -1.4957 -0.0108
 4597TIP3   OH237985   6.229   2.389  17.598  1.1497  0.0807  0.2514
 4597TIP3    H137986   6.246   2.310  17.649 -0.9630 -0.8810 -0.4219
 4597TIP3    H237987   6.191   2.451  17.660 -0.4566 -0.7165  0.0888
 4598TIP3   OH237988   2.432   4.068  18.411  0.1228  0.2752  0.3227
 4598TIP3    H137989   2.420   4.125  18.487  0.0234  0.5581  0.0976
 4598TIP3    H237990   2.358   4.008  18.414 -1.4114  2.0016 -1.0547
 4599TIP3   OH237991   0.667   4.666  17.853  0.1378 -0.0793  0.1014
 4599TIP3    H137992   0.600   4.624  17.907 -0.3293  1.7504  1.0207
 4599TIP3    H237993   0.652   4.631  17.765 -1.0287 -0.8431  0.5772
 4600TIP3   OH237994   0.109   7.514  18.471 -0.2493 -0.0072 -0.1658
 4600TIP3    H137995   0.121   7.442  18.533 -0.2312 -0.9692 -1.2437
 4600TIP3    H237996   0.018   7.539  18.481 -0.7526 -1.3768 -0.9708
 4601TIP3   OH237997   7.545   1.996  17.259 -0.8703  0.3599 -0.3332
 4601TIP3    H137998   7.583   2.058  17.197  0.7120 -1.3791 -1.2396
 4601TIP3    H237999   7.496   1.935  17.204 -0.7628 -0.2999  0.2806
 4602TIP3   OH238000   2.731   3.433  19.069  0.1391 -0.2999 -0.2396
 4602TIP3    H138001   2.700   3.415  18.980  1.5530 -0.5368 -0.7021
 4602TIP3    H238002   2.651   3.431  19.123 -0.7569  0.0451 -1.5219
 4603TIP3   OH238003   7.657   0.859  19.643 -0.0042  0.2181 -0.3844
 4603TIP3    H138004   7.664   0.766  19.621 -0.8431  0.3775 -1.3777
 4603TIP3    H238005   7.563   0.874  19.655 -0.0143  1.2245 -1.5832
 4604TIP3   OH238006   0.592   7.108  17.372  0.1361  0.2651  0.2973
 4604TIP3    H138007   0.585   7.099  17.277 -0.2070 -0.1497  0.3548
 4604TIP3    H238008   0.541   7.186  17.392 -0.6042 -0.1909  0.2334
 4605TIP3   OH238009   1.560   3.386  17.048  0.6169 -0.3676  0.2813
 4605TIP3    H138010   1.568   3.293  17.069  0.4128 -0.5920 -0.6015
 4605TIP3    H238011   1.511   3.423  17.122  0.0962 -1.0876  0.3111
 4606TIP3   OH238012   5.662   6.191  18.320  0.4630 -0.5341  0.0686
 4606TIP3    H138013   5.721   6.153  18.385  1.4577 -1.1753 -1.1742
 4606TIP3    H238014   5.650   6.281  18.349 -0.6734 -1.2988  2.1861
 4607TIP3   OH238015   7.348   2.712  17.644 -0.2098  0.6522 -0.0634
 4607TIP3    H138016   7.423   2.769  17.628  0.4323 -0.6621 -2.1831
 4607TIP3    H238017   7.383   2.643  17.701  0.0755  0.3319 -0.6134
 4608TIP3   OH238018   2.711   2.347  18.283  0.3789 -0.1235  0.3560
 4608TIP3    H138019   2.671   2.425  18.321  2.7742  0.6236  1.5625
 4608TIP3    H238020   2.639   2.286  18.271 -1.3935  1.8730  0.4216
 4609TIP3   OH238021   5.979   7.140  16.752  0.6889 -0.1423  0.1317
 4609TIP3    H138022   5.922   7.064  16.758 -2.1061  1.8415  1.2484
 4609TIP3    H238023   6.020   7.134  16.666 -0.9451 -1.8895 -0.5898
 4610TIP3   OH238024   2.635   5.640  17.248  0.3039 -0.2687 -0.4200
 4610TIP3    H138025   2.622   5.708  17.314 -1.4051 -0.2826 -0.6996
 4610TIP3    H238026   2.591   5.563  17.283 -0.5150 -0.3120 -1.4844
 4611TIP3   OH238027   3.909   3.135  18.630 -0.5110 -0.3843  0.2652
 4611TIP3    H138028   3.850   3.121  18.705  1.0191 -0.1098  1.5629
 4611TIP3    H238029   3.993   3.159  18.669 -0.1552  1.7816 -1.5774
 4612TIP3   OH238030   4.355   3.646  19.491  0.4064 -0.3052 -0.3767
 4612TIP3    H138031   4.293   3.711  19.525  0.9037 -0.9829  1.9720
 4612TIP3    H238032   4.432   3.697  19.466  0.4049  0.1272  0.4747
 4613TIP3   OH238033   1.470   1.593  19.299 -0.4750  0.1565  0.2935
 4613TIP3    H138034   1.565   1.596  19.287 -0.4375  1.3195  0.7551
 4613TIP3    H238035   1.435   1.593  19.209 -0.0497  1.6276  0.0895
 4614TIP3   OH238036   3.141   4.500  17.904  0.0439 -0.3494 -0.1688
 4614TIP3    H138037   3.055   4.529  17.934 -0.2103 -0.6358 -0.6186
 4614TIP3    H238038   3.123   4.442  17.831  0.6712  1.8891 -2.2520
 4615TIP3   OH238039   6.830   1.169  17.591  0.1248 -0.1871  0.3205
 4615TIP3    H138040   6.737   1.160  17.609 -0.6837  0.0287 -3.0221
 4615TIP3    H238041   6.863   1.079  17.586 -0.8593 -0.4773 -2.2729
 4616TIP3   OH238042   2.349   7.484  16.716 -0.0926  0.3082  0.1414
 4616TIP3    H138043   2.428   7.528  16.684 -0.6377  1.7962  0.7865
 4616TIP3    H238044   2.302   7.551  16.765 -0.0829 -1.4225  2.7039
 4617TIP3   OH238045   5.640   4.116  18.950  0.0933 -0.2043  0.1692
 4617TIP3    H138046   5.664   4.189  19.007 -0.8332  1.0508 -0.9798
 4617TIP3    H238047   5.599   4.052  19.009  2.3270 -0.5727  1.4677
 4618TIP3   OH238048   4.879   2.977  17.446  0.3885  0.4311 -0.4593
 4618TIP3    H138049   4.881   2.916  17.372 -0.4100  0.5364 -0.5767
 4618TIP3    H238050   4.870   3.063  17.406  0.2264  0.5124 -0.2464
 4619TIP3   OH238051   2.607   4.265  18.778 -0.4071  0.7534  0.4608
 4619TIP3    H138052   2.573   4.354  18.768 -2.3016  0.3027  2.2652
 4619TIP3    H238053   2.674   4.272  18.846  1.3041  1.1662 -1.1780
 4620TIP3   OH238054   4.562   2.706  17.472  0.2590 -0.3773 -0.1532
 4620TIP3    H138055   4.531   2.775  17.413  1.0991  0.4909  0.3912
 4620TIP3    H238056   4.572   2.629  17.416  0.3856  0.2445 -1.0054
 4621TIP3   OH238057   3.447   7.241  18.345  0.4528 -0.2544 -0.4514
 4621TIP3    H138058   3.448   7.148  18.324 -0.1127 -0.2964 -0.3211
 4621TIP3    H238059   3.514   7.280  18.289  0.1166 -0.6162 -1.1128
 4622TIP3   OH238060   5.715   2.970  18.043 -0.2848  0.3791  0.1974
 4622TIP3    H138061   5.704   2.931  17.957  0.9073  2.0143 -0.7465
 4622TIP3    H238062   5.641   3.030  18.052 -0.4287  0.1829  0.3547
 4623TIP3   OH238063   2.892   1.643  18.154  0.1251 -0.2154  0.0190
 4623TIP3    H138064   2.807   1.615  18.119 -0.8587 -0.8022  2.6776
 4623TIP3    H238065   2.883   1.738  18.166 -0.2198 -0.2962  0.4233
 4624TIP3   OH238066   7.504   0.370  17.282 -0.1591 -0.2458  0.4486
 4624TIP3    H138067   7.530   0.393  17.192 -1.7875  1.8935  0.4684
 4624TIP3    H238068   7.466   0.283  17.274 -0.9133  0.1900 -1.0901
 4625TIP3   OH238069   6.065   1.037  17.874 -0.5101  0.0529  0.1580
 4625TIP3    H138070   6.034   0.976  17.941  0.3616  0.8260  1.2901
 4625TIP3    H238071   6.146   1.074  17.910 -0.6474  1.3609 -0.8098
 4626TIP3   OH238072   1.137   4.281  18.783  0.1190  0.7240  0.0160
 4626TIP3    H138073   1.186   4.208  18.744  0.6444  1.0778 -0.0044
 4626TIP3    H238074   1.141   4.265  18.877 -0.7033  0.1490 -0.0367
 4627TIP3   OH238075   5.867   4.917  19.484  0.0311  0.2568 -0.0451
 4627TIP3    H138076   5.879   4.906  19.390  0.1850  1.8794 -0.2463
 4627TIP3    H238077   5.860   4.828  19.518 -1.2797 -0.3560 -1.7512
 4628TIP3   OH238078   7.371   3.076  19.493 -0.1157 -0.0508 -0.2794
 4628TIP3    H138079   7.451   3.117  19.528 -0.6419  0.1991  0.6627
 4628TIP3    H238080   7.403   3.012  19.430  0.8516 -0.2463  0.3869
 4629TIP3   OH238081   4.687   7.332  18.375 -0.2766 -0.8257  0.1660
 4629TIP3    H138082   4.769   7.381  18.371 -0.3448 -0.5861  1.1979
 4629TIP3    H238083   4.630   7.375  18.312 -0.5565  0.9136  1.5099
 4630TIP3   OH238084   4.271   7.040  18.505 -0.2510  0.3507  0.2963
 4630TIP3    H138085   4.358   7.053  18.543 -0.4095 -0.6265  1.0419
 4630TIP3    H238086   4.225   7.122  18.521  0.0407  0.3342  1.2785
 4631TIP3   OH238087   7.566   2.812  17.358  0.3217 -0.0066  0.5271
 4631TIP3    H138088   7.570   2.901  17.391 -0.1177 -0.1851  1.0816
 4631TIP3    H238089   7.532   2.820  17.268 -2.8330  0.1835  1.6043
 4632TIP3   OH238090   5.526   3.050  18.311  0.0041 -0.1719  0.1768
 4632TIP3    H138091   5.565   3.107  18.245  1.5322  1.4077  2.2840
 4632TIP3    H238092   5.543   2.962  18.278  0.7288  0.5379 -1.5189
 4633TIP3   OH238093   4.201   3.636  16.807 -0.2174  0.4030  0.3334
 4633TIP3    H138094   4.224   3.594  16.890 -0.1732 -0.2847 -0.0186
 4633TIP3    H238095   4.180   3.563  16.748  1.5454  0.7514 -0.8020
 4634TIP3   OH238096   1.391   4.138  16.824  0.1595 -0.1735  0.4758
 4634TIP3    H138097   1.476   4.097  16.805 -0.7137 -1.2841 -1.2937
 4634TIP3    H238098   1.328   4.084  16.777 -1.6477  0.2150  2.3069
 4635TIP3   OH238099   6.290   5.590  18.538  0.3449 -0.3591 -0.0045
 4635TIP3    H138100   6.289   5.590  18.442  0.4868 -1.5931 -0.0287
 4635TIP3    H238101   6.243   5.510  18.563 -0.6912  0.5291  0.9952
 4636TIP3   OH238102   4.245   0.603  18.149 -0.1161  0.1513 -0.0567
 4636TIP3    H138103   4.289   0.531  18.104 -1.5718 -0.5915 -0.3584
 4636TIP3    H238104   4.174   0.629  18.090 -1.1612  0.1355  1.1293
 4637TIP3   OH238105   5.603   5.650  18.206 -0.5709  0.1291 -0.2603
 4637TIP3    H138106   5.627   5.589  18.275 -0.7807 -1.0224 -1.1739
 4637TIP3    H238107   5.543   5.712  18.248  0.1871  0.1359  0.8454
 4638TIP3   OH238108   3.785   7.368  18.753  0.2978 -0.0217 -0.2223
 4638TIP3    H138109   3.788   7.409  18.839 -1.4224 -1.6255  0.6775
 4638TIP3    H238110   3.697   7.388  18.720  0.1590 -1.2323 -0.6423
 4639TIP3   OH238111   5.799   0.089  18.446  0.4948 -0.1381 -0.4661
 4639TIP3    H138112   5.816   0.148  18.372  0.3314 -0.2357 -0.5832
 4639TIP3    H238113   5.855   0.013  18.429  0.9697  0.1341 -0.1310
 4640TIP3   OH238114   0.076   2.086  19.519 -0.1995 -0.6310 -0.1336
 4640TIP3    H138115   0.045   2.145  19.588  1.2111 -1.4162  1.2621
 4640TIP3    H238116   0.165   2.115  19.501 -0.9466  0.3306 -2.5906
 4641TIP3   OH238117   1.130   1.462  18.935  0.2483 -0.1593  0.3289
 4641TIP3    H138118   1.103   1.385  18.986  0.2417  0.1716  0.8395
 4641TIP3    H238119   1.077   1.533  18.971 -0.2359 -0.0428 -0.6055
 4642TIP3   OH238120   2.135   3.761  19.498  1.1581  0.4102 -0.0722
 4642TIP3    H138121   2.131   3.811  19.580 -0.9285  1.1282 -0.5447
 4642TIP3    H238122   2.045   3.735  19.482  1.7798 -1.1119 -1.3317
 4643TIP3   OH238123   2.233   2.280  17.744 -0.5962  0.4769 -0.2836
 4643TIP3    H138124   2.292   2.346  17.779 -0.1321  0.2146 -0.5654
 4643TIP3    H238125   2.166   2.330  17.697  0.7772  0.6974 -2.1062
 4644TIP3   OH238126   0.720   6.563  18.098 -0.6852  0.0083 -0.1329
 4644TIP3    H138127   0.814   6.546  18.104 -0.2174  1.5118 -2.1210
 4644TIP3    H238128   0.701   6.620  18.173  0.2553  0.7280 -0.4306
 4645TIP3   OH238129   5.734   3.162  17.022  0.0074 -0.5390  0.1460
 4645TIP3    H138130   5.775   3.107  16.955  0.9114  1.3378 -0.9213
 4645TIP3    H238131   5.646   3.178  16.990  0.0795 -0.5215 -0.0418
 4646TIP3   OH238132   4.377   7.108  17.728 -0.1096  0.1597 -0.0297
 4646TIP3    H138133   4.378   7.187  17.674  2.5441 -0.1379 -0.5594
 4646TIP3    H238134   4.450   7.120  17.789 -1.5892 -0.5586  2.0105
 4647TIP3   OH238135   6.814   3.471  19.339 -0.4488 -0.4783 -0.5962
 4647TIP3    H138136   6.730   3.457  19.296  0.3434 -0.3887 -2.2565
 4647TIP3    H238137   6.878   3.468  19.268  0.8609  0.4048  0.4918
 4648TIP3   OH238138   0.152   1.836  19.479 -0.0300  0.0707 -0.4886
 4648TIP3    H138139   0.131   1.918  19.524 -0.7896 -0.2322 -0.2770
 4648TIP3    H238140   0.072   1.784  19.485  0.6262 -0.9250 -0.1171
 4649TIP3   OH238141   7.469   6.001  17.932  0.4490 -0.3363 -0.5618
 4649TIP3    H138142   7.384   5.987  17.975  1.0660  0.1145  0.8796
 4649TIP3    H238143   7.479   6.096  17.930  1.5363 -0.4065  0.5885
 4650TIP3   OH238144   4.331   2.897  17.870  0.7469  0.3311 -0.1581
 4650TIP3    H138145   4.374   2.886  17.955 -0.3372 -1.6251  0.1803
 4650TIP3    H238146   4.357   2.820  17.820 -0.3869  0.3612 -0.8189
 4651TIP3   OH238147   7.327   3.658  17.640  0.4944  0.0644  0.5691
 4651TIP3    H138148   7.349   3.594  17.573  0.6880 -0.8579  1.4937
 4651TIP3    H238149   7.394   3.726  17.631  1.0990 -0.5312  0.4459
 4652TIP3   OH238150   0.837   3.670  17.470  0.5100  0.7129 -0.2335
 4652TIP3    H138151   0.853   3.593  17.415  3.5513 -0.8640  2.4884
 4652TIP3    H238152   0.898   3.736  17.438  1.1937  0.3271  0.2464
 4653TIP3   OH238153   7.000   2.540  18.754 -0.1919 -0.3994 -0.1003
 4653TIP3    H138154   6.987   2.469  18.691 -0.0701 -0.2787 -0.2616
 4653TIP3    H238155   6.975   2.502  18.838 -0.7557 -0.4323 -0.2816
 4654TIP3   OH238156   4.696   3.909  17.590  0.0754 -0.2835 -0.5213
 4654TIP3    H138157   4.686   3.863  17.507  0.5891 -0.5854 -0.4155
 4654TIP3    H238158   4.788   3.936  17.592 -0.2520  0.9084 -0.6674
 4655TIP3   OH238159   6.777   0.651  18.905 -0.2716  0.4276  0.5816
 4655TIP3    H138160   6.712   0.581  18.910  0.6631 -0.5229  0.0227
 4655TIP3    H238161   6.833   0.636  18.982 -0.5413  1.0699  0.9108
 4656TIP3   OH238162   4.098   3.710  18.841 -0.0599 -0.0283 -0.0497
 4656TIP3    H138163   4.033   3.778  18.823 -0.1254 -0.1750 -0.3768
 4656TIP3    H238164   4.136   3.735  18.925 -1.6683 -0.7889  0.9692
 4657TIP3   OH238165   6.282   5.158  19.372  0.1347 -0.0228 -0.2075
 4657TIP3    H138166   6.234   5.090  19.326  0.0350  0.0941 -0.2752
 4657TIP3    H238167   6.363   5.116  19.401 -0.1532 -0.3121  0.1916
 4658TIP3   OH238168   6.180   7.167  16.963 -0.6988 -0.2716 -0.5973
 4658TIP3    H138169   6.139   7.190  16.880  0.0176  0.9928 -0.6395
 4658TIP3    H238170   6.267   7.206  16.958  0.2039 -2.1056 -0.1498
 4659TIP3   OH238171   3.615   4.790  17.975  0.1718  0.0794  0.3894
 4659TIP3    H138172   3.672   4.805  17.900  1.4483 -1.2343  1.0637
 4659TIP3    H238173   3.611   4.695  17.984 -1.1947  0.1802  1.0736
 4660TIP3   OH238174   5.976   6.898  18.600 -0.2271  0.3550  0.4282
 4660TIP3    H138175   6.019   6.837  18.659 -0.2990 -1.0883 -0.9610
 4660TIP3    H238176   5.888   6.908  18.636  0.0225  0.2261  1.0808
 4661TIP3   OH238177   7.164   0.669  19.251 -0.2792 -0.1721 -0.9896
 4661TIP3    H138178   7.090   0.699  19.304  1.5080 -0.9094  2.1788
 4661TIP3    H238179   7.167   0.574  19.266  3.5704  0.2334  2.4333
 4662TIP3   OH238180   3.731   7.571  17.371  0.5654  0.2321 -0.5736
 4662TIP3    H138181   3.710   7.650  17.421  0.3570  0.3126 -0.7861
 4662TIP3    H238182   3.696   7.499  17.425  0.9313  0.2692 -0.2867
 4663TIP3   OH238183   6.824   2.160  18.163  0.2907  0.0858 -0.9434
 4663TIP3    H138184   6.794   2.069  18.164 -1.1837  0.4960 -2.5755
 4663TIP3    H238185   6.744   2.212  18.171  0.9272  1.2362 -1.7235
 4664TIP3   OH238186   0.761   1.302  19.494 -0.1028 -0.0913 -0.1088
 4664TIP3    H138187   0.780   1.373  19.556 -0.1175 -0.9837  0.9659
 4664TIP3    H238188   0.666   1.301  19.487 -0.0806  0.2812 -0.4818
 4665TIP3   OH238189   5.577   7.289  18.022 -0.6297 -0.5092  0.3863
 4665TIP3    H138190   5.531   7.339  18.090 -0.3205 -0.9302  0.9165
 4665TIP3    H238191   5.645   7.241  18.070 -0.8672 -1.3695 -0.1213
 4666TIP3   OH238192   1.203   4.612  16.753  0.0449 -0.4021 -0.7048
 4666TIP3    H138193   1.145   4.648  16.820 -0.9233 -1.4837 -0.9249
 4666TIP3    H238194   1.157   4.629  16.670  0.9798  0.4529 -1.0665
 4667TIP3   OH238195   1.338   4.630  17.338 -0.1155  0.6424 -0.1787
 4667TIP3    H138196   1.337   4.722  17.364  1.7881  0.9486 -0.9749
 4667TIP3    H238197   1.247   4.603  17.342 -0.4887  1.9492  2.1180
 4668TIP3   OH238198   3.432   2.601  19.230 -0.1019 -0.2078  0.0080
 4668TIP3    H138199   3.386   2.524  19.263  2.4948 -1.3331  1.2828
 4668TIP3    H238200   3.408   2.671  19.291 -1.2696 -0.3595 -0.2509
 4669TIP3   OH238201   7.534   2.041  19.348 -0.1754 -0.6026 -0.3158
 4669TIP3    H138202   7.620   2.031  19.390  0.2435 -1.2247 -1.3068
 4669TIP3    H238203   7.475   1.991  19.404  0.1290 -0.2999  0.2871
 4670TIP3   OH238204   0.180   5.573  17.239  0.1932  0.1747  0.3624
 4670TIP3    H138205   0.090   5.542  17.249  0.2252  0.3251  1.2178
 4670TIP3    H238206   0.218   5.515  17.173 -0.1960 -0.6444  0.8385
 4671TIP3   OH238207   5.883   5.237  17.847  0.0939  0.7744  0.1993
 4671TIP3    H138208   5.802   5.263  17.803 -0.3335 -1.0960 -0.1771
 4671TIP3    H238209   5.862   5.155  17.892  1.6565  0.4699  0.4554
 4672TIP3   OH238210   6.381   1.826  19.516 -0.1432 -0.6113 -0.2854
 4672TIP3    H138211   6.334   1.856  19.594  1.2462 -1.3942  0.9020
 4672TIP3    H238212   6.368   1.896  19.452  0.0614  0.8492  1.2026
 4673TIP3   OH238213   0.971   7.506  18.550 -0.1372  0.1491 -0.5856
 4673TIP3    H138214   0.907   7.436  18.562 -0.1675  0.3650  0.7099
 4673TIP3    H238215   1.051   7.461  18.523 -0.5553 -0.2276 -1.1995
 4674TIP3   OH238216   0.148   7.598  17.940  0.1264  0.4058  0.2137
 4674TIP3    H138217   0.162   7.631  18.028  0.7525  0.5559  0.0556
 4674TIP3    H238218   0.084   7.527  17.951  1.9860 -1.2196  1.1296
 4675TIP3   OH238219   3.760   6.455  17.519  0.1006 -0.1881 -0.1024
 4675TIP3    H138220   3.672   6.437  17.487  0.5281 -3.5519  0.1662
 4675TIP3    H238221   3.800   6.508  17.450 -1.6062 -0.0465 -1.0356
 4676TIP3   OH238222   3.447   1.698  17.487  0.5821 -0.0502  0.1915
 4676TIP3    H138223   3.495   1.743  17.557  0.2878  0.3391  0.1515
 4676TIP3    H238224   3.467   1.749  17.408 -0.6557  0.7102  0.3380
 4677TIP3   OH238225   4.436   3.717  18.554 -0.1381  0.1312 -0.0559
 4677TIP3    H138226   4.449   3.807  18.586  3.3451 -0.7451  1.5008
 4677TIP3    H238227   4.399   3.670  18.629  2.2139 -0.5864  0.7451
 4678TIP3   OH238228   2.352   4.519  17.482  0.4903  0.2659  0.3217
 4678TIP3    H138229   2.433   4.553  17.519 -0.6342  1.7424  1.5741
 4678TIP3    H238230   2.349   4.427  17.511  2.8700 -0.6440 -1.8808
 4679TIP3   OH238231   3.497   7.244  18.608  0.2913 -0.0380 -0.2510
 4679TIP3    H138232   3.577   7.193  18.621 -0.4344 -1.5446 -1.4292
 4679TIP3    H238233   3.490   7.256  18.513  0.1494  1.8408 -0.0510
 4680TIP3   OH238234   5.389   7.361  17.140 -0.5695 -0.1281  0.0182
 4680TIP3    H138235   5.445   7.310  17.081  0.7865  2.1917 -0.8594
 4680TIP3    H238236   5.402   7.321  17.226  0.8708 -0.9033 -0.5216
 4681TIP3   OH238237   7.118   3.136  18.687 -0.2715 -0.1904 -0.1304
 4681TIP3    H138238   7.186   3.078  18.719 -0.1491  0.0442  0.0433
 4681TIP3    H238239   7.060   3.148  18.763 -1.1621 -1.3288 -0.6125
 4682TIP3   OH238240   5.108   3.108  18.861  0.0346 -0.1726  0.3115
 4682TIP3    H138241   5.131   3.138  18.773 -1.6617 -0.9258 -0.4406
 4682TIP3    H238242   5.056   3.180  18.898  0.5873  0.0643  0.6484
 4683TIP3   OH238243   1.377   4.121  17.409  0.2972 -0.3901  0.1824
 4683TIP3    H138244   1.357   4.027  17.408  0.2855 -0.4389  1.9354
 4683TIP3    H238245   1.410   4.137  17.498  1.7299  0.9799 -0.5507
 4684TIP3   OH238246   3.249   2.929  18.772  0.5487 -0.0816 -0.5023
 4684TIP3    H138247   3.242   2.898  18.863  0.1241  0.2174 -0.4336
 4684TIP3    H238248   3.326   2.986  18.773 -0.7120  1.6898  0.1971
 4685TIP3   OH238249   3.014   2.572  18.606  0.0017  0.4106  0.8680
 4685TIP3    H138250   2.942   2.632  18.625 -0.0322  0.5103  0.4441
 4685TIP3    H238251   3.082   2.628  18.569 -0.3864  0.0652 -0.4290
 4686TIP3   OH238252   5.071   7.405  17.439  0.2742  0.1043 -0.0844
 4686TIP3    H138253   5.129   7.417  17.515 -1.4388 -0.3520  1.3798
 4686TIP3    H238254   4.995   7.358  17.474 -0.1595 -0.9839 -2.3209
 4687TIP3   OH238255   0.283   1.480  19.344  0.1985 -0.1249  0.5899
 4687TIP3    H138256   0.216   1.440  19.398  0.6649 -0.6215  0.8147
 4687TIP3    H238257   0.247   1.478  19.255  0.9524 -2.8161  0.2679
 4688TIP3   OH238258   5.560   4.094  19.358  0.0510  0.1203 -0.0445
 4688TIP3    H138259   5.563   4.029  19.287 -1.8132 -0.3469  0.2351
 4688TIP3    H238260   5.474   4.136  19.347  0.6394  1.5535  0.6480
 4689TIP3   OH238261   4.184   5.999  17.514 -0.4309  0.5031  0.5889
 4689TIP3    H138262   4.091   6.017  17.504 -0.2382  0.6176 -1.4544
 4689TIP3    H238263   4.227   6.066  17.461  0.7289 -0.4242  0.3126
 4690TIP3   OH238264   2.834   3.629  18.123  0.3533 -0.1792  0.0901
 4690TIP3    H138265   2.876   3.543  18.133  0.0189 -0.3940 -0.2959
 4690TIP3    H238266   2.895   3.690  18.162  0.2209 -0.6910  1.1328
 4691TIP3   OH238267   0.593   4.789  18.841 -0.2823 -0.8848  0.4878
 4691TIP3    H138268   0.626   4.827  18.923 -1.9477  0.9071  0.4134
 4691TIP3    H238269   0.587   4.695  18.858  1.3529 -0.8153  1.6905
 4692TIP3   OH238270   0.721   4.791  17.414 -0.1400  0.1571 -0.1855
 4692TIP3    H138271   0.739   4.812  17.322  1.6579 -2.2534 -0.4717
 4692TIP3    H238272   0.784   4.842  17.463 -0.5557  0.8243 -0.3332
 4693TIP3   OH238273   6.150   0.708  16.779 -0.6375 -0.0571  0.5923
 4693TIP3    H138274   6.224   0.663  16.737 -0.6504 -1.2166  1.7340
 4693TIP3    H238275   6.075   0.652  16.762 -1.2812  1.1069 -0.5340
 4694TIP3   OH238276   6.424   1.648  17.253 -0.2135  0.6502  0.2862
 4694TIP3    H138277   6.477   1.721  17.220  0.0705 -0.3684 -1.6773
 4694TIP3    H238278   6.419   1.587  17.179 -0.1817 -1.4866  1.9559
 4695TIP3   OH238279   3.290   0.583  16.898 -0.0880  0.5108  0.7819
 4695TIP3    H138280   3.218   0.645  16.905 -0.2076  0.4210  0.3806
 4695TIP3    H238281   3.259   0.503  16.941  0.5067  1.0961  2.3706
 4696TIP3   OH238282   4.377   4.019  18.283 -0.4135  0.2144  0.3954
 4696TIP3    H138283   4.410   3.993  18.370  1.3144 -0.8428 -0.5203
 4696TIP3    H238284   4.288   4.050  18.300 -0.0073  0.3906  2.5951
 4697TIP3   OH238285   6.521   7.001  18.559  0.7675  0.7375 -0.3061
 4697TIP3    H138286   6.430   7.031  18.565  0.2165 -0.7740 -0.3819
 4697TIP3    H238287   6.524   6.952  18.476  1.5895  0.6096 -0.2098
 4698TIP3   OH238288   7.302   5.493  18.223 -0.3109 -0.0861 -0.2975
 4698TIP3    H138289   7.293   5.449  18.308 -1.3583 -0.4017 -0.5635
 4698TIP3    H238290   7.215   5.528  18.204  0.5137  2.2713 -0.0433
 4699TIP3   OH238291   4.379   3.309  18.582 -0.0004  0.1717 -0.3566
 4699TIP3    H138292   4.330   3.356  18.515 -0.2531  1.2437  0.5448
 4699TIP3    H238293   4.401   3.376  18.647  0.0093 -0.8692  0.7553
 4700TIP3   OH238294   6.450   1.175  19.585 -0.5427 -0.0747  0.3175
 4700TIP3    H138295   6.521   1.132  19.633  0.2208  0.6938 -0.0945
 4700TIP3    H238296   6.375   1.117  19.596 -0.0788 -0.4908  1.4628
 4701TIP3   OH238297   0.678   6.903  19.234  0.3964 -0.0709  0.1918
 4701TIP3    H138298   0.716   6.986  19.208  0.6094 -0.3784 -0.5012
 4701TIP3    H238299   0.753   6.844  19.244  0.2805 -0.0840  1.0578
 4702TIP3   OH238300   0.150   6.993  18.594 -0.8415  0.8786 -0.2842
 4702TIP3    H138301   0.129   7.015  18.685 -2.1902  1.0194 -0.6065
 4702TIP3    H238302   0.074   7.023  18.544 -1.7431 -2.3150 -1.0538
 4703TIP3   OH238303   4.009   1.600  17.994 -0.4414 -1.1162 -0.3208
 4703TIP3    H138304   4.028   1.606  17.900 -0.6061 -1.7282 -0.3981
 4703TIP3    H238305   4.064   1.528  18.025  0.8727  0.1589  0.3977
 4704TIP3   OH238306   5.819   1.388  17.845  0.4572  0.0284  0.4111
 4704TIP3    H138307   5.853   1.474  17.818 -0.1230  0.5482  1.3011
 4704TIP3    H238308   5.736   1.379  17.798  0.4224  0.0424  0.4704
 4705TIP3   OH238309   0.935   2.318  19.366 -0.3267  0.9728 -0.2470
 4705TIP3    H138310   0.852   2.277  19.344 -0.0342  0.6821 -0.8312
 4705TIP3    H238311   0.920   2.360  19.451 -0.7064 -0.1481  0.2572
 4706TIP3   OH238312   0.168   4.083  19.603  0.1910  0.7250  0.8418
 4706TIP3    H138313   0.093   4.111  19.551 -0.3280  1.3338  1.8746
 4706TIP3    H238314   0.241   4.134  19.570  0.0919  0.3763  0.0576
 4707TIP3   OH238315   6.596   0.980  17.769 -0.6555  0.3908 -0.2729
 4707TIP3    H138316   6.573   0.907  17.712  0.0654 -0.4071  0.4482
 4707TIP3    H238317   6.655   0.943  17.834 -0.8002  1.4717  0.5033
 4708TIP3   OH238318   2.355   7.274  17.323 -0.1883  0.2742 -0.2040
 4708TIP3    H138319   2.314   7.193  17.295 -0.0387 -0.7491  2.2960
 4708TIP3    H238320   2.435   7.280  17.271  0.0880 -1.4779 -0.0255
 4709TIP3   OH238321   6.985   0.280  17.242 -0.6407 -0.5698  0.2451
 4709TIP3    H138322   7.029   0.266  17.158  0.9075 -0.8839  1.0778
 4709TIP3    H238323   6.917   0.345  17.222 -0.8492 -1.2282 -1.4024
 4710TIP3   OH238324   2.814   4.087  18.069 -0.5530  0.0670 -0.3441
 4710TIP3    H138325   2.770   4.144  18.006 -0.9894 -0.3148 -0.3976
 4710TIP3    H238326   2.774   4.110  18.153  0.0869  0.6336 -0.1948
 4711TIP3   OH238327   2.447   4.534  17.182  0.3009 -0.1132  0.4908
 4711TIP3    H138328   2.531   4.518  17.224  0.3132  1.2449  1.0468
 4711TIP3    H238329   2.382   4.512  17.249  0.2699  0.2260  0.5775
 4712TIP3   OH238330   1.549   3.318  19.003 -0.3581  0.0894 -0.4637
 4712TIP3    H138331   1.491   3.300  18.929 -0.6448  0.8111 -0.4257
 4712TIP3    H238332   1.530   3.249  19.066 -0.9436  0.1401 -0.5817
 4713TIP3   OH238333   1.447   5.675  17.685  0.0653  0.4844 -0.5495
 4713TIP3    H138334   1.510   5.626  17.632  0.0169  0.3911 -0.5228
 4713TIP3    H238335   1.499   5.721  17.750  0.0745  0.1139 -0.2939
 4714TIP3   OH238336   3.820   2.554  18.693  0.2220 -0.0259 -0.2010
 4714TIP3    H138337   3.786   2.534  18.781  1.7024  0.2377  0.4612
 4714TIP3    H238338   3.789   2.643  18.676  0.1509  0.0236  0.1645
 4715TIP3   OH238339   1.625   6.094  17.889 -0.4846  0.1836 -0.1422
 4715TIP3    H138340   1.620   6.001  17.909  0.3637  0.5396  1.9671
 4715TIP3    H238341   1.719   6.111  17.879 -0.6471  0.7808 -0.7590
 4716TIP3   OH238342   2.232   7.654  17.295  0.7715 -0.7061  0.1272
 4716TIP3    H138343   2.242   7.741  17.258  1.4314 -1.2332 -0.9976
 4716TIP3    H238344   2.247   7.665  17.388 -1.2888  0.7338  0.3447
 4717TIP3   OH238345   6.933   0.727  18.102 -0.0624  0.0506 -0.0652
 4717TIP3    H138346   6.851   0.678  18.112 -1.0910  1.3484 -1.6783
 4717TIP3    H238347   6.966   0.735  18.191 -1.5780 -0.6966  0.6125
 4718TIP3   OH238348   3.236   0.044  18.134 -0.6079 -0.2299  0.0373
 4718TIP3    H138349   3.234   0.124  18.186  0.9568  0.1143 -0.3786
 4718TIP3    H238350   3.211  -0.025  18.195  1.8195  0.0719  1.5040
 4719TIP3   OH238351   0.945   5.468  16.949 -0.2245  0.0262 -0.0274
 4719TIP3    H138352   0.975   5.528  16.882  0.5914  0.7859  0.9878
 4719TIP3    H238353   0.995   5.388  16.935  0.3709  0.3864  0.0365
 4720TIP3   OH238354   5.245   0.005  19.303  0.3404  0.0432  0.1089
 4720TIP3    H138355   5.209   0.050  19.380 -1.8724  0.7983 -1.2748
 4720TIP3    H238356   5.336  -0.014  19.327 -0.3858 -0.2006  3.0700
 4721TIP3   OH238357   3.211   2.787  18.545  0.5636  0.4936  0.1195
 4721TIP3    H138358   3.269   2.844  18.494 -0.3125  1.7920  0.5460
 4721TIP3    H238359   3.203   2.829  18.630 -1.9908  1.0651 -0.3126
 4722TIP3   OH238360   4.604   5.757  19.406  0.2452 -0.5675 -0.0273
 4722TIP3    H138361   4.576   5.807  19.483  0.4057  1.4993 -1.2402
 4722TIP3    H238362   4.522   5.727  19.367  0.1406 -1.2110  0.6559
 4723TIP3   OH238363   4.160   4.306  16.441  0.5638 -0.0877  0.6121
 4723TIP3    H138364   4.178   4.213  16.427 -0.8250 -0.0927 -1.5408
 4723TIP3    H238365   4.068   4.310  16.464  0.6093  0.7613  0.6822
 4724TIP3   OH238366   5.119   4.510  19.235  0.0150  1.0184  0.0951
 4724TIP3    H138367   5.171   4.430  19.243 -0.2550  0.6848 -1.2377
 4724TIP3    H238368   5.183   4.578  19.215  0.1315  0.9506  0.2327
 4725TIP3   OH238369   2.429   3.691  18.609  0.1415  0.5271  0.0017
 4725TIP3    H138370   2.502   3.700  18.548  1.6357 -0.8498  1.4725
 4725TIP3    H238371   2.461   3.631  18.676 -2.4316 -0.2864  0.6233
 4726TIP3   OH238372   1.307   6.960  17.918  0.4406  0.3172  0.4355
 4726TIP3    H138373   1.310   7.056  17.915  0.6977  0.2924 -0.4001
 4726TIP3    H238374   1.230   6.941  17.971 -0.5228  1.0066 -0.6425
 4727TIP3   OH238375   0.996   1.555  19.460 -0.1494  0.3321 -0.3734
 4727TIP3    H138376   1.075   1.513  19.426 -0.6688 -0.1244 -1.0201
 4727TIP3    H238377   0.985   1.518  19.548  0.1019  0.0638 -0.4541
 4728TIP3   OH238378   7.463   5.655  18.989  0.2223  0.1906  0.9697
 4728TIP3    H138379   7.532   5.708  18.950 -0.0400  0.2540  0.5829
 4728TIP3    H238380   7.390   5.716  19.000 -1.0571 -0.6301 -2.0022
 4729TIP3   OH238381   6.317   7.568  19.111 -0.0771 -0.0219  0.2218
 4729TIP3    H138382   6.340   7.484  19.152 -0.0159  0.7151  1.7927
 4729TIP3    H238383   6.258   7.545  19.040  0.7513 -1.4762 -0.0381
 4730TIP3   OH238384   4.942   6.708  18.243 -0.1563 -0.3550 -0.2787
 4730TIP3    H138385   4.964   6.771  18.311 -2.4869  1.4623 -1.0736
 4730TIP3    H238386   4.914   6.630  18.291  0.5479 -0.0004  0.7561
 4731TIP3   OH238387   2.159   5.044  19.592  0.7555  0.2154  0.2625
 4731TIP3    H138388   2.070   5.033  19.626  0.0919  0.8580 -1.1447
 4731TIP3    H238389   2.206   4.966  19.620 -0.5895 -0.7019  0.0759
 4732TIP3   OH238390   2.302   3.018  18.241  0.1941  0.1314 -0.1467
 4732TIP3    H138391   2.305   3.108  18.207 -1.3070  0.7708  1.2564
 4732TIP3    H238392   2.346   3.023  18.326 -0.8511 -0.1756  0.4376
 4733TIP3   OH238393   7.234   1.025  19.300  0.1787 -0.2633 -0.1704
 4733TIP3    H138394   7.211   0.962  19.368  1.1644 -0.3292  0.1074
 4733TIP3    H238395   7.150   1.066  19.276 -0.3744 -1.2333  0.0779
 4734TIP3   OH238396   4.134   3.210  19.633 -0.4586 -0.2406 -0.2606
 4734TIP3    H138397   4.185   3.291  19.631  2.1764 -1.7977 -0.9759
 4734TIP3    H238398   4.173   3.155  19.565 -1.5987 -2.4169  0.7211
 4735TIP3   OH238399   0.211   6.515  18.949  0.5300  1.0805 -0.1507
 4735TIP3    H138400   0.134   6.486  18.900  1.2377  0.7101 -1.0738
 4735TIP3    H238401   0.196   6.608  18.965 -0.8468  0.6718  1.1062
 4736TIP3   OH238402   6.808   3.377  17.917  0.2440 -0.6006 -0.4344
 4736TIP3    H138403   6.839   3.382  17.827 -0.2151  2.0266 -0.5059
 4736TIP3    H238404   6.885   3.394  17.970  0.1615 -0.3925 -0.3827
 4737TIP3   OH238405   5.726   6.203  19.534  0.1441 -0.0813  0.1703
 4737TIP3    H138406   5.712   6.175  19.624  0.1118  1.6969  0.7550
 4737TIP3    H238407   5.639   6.209  19.496  0.1527 -0.7552  0.0374
 4738TIP3   OH238408   0.878   4.883  17.852  0.2020  0.0336  0.1584
 4738TIP3    H138409   0.814   4.812  17.843 -0.8626  1.2049 -2.1452
 4738TIP3    H238410   0.950   4.858  17.794  0.2007  0.4257 -0.0136
 4739TIP3   OH238411   4.669   3.814  17.867 -0.5744 -0.2304 -0.0282
 4739TIP3    H138412   4.670   3.846  17.777 -0.2024  0.1014  0.0932
 4739TIP3    H238413   4.576   3.798  17.886 -0.8289  1.2906  0.0876
 4740TIP3   OH238414   4.434   3.701  18.286  0.1159  0.1151 -0.3909
 4740TIP3    H138415   4.442   3.702  18.381  1.2854 -0.1123 -0.4746
 4740TIP3    H238416   4.361   3.640  18.269  0.9804 -1.1636  0.3095
 4741TIP3   OH238417   1.491   5.379  16.925  0.0793 -0.3797  0.0517
 4741TIP3    H138418   1.536   5.418  17.000 -1.5674  0.1047  0.8138
 4741TIP3    H238419   1.487   5.450  16.861 -2.3864  0.6421  1.2136
 4742TIP3   OH238420   6.318   7.476  16.733 -0.4068  0.0134 -0.2014
 4742TIP3    H138421   6.377   7.404  16.711  0.1199  0.7737 -1.3720
 4742TIP3    H238422   6.271   7.446  16.811 -1.1481 -2.1358 -1.4094
 4743TIP3   OH238423   1.428   0.448  17.148 -0.0488 -0.2084  0.5072
 4743TIP3    H138424   1.416   0.525  17.204  1.6118 -0.1136  0.7803
 4743TIP3    H238425   1.368   0.463  17.074  0.5128  1.5471  0.3652
 4744TIP3   OH238426   4.054   4.597  17.935 -0.2088  0.0184 -0.0589
 4744TIP3    H138427   4.139   4.617  17.976  0.3091 -1.0658 -0.5541
 4744TIP3    H238428   3.991   4.651  17.982  0.8364  1.3039 -0.0761
 4745TIP3   OH238429   3.358   1.299  18.887  0.6183 -0.3312  0.3127
 4745TIP3    H138430   3.310   1.308  18.969 -0.0874 -0.8014 -0.0415
 4745TIP3    H238431   3.450   1.292  18.913  0.2433 -2.6953  1.2286
 4746TIP3   OH238432   0.983   6.205  17.792 -0.0222 -0.0742  0.5466
 4746TIP3    H138433   0.953   6.193  17.702  0.7929  1.1517  0.0861
 4746TIP3    H238434   0.951   6.128  17.838 -0.5640 -0.6635 -0.7599
 4747TIP3   OH238435   4.534   1.429  18.810  0.2608 -0.2607 -0.3571
 4747TIP3    H138436   4.621   1.404  18.778  1.0350  1.2893  0.4424
 4747TIP3    H238437   4.488   1.345  18.822  1.9800 -1.1777  0.1370
 4748TIP3   OH238438   0.262   3.649  19.475 -0.1935 -0.2685  0.5603
 4748TIP3    H138439   0.343   3.697  19.459 -0.9581  0.9463  0.2448
 4748TIP3    H238440   0.226   3.688  19.555 -1.2779  0.3185 -0.1982
 4749TIP3   OH238441   3.374   1.393  17.515  0.8577 -0.1961 -0.1732
 4749TIP3    H138442   3.328   1.310  17.518 -4.1909  2.2101 -0.7187
 4749TIP3    H238443   3.398   1.410  17.606  1.3250 -1.8777  0.0441
 4750TIP3   OH238444   2.895   0.839  18.938  0.1025 -0.2479  0.0614
 4750TIP3    H138445   2.944   0.801  19.010  0.8886 -2.3589 -1.4957
 4750TIP3    H238446   2.960   0.888  18.888 -0.2548  0.4322  0.2449
 4751TIP3   OH238447   1.836   6.253  18.174 -0.6658  0.4863  0.2769
 4751TIP3    H138448   1.866   6.219  18.089 -2.1698 -2.1747  0.7053
 4751TIP3    H238449   1.892   6.210  18.238 -2.2142 -0.8497  0.8082
 4752TIP3   OH238450   3.939   5.521  17.184  0.1831 -0.1706  0.3433
 4752TIP3    H138451   3.957   5.612  17.208  0.0656 -0.3927  1.2939
 4752TIP3    H238452   3.948   5.520  17.088 -0.1099  0.9000  0.2857
 4753TIP3   OH238453   1.872   0.877  19.230 -0.1138  0.8878 -0.0259
 4753TIP3    H138454   1.876   0.936  19.306  1.4671 -0.3246  0.9089
 4753TIP3    H238455   1.789   0.831  19.240  0.8643 -0.6117  2.1327
 4754TIP3   OH238456   1.597   4.717  19.153  0.0826 -0.1924  0.0992
 4754TIP3    H138457   1.564   4.649  19.210 -0.8562  0.1352 -0.0368
 4754TIP3    H238458   1.528   4.783  19.151 -0.9650 -1.1647 -3.1394
 4755TIP3   OH238459   3.534   5.034  17.647  0.3340 -0.1049  0.3290
 4755TIP3    H138460   3.619   5.014  17.607 -0.2343 -0.1916 -0.8845
 4755TIP3    H238461   3.507   5.117  17.607 -1.4328 -1.4612 -1.4832
 4756TIP3   OH238462   2.105   4.192  17.352  0.3156  0.1296 -0.0534
 4756TIP3    H138463   2.108   4.287  17.359 -1.3187  0.1885  0.3012
 4756TIP3    H238464   2.105   4.161  17.442  2.7679 -0.3520 -0.1507
 4757TIP3   OH238465   1.594   1.426  16.673 -0.1149 -1.1707  0.2508
 4757TIP3    H138466   1.677   1.381  16.691  0.0731 -0.0189  2.6178
 4757TIP3    H238467   1.618   1.497  16.614  0.5404 -1.0739  0.6203
 4758TIP3   OH238468   2.850   3.057  17.900 -0.3851 -0.2211 -0.4232
 4758TIP3    H138469   2.944   3.072  17.900 -0.2680 -0.8548 -1.3018
 4758TIP3    H238470   2.839   2.972  17.942 -0.5102 -0.4007 -0.8127
 4759TIP3   OH238471   7.167   6.660  17.726  0.2956  0.2976 -0.1532
 4759TIP3    H138472   7.073   6.642  17.718  0.3212 -0.3448  0.8267
 4759TIP3    H238473   7.197   6.672  17.636 -0.3724 -1.3376 -0.6327
 4760TIP3   OH238474   7.283   5.322  16.884 -0.1623  0.0740  0.1549
 4760TIP3    H138475   7.245   5.286  16.964 -3.4097 -1.1606 -1.7315
 4760TIP3    H238476   7.248   5.411  16.878  1.0064  0.5795  0.6323
 4761TIP3   OH238477   4.808   7.592  18.652  0.1270 -0.1053  0.4505
 4761TIP3    H138478   4.874   7.656  18.675  0.2702 -0.0814 -0.0293
 4761TIP3    H238479   4.727   7.626  18.690 -0.0548  1.0172 -0.8883
 4762TIP3   OH238480   4.975   6.835  18.500  0.4555  0.3613  0.0398
 4762TIP3    H138481   4.940   6.903  18.558  0.4667  2.8780 -2.6509
 4762TIP3    H238482   5.047   6.796  18.549 -0.1595  1.6024  2.0667
 4763TIP3   OH238483   3.171   1.830  17.422  0.3782 -0.1870 -0.0264
 4763TIP3    H138484   3.152   1.827  17.328  0.0816  0.7874 -0.0174
 4763TIP3    H238485   3.236   1.899  17.431 -1.3717  1.4636  0.7181
 4764TIP3   OH238486   2.493   5.171  17.699  0.0049 -0.2614 -0.1576
 4764TIP3    H138487   2.557   5.195  17.632  0.1663 -1.6893 -0.5301
 4764TIP3    H238488   2.411   5.210  17.668 -0.3568 -2.3915 -2.2065
 4765TIP3   OH238489   7.137   0.969  18.506  0.3612  0.0720  0.3299
 4765TIP3    H138490   7.049   0.965  18.545  1.3382 -2.8058  2.5670
 4765TIP3    H238491   7.189   1.016  18.572  0.6606  1.3544 -0.7779
 4766TIP3   OH238492   0.046   6.110  17.722 -0.0081  0.1030 -0.1414
 4766TIP3    H138493   0.074   6.156  17.642 -1.2176  1.4667  0.1708
 4766TIP3    H238494   0.074   6.167  17.793 -2.4146  0.9461  0.2268
 4767TIP3   OH238495   4.142   0.410  19.359 -0.1941  0.0182  0.1171
 4767TIP3    H138496   4.058   0.406  19.405  0.3982 -1.1157  1.1510
 4767TIP3    H238497   4.180   0.323  19.369  1.4623  0.7254  0.3630
 4768TIP3   OH238498   4.507   2.131  17.969 -0.3538 -0.2048  0.4699
 4768TIP3    H138499   4.550   2.109  17.886 -0.3133 -0.8234  0.6513
 4768TIP3    H238500   4.444   2.199  17.945  2.7680  2.9909  0.6969
 4769TIP3   OH238501   3.146   2.347  18.573  0.3293  0.1305 -0.3873
 4769TIP3    H138502   3.074   2.298  18.611  2.1573 -0.7299  2.2688
 4769TIP3    H238503   3.130   2.438  18.600  1.1935 -0.3505  2.0529
 4770TIP3   OH238504   6.489   3.548  17.723  0.5331 -0.1915 -0.4873
 4770TIP3    H138505   6.544   3.474  17.700 -2.4360 -1.6264 -3.8066
 4770TIP3    H238506   6.494   3.606  17.647 -1.5779  0.1408 -0.4315
 4771TIP3   OH238507   6.317   0.462  18.520 -0.7169 -0.0413  0.1367
 4771TIP3    H138508   6.256   0.466  18.446  2.1947 -1.5726 -2.6398
 4771TIP3    H238509   6.279   0.397  18.579 -1.8780 -0.7806 -1.3584
 4772TIP3   OH238510   7.309   2.294  18.308 -0.1647 -0.0089  0.1046
 4772TIP3    H138511   7.246   2.296  18.235  0.4705  1.6031 -0.4513
 4772TIP3    H238512   7.284   2.369  18.363  2.1320  1.6496 -0.9509
 4773TIP3   OH238513   5.203   6.252  16.701  0.6228  0.9415 -0.1204
 4773TIP3    H138514   5.136   6.295  16.754 -1.0160 -0.5437 -0.8823
 4773TIP3    H238515   5.208   6.163  16.736 -0.2661  0.0198 -2.1380
 4774TIP3   OH238516   3.398   6.390  17.981  0.0307  0.8724 -0.3605
 4774TIP3    H138517   3.350   6.404  17.899 -0.8825  0.7434  0.1309
 4774TIP3    H238518   3.429   6.300  17.975 -0.0001  0.8753 -0.5810
 4775TIP3   OH238519   2.322   2.013  17.676 -0.4800 -0.5416 -0.2084
 4775TIP3    H138520   2.385   2.015  17.604  0.5955 -0.6687  0.6937
 4775TIP3    H238521   2.317   2.104  17.705  0.4511 -0.7485  0.6672
 4776TIP3   OH238522   6.391   5.523  18.945 -0.2940 -0.7847 -0.0327
 4776TIP3    H138523   6.414   5.470  18.869  0.6533  0.2412 -0.4964
 4776TIP3    H238524   6.375   5.460  19.015  1.8832 -1.6724 -0.2609
 4777TIP3   OH238525   2.743   6.420  17.780 -0.2332 -0.6969 -0.3014
 4777TIP3    H138526   2.717   6.438  17.870 -0.5258 -0.1247 -0.4912
 4777TIP3    H238527   2.693   6.483  17.728  2.6274  1.5547 -0.5712
 4778TIP3   OH238528   1.763   4.085  18.013 -0.4964 -0.1498  0.1873
 4778TIP3    H138529   1.678   4.108  18.052 -1.5147 -1.5405 -1.0594
 4778TIP3    H238530   1.752   4.102  17.920  0.6431 -0.2387  0.0236
 4779TIP3   OH238531   1.318   3.156  17.850  0.2815  0.7246  0.0507
 4779TIP3    H138532   1.366   3.105  17.784  0.3835  1.3340 -0.3532
 4779TIP3    H238533   1.249   3.200  17.801 -2.1601 -1.8181  0.9074
 4780TIP3   OH238534   2.663   5.132  18.665  0.1118 -0.2465 -0.1987
 4780TIP3    H138535   2.613   5.062  18.623  0.2920 -0.8066  0.5026
 4780TIP3    H238536   2.701   5.181  18.592 -1.9842  0.6161 -0.7876
 4781TIP3   OH238537   1.051   3.255  17.449 -0.1927 -0.2665  0.4854
 4781TIP3    H138538   1.031   3.275  17.357 -0.9076  0.2167  0.7286
 4781TIP3    H238539   1.129   3.200  17.446  0.3988  0.5820 -0.3634
 4782TIP3   OH238540   3.907   1.149  18.678 -0.1804 -0.0122  0.6902
 4782TIP3    H138541   3.838   1.124  18.739 -0.0612  1.1903  1.3582
 4782TIP3    H238542   3.945   1.228  18.717  1.0659 -0.2202 -0.0549
 4783TIP3   OH238543   6.374   6.770  17.383 -0.3115  0.3398 -0.2702
 4783TIP3    H138544   6.420   6.687  17.377  0.2786  0.6233  0.2649
 4783TIP3    H238545   6.292   6.756  17.334  0.1362 -0.2999 -0.8517
 4784TIP3   OH238546   0.211   5.791  18.695 -0.5009 -0.6357 -0.1364
 4784TIP3    H138547   0.278   5.858  18.683 -1.2432  0.6123  2.1999
 4784TIP3    H238548   0.226   5.729  18.623  3.4324 -0.6868  0.5035
 4785TIP3   OH238549   6.864   4.303  18.516 -0.5091  0.2820  0.2686
 4785TIP3    H138550   6.873   4.303  18.611 -0.3683  1.1685  0.2707
 4785TIP3    H238551   6.860   4.396  18.493  1.3721  0.1358 -0.7715
 4786TIP3   OH238552   7.505   6.231  18.091  0.0678 -0.0293 -0.2023
 4786TIP3    H138553   7.419   6.242  18.131  0.6304 -1.0558  1.3544
 4786TIP3    H238554   7.559   6.299  18.131 -0.0782  0.9311 -1.5305
 4787TIP3   OH238555   6.149   5.697  17.998 -0.5657  0.1325 -0.0188
 4787TIP3    H138556   6.083   5.702  17.928 -0.5934 -1.7743 -0.1894
 4787TIP3    H238557   6.112   5.635  18.061  0.5686 -0.0936  0.4412
 4788TIP3   OH238558   2.293   5.267  19.547 -0.1336  0.1013 -0.2843
 4788TIP3    H138559   2.360   5.200  19.532  0.4777  0.5169  0.5449
 4788TIP3    H238560   2.221   5.220  19.588  1.0372  0.2394  2.1071
 4789TIP3   OH238561   5.971   3.493  19.112  0.3700  0.3724  0.0113
 4789TIP3    H138562   5.977   3.584  19.143 -1.4970  1.4949 -2.5742
 4789TIP3    H238563   5.901   3.455  19.164  1.3609  0.2479  1.3192
 4790TIP3   OH238564   4.899   3.874  18.935 -0.2598  0.2575  0.5787
 4790TIP3    H138565   4.985   3.867  18.894 -0.2493 -0.2207  0.6836
 4790TIP3    H238566   4.851   3.797  18.905 -0.4612  0.2281  0.9720
 4791TIP3   OH238567   2.835   0.453  18.814 -0.0597 -0.2668  0.2209
 4791TIP3    H138568   2.772   0.460  18.742 -0.7637 -0.5907  0.7869
 4791TIP3    H238569   2.893   0.528  18.802  0.5535 -0.9471 -1.3320
 4792TIP3   OH238570   4.595   1.230  19.208 -0.2245  0.0736 -0.0942
 4792TIP3    H138571   4.599   1.319  19.244  1.6976 -0.6685  1.7479
 4792TIP3    H238572   4.512   1.195  19.238  0.6005  0.0591  2.3935
 4793TIP3   OH238573   2.604   3.157  18.866  0.1857  0.3335 -0.5625
 4793TIP3    H138574   2.625   3.118  18.950 -0.4245  0.5897 -0.2838
 4793TIP3    H238575   2.670   3.226  18.854 -1.0021  1.7595  0.7401
 4794TIP3   OH238576   6.294   1.147  18.005 -0.0886 -0.2305  0.2191
 4794TIP3    H138577   6.227   1.206  18.038 -1.3436 -0.9995 -0.8474
 4794TIP3    H238578   6.373   1.201  17.998 -0.6736  0.7888  1.1354
 4795TIP3   OH238579   6.146   1.271  17.721  0.6415  0.1116 -0.3126
 4795TIP3    H138580   6.233   1.232  17.715  1.1363  0.7825  1.7000
 4795TIP3    H238581   6.089   1.198  17.743  0.8907 -0.1388 -0.4904
 4796TIP3   OH238582   0.236   7.258  19.132 -0.6236  0.7494 -0.0642
 4796TIP3    H138583   0.263   7.346  19.154  0.9278  0.2536  0.1243
 4796TIP3    H238584   0.234   7.211  19.215 -0.7588  0.4284 -0.2435
 4797TIP3   OH238585   5.739   7.597  18.782 -0.5318  0.4341 -0.5765
 4797TIP3    H138586   5.752   7.644  18.864 -0.1361  0.5464 -0.7018
 4797TIP3    H238587   5.815   7.539  18.775 -1.0807 -0.3260 -0.3583
 4798TIP3   OH238588   0.074   3.812  18.747  0.0431 -0.6453 -0.0465
 4798TIP3    H138589   0.014   3.748  18.787  1.5221 -2.0343  0.0482
 4798TIP3    H238590   0.017   3.881  18.715 -1.8207 -2.7901 -1.6681
 4799TIP3   OH238591   3.143   7.038  18.614 -0.0402 -0.0116  0.7435
 4799TIP3    H138592   3.079   7.007  18.679 -0.3278 -1.8296 -0.3158
 4799TIP3    H238593   3.212   6.972  18.615  0.8484  0.8867  0.4484
 4800TIP3   OH238594   3.790   6.781  18.618  0.6285  0.3291  0.1301
 4800TIP3    H138595   3.821   6.842  18.551  0.5080 -1.1821 -1.3447
 4800TIP3    H238596   3.744   6.713  18.570  0.5984 -0.8512  1.7474
 4801TIP3   OH238597   7.140   6.872  17.925  0.2101 -0.3227  0.2747
 4801TIP3    H138598   7.074   6.813  17.960 -1.7654  0.6350 -1.5710
 4801TIP3    H238599   7.137   6.858  17.830  1.4672  0.9388  0.0053
 4802TIP3   OH238600   6.502   5.742  18.678  0.6068 -0.1312  0.0478
 4802TIP3    H138601   6.549   5.769  18.599 -2.5166  1.2292 -1.5131
 4802TIP3    H238602   6.421   5.703  18.645  0.2105 -1.6184  2.5855
 4803TIP3   OH238603   5.660   6.840  17.544  0.5267  0.3549  0.1596
 4803TIP3    H138604   5.675   6.748  17.521  1.6782  0.2646  1.2069
 4803TIP3    H238605   5.667   6.887  17.460 -2.3583 -0.7101 -0.7876
 4804TIP3   OH238606   5.011   6.748  19.547  0.2752  0.0336  0.4199
 4804TIP3    H138607   5.063   6.668  19.535  0.6112  0.1143  1.3105
 4804TIP3    H238608   4.928   6.728  19.503  1.4804  0.3973 -2.1973
 4805TIP3   OH238609   6.549   5.356  17.739 -0.7525  0.4195  0.2443
 4805TIP3    H138610   6.571   5.430  17.796 -0.9450  1.0134 -0.4386
 4805TIP3    H238611   6.527   5.285  17.799 -3.0522  1.6330  0.9454
 4806TIP3   OH238612   6.359   5.802  19.497 -0.1488  0.5528  0.4156
 4806TIP3    H138613   6.329   5.813  19.407 -1.5223  1.2517  0.9388
 4806TIP3    H238614   6.394   5.887  19.521  1.5303 -0.0105  0.1130
 4807TIP3   OH238615   2.370   0.211  18.125 -0.4170  0.1656  0.0595
 4807TIP3    H138616   2.362   0.303  18.152  0.8755 -0.3098  2.3815
 4807TIP3    H238617   2.365   0.162  18.207  1.8461 -1.6162 -0.7700
 4808TIP3   OH238618   7.407   3.271  16.696 -0.3612 -0.1163 -0.2314
 4808TIP3    H138619   7.360   3.268  16.613  0.2011 -0.7192 -0.5420
 4808TIP3    H238620   7.459   3.352  16.691 -0.3409 -0.1432 -0.4660
 4809TIP3   OH238621   4.947   0.216  17.013 -0.4202 -0.0418  0.0812
 4809TIP3    H138622   4.924   0.143  16.956  1.0987  0.3647 -1.1267
 4809TIP3    H238623   5.020   0.184  17.066  1.6263  1.1287 -1.8651
 4810TIP3   OH238624   5.654   2.173  19.802  0.3685 -0.0728 -0.0915
 4810TIP3    H138625   5.613   2.098  19.758  0.7930  0.8646 -2.1988
 4810TIP3    H238626   5.621   2.169  19.891 -0.1060 -2.4168 -0.2939
 4811TIP3   OH238627   7.415   7.567  18.215 -0.1271 -0.6836 -0.0331
 4811TIP3    H138628   7.478   7.576  18.143  0.2107  0.0656  0.3512
 4811TIP3    H238629   7.381   7.478  18.205  1.3412 -1.2779  0.0356
 4812TIP3   OH238630   2.205   7.470  18.372 -0.0130 -0.7209  1.0390
 4812TIP3    H138631   2.166   7.556  18.389  1.6178  0.3879 -0.4220
 4812TIP3    H238632   2.262   7.455  18.447  0.4892  0.0025  0.8173
 4813TIP3   OH238633   1.573   4.087  18.277 -1.1654  0.4486 -0.1195
 4813TIP3    H138634   1.534   4.065  18.192 -1.6945 -0.2658  0.2911
 4813TIP3    H238635   1.601   4.003  18.313 -1.7015  0.6352  0.7682
 4814TIP3   OH238636   5.923   0.862  19.178  0.9428 -0.4275  0.0055
 4814TIP3    H138637   5.995   0.921  19.201 -0.3782  1.6298 -0.8358
 4814TIP3    H238638   5.964   0.793  19.126  2.2094  1.3409 -1.4848
 4815TIP3   OH238639   0.538   3.372  19.219  0.1580  0.3534  0.0068
 4815TIP3    H138640   0.573   3.330  19.140 -0.7251  1.5953 -1.0760
 4815TIP3    H238641   0.502   3.455  19.189  0.7212  1.3603  1.8894
 4816TIP3   OH238642   6.134   3.930  17.908 -0.6385 -0.7286  0.5865
 4816TIP3    H138643   6.206   3.941  17.844 -1.5860 -0.9376 -0.5534
 4816TIP3    H238644   6.171   3.960  17.991  0.9269 -1.2760  0.1247
 4817TIP3   OH238645   5.166   6.829  17.524  0.3605  0.1228  0.1333
 4817TIP3    H138646   5.107   6.760  17.494 -1.4147  0.6586  2.1262
 4817TIP3    H238647   5.197   6.798  17.609 -1.6730  2.3301  1.7992
 4818TIP3   OH238648   0.219   2.852  17.968 -0.0302  0.0526 -0.5760
 4818TIP3    H138649   0.165   2.773  17.965  0.2013 -0.2253  1.3434
 4818TIP3    H238650   0.242   2.861  18.060  1.2815  1.4750 -1.0166
 4819TIP3   OH238651   6.979   3.806  17.715  0.4151 -0.0556 -0.8121
 4819TIP3    H138652   7.045   3.873  17.700  0.2382  0.0919 -0.9374
 4819TIP3    H238653   7.002   3.736  17.654 -0.3111  0.5478 -1.8238
 4820TIP3   OH238654   2.173   3.489  19.248 -0.5978 -0.0654  0.0096
 4820TIP3    H138655   2.187   3.394  19.251 -0.0909  0.0131  0.5233
 4820TIP3    H238656   2.080   3.500  19.229 -0.2684 -0.6454 -2.1616
 4821TIP3   OH238657   2.623   1.534  18.051 -0.2975  0.0023 -0.2627
 4821TIP3    H138658   2.554   1.472  18.078 -0.8987  0.4110 -0.8432
 4821TIP3    H238659   2.628   1.596  18.124 -0.8376  0.2057 -0.3886
 4822TIP3   OH238660   3.055   3.087  18.637 -0.0874  0.2501  0.0863
 4822TIP3    H138661   3.100   3.034  18.703  1.4321 -0.7814 -1.7031
 4822TIP3    H238662   2.962   3.067  18.651  0.1000  0.6209  2.3307
 4823TIP3   OH238663   6.484   2.241  17.418  0.2501  0.1329  0.0791
 4823TIP3    H138664   6.403   2.292  17.407  0.4067  0.2791 -0.3979
 4823TIP3    H238665   6.474   2.199  17.503 -0.7181 -0.5548 -0.3610
 4824TIP3   OH238666   5.506   3.444  17.838  0.3198 -0.1667  0.0285
 4824TIP3    H138667   5.551   3.507  17.782  1.6665 -0.9101  0.2350
 4824TIP3    H238668   5.543   3.359  17.814 -0.9491 -0.8046  0.2502
 4825TIP3   OH238669   3.831   0.763  16.642  0.0252  0.3093 -0.2267
 4825TIP3    H138670   3.806   0.821  16.714  0.4840 -0.3645  0.4993
 4825TIP3    H238671   3.834   0.819  16.565  2.0987  1.6473  0.7408
 4826TIP3   OH238672   2.813   1.208  18.152 -0.8245 -0.2145 -0.2398
 4826TIP3    H138673   2.889   1.266  18.158 -1.4474  0.5775  0.2866
 4826TIP3    H238674   2.845   1.131  18.105  0.2770  0.1333 -0.0967
 4827TIP3   OH238675   0.179   3.813  19.256 -0.0859  0.1437 -0.0693
 4827TIP3    H138676   0.196   3.749  19.325  1.4071  0.2445 -0.3207
 4827TIP3    H238677   0.114   3.771  19.200  0.0308 -0.6919  0.3989
 4828TIP3   OH238678   3.569   3.508  19.246 -0.6670 -0.0895 -0.5414
 4828TIP3    H138679   3.484   3.551  19.252 -0.1771  0.6402  3.0672
 4828TIP3    H238680   3.621   3.567  19.192 -1.3859  1.4698  0.4058
 4829TIP3   OH238681   7.480   4.552  17.684  0.2809 -0.0958 -0.5957
 4829TIP3    H138682   7.490   4.595  17.599  0.2289 -0.6270 -0.8706
 4829TIP3    H238683   7.504   4.461  17.669 -0.7432 -0.4339 -0.2889
 4830TIP3   OH238684   4.150   4.138  17.238 -0.0313  0.1252  0.0277
 4830TIP3    H138685   4.138   4.140  17.143  1.0093 -1.4696 -0.1989
 4830TIP3    H238686   4.202   4.058  17.253 -0.7378 -0.0147  2.0013
 4831TIP3   OH238687   6.380   2.764  18.972 -0.2693 -0.0477 -0.5644
 4831TIP3    H138688   6.342   2.680  18.948 -0.2097 -0.1544 -0.2997
 4831TIP3    H238689   6.401   2.807  18.889 -2.1508  0.5757 -0.7618
 4832TIP3   OH238690   1.587   7.261  16.505  0.6278  0.6242 -0.1504
 4832TIP3    H138691   1.585   7.308  16.422 -2.5901 -0.1266 -0.6064
 4832TIP3    H238692   1.515   7.298  16.556  0.6838 -0.9287  1.1366
 4833TIP3   OH238693   4.535   4.473  18.070 -0.3474  0.1167 -0.0235
 4833TIP3    H138694   4.588   4.488  17.992 -1.2328  1.6946 -0.3511
 4833TIP3    H238695   4.445   4.483  18.040 -0.9227 -2.7093  0.4836
 4834TIP3   OH238696   6.980   4.945  17.518 -0.4727 -0.4098 -0.3063
 4834TIP3    H138697   7.066   4.903  17.523  0.5633  1.6843  0.5182
 4834TIP3    H238698   6.924   4.892  17.575  0.4355 -1.3715 -0.2711
 4835TIP3   OH238699   1.376   3.737  19.512 -0.3167  0.4201 -0.2017
 4835TIP3    H138700   1.304   3.722  19.573 -0.3867  0.8958 -0.1637
 4835TIP3    H238701   1.355   3.821  19.470  0.0472  0.4014 -0.4259
 4836TIP3   OH238702   6.629   4.593  18.028 -0.7384 -0.4019  0.3735
 4836TIP3    H138703   6.719   4.585  17.998 -1.3827  0.3910 -2.0194
 4836TIP3    H238704   6.630   4.665  18.091  0.1418  0.2872 -0.4075
 4837TIP3   OH238705   0.688   2.847  19.291 -0.3498 -0.4190  0.5298
 4837TIP3    H138706   0.602   2.869  19.326 -0.8177  0.0520 -0.8471
 4837TIP3    H238707   0.688   2.752  19.286 -0.8684 -0.4148  0.3656
 4838TIP3   OH238708   3.184   2.673  18.029  0.7335  0.1217 -0.9264
 4838TIP3    H138709   3.206   2.580  18.040 -2.0224 -0.6078 -0.7005
 4838TIP3    H238710   3.138   2.677  17.945  2.1592  1.6113 -1.6869
 4839TIP3   OH238711   2.050   6.109  17.566  0.6576  0.0118 -0.5484
 4839TIP3    H138712   2.145   6.100  17.567  0.5925 -0.8770 -1.4910
 4839TIP3    H238713   2.022   6.083  17.654  1.1534 -1.3760 -0.7858
 4840TIP3   OH238714   6.171   4.765  17.428  0.2272 -0.1582  1.0468
 4840TIP3    H138715   6.146   4.787  17.518  1.7243 -2.2708  2.0498
 4840TIP3    H238716   6.122   4.684  17.410  1.1298 -0.6053  0.5698
 4841TIP3   OH238717   5.305   4.328  17.083  0.1054 -0.4173  0.2651
 4841TIP3    H138718   5.298   4.407  17.136 -0.3267 -0.4779  0.3010
 4841TIP3    H238719   5.241   4.340  17.013 -0.0529 -0.7920  0.3438
 4842TIP3   OH238720   5.707   0.725  18.106 -0.3356 -0.3745 -0.3869
 4842TIP3    H138721   5.627   0.774  18.086  0.3057  0.7777 -0.2543
 4842TIP3    H238722   5.685   0.634  18.087 -2.1007 -0.2756  0.9529
 4843TIP3   OH238723   1.376   7.388  16.611 -0.5843 -0.3061  0.1104
 4843TIP3    H138724   1.385   7.480  16.585  1.2999 -0.3773  0.3261
 4843TIP3    H238725   1.322   7.390  16.689 -0.7898  0.5903 -0.0390
 4844TIP3   OH238726   1.082   5.438  17.779  0.6530  0.1509 -0.0640
 4844TIP3    H138727   1.092   5.344  17.794 -0.5384 -0.1164 -0.7704
 4844TIP3    H238728   1.160   5.463  17.729  0.7434 -0.5728 -0.2920
 4845TIP3   OH238729   0.712   4.512  17.275 -0.0845 -0.3616 -0.5413
 4845TIP3    H138730   0.697   4.453  17.201 -0.5509 -0.8546 -0.0631
 4845TIP3    H238731   0.625   4.549  17.294  0.5128  2.0450 -2.1038
 4846TIP3   OH238732   6.519   0.397  18.348  0.2887 -0.0933  0.5012
 4846TIP3    H138733   6.461   0.413  18.422  0.4298  0.8974  0.4104
 4846TIP3    H238734   6.604   0.430  18.377  0.3602  0.2399 -0.0732
 4847TIP3   OH238735   4.886   4.330  17.492 -0.1969  0.3583  0.8477
 4847TIP3    H138736   4.930   4.255  17.452 -1.1911 -0.2625  0.8667
 4847TIP3    H238737   4.927   4.407  17.452  0.8474 -0.1948  0.8334
 4848TIP3   OH238738   7.287   4.026  19.750 -0.3894 -0.3210  0.2661
 4848TIP3    H138739   7.288   4.036  19.655  1.2206  0.1091  0.3053
 4848TIP3    H238740   7.287   3.931  19.764 -1.7365 -0.4039 -0.1398
 4849TIP3   OH238741   6.968   3.704  18.250  1.1780 -0.1810 -0.6331
 4849TIP3    H138742   6.881   3.738  18.228  0.8464 -1.7590 -2.0502
 4849TIP3    H238743   7.012   3.776  18.296 -0.5062  1.0057 -0.7846
 4850TIP3   OH238744   3.560   1.702  18.869  0.0234  0.1158  0.0789
 4850TIP3    H138745   3.524   1.649  18.799  1.9209 -1.0345 -0.1055
 4850TIP3    H238746   3.529   1.791  18.851 -1.6685 -0.5843 -0.6735
 4851TIP3   OH238747   7.150   5.639  17.861  0.1237  0.2934 -0.5371
 4851TIP3    H138748   7.230   5.652  17.912  0.1856 -0.9039 -0.2997
 4851TIP3    H238749   7.082   5.626  17.928  0.1799 -1.1496 -0.7348
 4852TIP3   OH238750   1.362   5.954  17.517  0.6668 -0.6566  0.0576
 4852TIP3    H138751   1.320   5.918  17.594  1.6427 -3.5410 -0.6496
 4852TIP3    H238752   1.442   5.902  17.506  0.9349  0.1382 -2.4659
 4853TIP3   OH238753   6.377   4.350  16.226 -0.0213 -0.1046 -0.2192
 4853TIP3    H138754   6.447   4.290  16.252  0.8125  0.9962  0.1685
 4853TIP3    H238755   6.324   4.362  16.304  0.9662  1.1675  0.2945
 4854TIP3   OH238756   2.824   3.535  17.564 -0.1663 -0.1286 -0.1659
 4854TIP3    H138757   2.809   3.440  17.558  0.3781 -0.2337  0.0555
 4854TIP3    H238758   2.757   3.573  17.507 -0.3546 -0.6484 -0.3028
 4855TIP3   OH238759   1.869   0.874  17.538  0.4106 -0.0205 -0.1840
 4855TIP3    H138760   1.950   0.924  17.544  0.4986 -0.2440  0.7735
 4855TIP3    H238761   1.830   0.900  17.455  0.4813  1.5966  0.2628
 4856TIP3   OH238762   7.494   2.215  17.755 -0.8742  0.4607 -0.7562
 4856TIP3    H138763   7.513   2.155  17.683 -2.2250  0.1683 -0.8894
 4856TIP3    H238764   7.434   2.166  17.812  0.5610  0.4815  0.8730
 4857TIP3   OH238765   2.511   6.420  17.329 -0.2359 -0.3128 -0.4710
 4857TIP3    H138766   2.526   6.329  17.352  0.2179 -0.2703 -0.5878
 4857TIP3    H238767   2.570   6.437  17.256 -0.1368  0.1395 -0.2892
 4858TIP3   OH238768   7.165   3.581  18.931 -0.1893  0.0874 -0.1280
 4858TIP3    H138769   7.141   3.499  18.886  1.4238 -0.5152  0.0200
 4858TIP3    H238770   7.170   3.557  19.023 -0.2062  0.4808 -0.0227
 4859TIP3   OH238771   5.242   1.761  18.262 -0.1375 -0.5483  0.5116
 4859TIP3    H138772   5.152   1.740  18.286  0.0553  0.3264  2.1542
 4859TIP3    H238773   5.290   1.679  18.273 -0.1668 -0.3283  2.7952
 4860TIP3   OH238774   1.177   0.503  18.761  0.6605 -0.4588 -0.0458
 4860TIP3    H138775   1.131   0.586  18.778  0.2092 -0.8050  0.4659
 4860TIP3    H238776   1.251   0.504  18.822  0.4760 -0.5735  0.1800
 4861TIP3   OH238777   1.534   7.227  17.222  0.5347 -0.0102 -0.7339
 4861TIP3    H138778   1.615   7.278  17.232 -0.2985  2.1079 -3.5047
 4861TIP3    H238779   1.560   7.150  17.172  1.3140 -1.0356  1.1317
 4862TIP3   OH238780   6.899   0.026  19.031  0.0932 -0.1787  0.0556
 4862TIP3    H138781   6.893  -0.065  19.059 -0.5853 -0.0027  0.5204
 4862TIP3    H238782   6.890   0.023  18.936 -2.4003 -0.4362  0.2159
 4863TIP3   OH238783   3.485   5.883  18.363 -0.3063  0.1519 -0.7827
 4863TIP3    H138784   3.401   5.896  18.319  0.0883  1.2889 -1.2133
 4863TIP3    H238785   3.501   5.964  18.409 -1.7108 -1.6478  3.3297
 4864TIP3   OH238786   0.592   6.154  18.358  0.1136  0.1625  0.7809
 4864TIP3    H138787   0.528   6.169  18.427  0.0064 -1.0280  0.9684
 4864TIP3    H238788   0.556   6.081  18.307  1.4331 -0.7413  1.0700
 4865TIP3   OH238789   4.046   3.507  18.101  0.0778 -0.6090 -0.1366
 4865TIP3    H138790   4.084   3.594  18.116  0.1289 -0.7248  0.4262
 4865TIP3    H238791   4.119   3.455  18.069 -0.3238 -0.0146 -2.1755
 4866TIP3   OH238792   1.857   6.000  18.653 -0.8295  0.1661  0.2114
 4866TIP3    H138793   1.813   6.084  18.663 -2.2252 -0.3606 -1.1863
 4866TIP3    H238794   1.949   6.023  18.640 -1.4529  1.6640 -2.2673
 4867TIP3   OH238795   4.671   1.769  17.848 -0.0331  0.5569  0.1037
 4867TIP3    H138796   4.628   1.786  17.764 -0.8901 -0.3072  0.3516
 4867TIP3    H238797   4.742   1.833  17.852 -1.7077  2.5121 -0.0246
 4868TIP3   OH238798   2.609   7.118  18.151  0.0175  0.5108  0.1760
 4868TIP3    H138799   2.537   7.056  18.167 -0.5131  0.7476 -1.1894
 4868TIP3    H238800   2.685   7.077  18.192 -0.5598 -0.5202  0.2501
 4869TIP3   OH238801   1.933   0.891  19.534 -0.0837 -0.3709 -0.1695
 4869TIP3    H138802   1.854   0.931  19.571 -0.4229  1.0775 -2.2783
 4869TIP3    H238803   1.914   0.797  19.534 -0.5826 -0.3368  1.9816
 4870TIP3   OH238804   5.971   4.004  18.294  0.3974 -0.1993 -0.0359
 4870TIP3    H138805   6.020   3.955  18.361  0.7223  0.1203 -0.0357
 4870TIP3    H238806   5.932   3.937  18.239 -1.1122 -0.5088  1.3452
 4871TIP3   OH238807   2.021   1.423  17.155 -0.3416 -0.3618  0.4600
 4871TIP3    H138808   2.017   1.434  17.060  0.1120  1.6415  0.6388
 4871TIP3    H238809   2.109   1.389  17.171 -0.4158 -0.6967  0.1783
 4872TIP3   OH238810   5.751   7.354  18.455 -0.4189  0.6875  0.1390
 4872TIP3    H138811   5.773   7.408  18.379  2.6185  0.7569  0.9231
 4872TIP3    H238812   5.683   7.404  18.501 -3.2550  0.0752 -3.0115
 4873TIP3   OH238813   7.329   2.181  18.799  0.0500 -0.1287 -0.1265
 4873TIP3    H138814   7.362   2.267  18.772  2.1424 -0.3650  1.4299
 4873TIP3    H238815   7.310   2.191  18.892 -2.7390 -0.5472 -0.5768
 4874TIP3   OH238816   3.387   6.883  18.595  0.6042 -0.3385  0.2873
 4874TIP3    H138817   3.406   6.807  18.650 -1.5212 -0.7324  0.5528
 4874TIP3    H238818   3.433   6.955  18.638  2.5413 -1.4078  0.1138
 4875TIP3   OH238819   5.858   4.938  18.007  0.4005  0.1459 -0.3724
 4875TIP3    H138820   5.787   4.888  18.049 -0.6095  2.3910  0.7880
 4875TIP3    H238821   5.888   4.997  18.076  2.2230  0.4722 -1.4012
 4876TIP3   OH238822   1.788   5.909  17.627 -0.5658 -0.5044 -0.0356
 4876TIP3    H138823   1.825   5.960  17.698 -0.3281  0.9360 -1.1504
 4876TIP3    H238824   1.862   5.891  17.569 -0.8870 -1.0492 -0.2910
 4877TIP3   OH238825   6.696   6.171  17.892  0.0560  0.1408  0.0679
 4877TIP3    H138826   6.603   6.155  17.874 -0.3917 -0.0007  2.1450
 4877TIP3    H238827   6.696   6.252  17.943  0.8199 -0.9244  1.8456
 4878TIP3   OH238828   4.384   7.096  18.790 -0.1126  0.1734  0.2254
 4878TIP3    H138829   4.470   7.088  18.749 -0.0668 -0.2204  0.3985
 4878TIP3    H238830   4.388   7.181  18.835  0.9475 -0.7434  1.9831
 4879TIP3   OH238831   6.111   4.172  17.218  0.7260 -0.2981 -0.5767
 4879TIP3    H138832   6.025   4.201  17.188  1.5236  0.4361 -2.2783
 4879TIP3    H238833   6.092   4.112  17.290 -1.1976 -0.1324 -0.8911
 4880TIP3   OH238834   4.108   4.118  19.600 -0.5965  0.5111  0.8968
 4880TIP3    H138835   4.188   4.093  19.553 -0.6838  2.1145 -0.2199
 4880TIP3    H238836   4.059   4.037  19.609  1.3825 -0.6308  2.1305
 4881TIP3   OH238837   0.210   2.475  17.020  0.3357 -0.8832  0.4317
 4881TIP3    H138838   0.204   2.516  17.107  0.8358  0.1047  0.0160
 4881TIP3    H238839   0.282   2.521  16.977 -0.0571 -1.2108 -0.5970
 4882TIP3   OH238840   0.619   5.485  17.936  0.0499 -0.5474 -0.1930
 4882TIP3    H138841   0.558   5.523  17.873  0.1368 -1.0771 -0.6034
 4882TIP3    H238842   0.612   5.542  18.013  0.8248  0.8248 -1.0902
 4883TIP3   OH238843   3.785   1.435  19.236  0.2457  0.3937  0.1801
 4883TIP3    H138844   3.764   1.496  19.165  0.4653 -0.5554 -0.7294
 4883TIP3    H238845   3.843   1.484  19.294 -2.7628  2.4465  1.7279
 4884TIP3   OH238846   3.017   5.811  18.311 -0.5170 -0.3463 -0.0164
 4884TIP3    H138847   2.983   5.887  18.264 -2.3908 -0.1945  1.4441
 4884TIP3    H238848   3.044   5.750  18.243 -0.8910  0.8051 -1.2319
 4885TIP3   OH238849   4.753   0.206  17.565 -0.6120 -0.0588 -0.3858
 4885TIP3    H138850   4.720   0.203  17.655  0.3668  1.3596  0.0489
 4885TIP3    H238851   4.694   0.266  17.520  0.4217  1.3119  0.0159
 4886TIP3   OH238852   1.168   1.592  18.292  0.0601  0.5331  0.1815
 4886TIP3    H138853   1.147   1.603  18.385  1.0277 -0.6287  0.5660
 4886TIP3    H238854   1.093   1.545  18.256 -0.3371  1.0198  0.3526
 4887TIP3   OH238855   6.946   3.774  18.896 -0.2399  1.0007  0.0875
 4887TIP3    H138856   6.975   3.816  18.977  0.6731 -1.6156  1.2251
 4887TIP3    H238857   7.013   3.708  18.878 -1.6327 -0.0656 -1.5006
 4888TIP3   OH238858   0.903   1.331  17.743 -0.2546  0.4923 -0.6164
 4888TIP3    H138859   0.826   1.298  17.698 -0.5274 -0.6992  0.6267
 4888TIP3    H238860   0.976   1.279  17.709 -0.5291 -0.7450  0.5710
 4889TIP3   OH238861   2.283   1.444  17.248 -0.6059  0.0481 -0.2726
 4889TIP3    H138862   2.300   1.452  17.342 -1.6031 -1.9297  0.1204
 4889TIP3    H238863   2.300   1.532  17.214 -2.2043  1.3840  2.0622
 4890TIP3   OH238864   2.505   3.412  18.331  0.0069 -0.3561  0.0013
 4890TIP3    H138865   2.492   3.504  18.356 -1.0748 -0.0183 -1.6965
 4890TIP3    H238866   2.511   3.366  18.415 -0.1775  1.1502  0.8877
 4891TIP3   OH238867   1.108   4.837  17.674  0.1171  0.1896 -0.0328
 4891TIP3    H138868   1.162   4.761  17.656 -0.6458 -0.0031 -1.6744
 4891TIP3    H238869   1.166   4.898  17.720  0.8956 -1.1169  0.7907
 4892TIP3   OH238870   7.650   6.932  17.572  0.7501 -0.6133 -0.4324
 4892TIP3    H138871   7.587   6.913  17.504 -1.1742  0.1688  1.0411
 4892TIP3    H238872   7.632   6.869  17.641  0.4726  0.5860  0.6475
 4893TIP3   OH238873   5.227   2.806  19.293 -0.0008  0.0831 -0.0873
 4893TIP3    H138874   5.161   2.756  19.245 -0.6264  0.8184 -0.0113
 4893TIP3    H238875   5.177   2.872  19.341  0.8131  0.8140 -0.2247
 4894TIP3   OH238876   3.676   6.200  18.766 -0.1752  0.0676 -0.0356
 4894TIP3    H138877   3.604   6.211  18.829  1.7668  0.9829  2.1954
 4894TIP3    H238878   3.716   6.116  18.791 -1.4148 -1.3229 -2.3946
 4895TIP3   OH238879   0.686   3.850  17.307 -0.4858  0.1107  0.4773
 4895TIP3    H138880   0.745   3.867  17.234  0.2390  0.5567  1.1381
 4895TIP3    H238881   0.742   3.816  17.376 -1.2076 -0.6004  0.7261
 4896TIP3   OH238882   2.836   4.270  16.940 -0.1505 -0.0204  0.1353
 4896TIP3    H138883   2.798   4.347  16.982 -0.3931 -0.4514  0.7160
 4896TIP3    H238884   2.839   4.293  16.847 -1.5446  0.1479  0.1070
 4897TIP3   OH238885   3.601   4.723  18.685 -0.5090 -0.2366 -0.1588
 4897TIP3    H138886   3.674   4.758  18.634 -0.4801  0.5301  0.3977
 4897TIP3    H238887   3.630   4.636  18.711  0.9128  0.6506  1.4200
 4898TIP3   OH238888   5.547   0.089  19.356  0.2520 -0.0400 -0.0843
 4898TIP3    H138889   5.556   0.045  19.441 -2.5869 -0.4701  0.0829
 4898TIP3    H238890   5.624   0.060  19.306  1.0023 -1.2803  1.6756
 4899TIP3   OH238891   5.562   5.430  18.042 -0.2842 -0.0654  0.2107
 4899TIP3    H138892   5.553   5.508  18.097 -0.8866  0.6665 -0.8960
 4899TIP3    H238893   5.615   5.459  17.968 -0.4353 -0.7280 -0.1652
 4900TIP3   OH238894   5.758   2.119  18.516 -0.1189 -0.3275 -0.1620
 4900TIP3    H138895   5.673   2.164  18.509  0.2227  0.1081 -2.6707
 4900TIP3    H238896   5.747   2.040  18.461  0.8891 -0.6161  0.0341
 4901TIP3   OH238897   1.442   0.771  18.674 -0.4806  0.1976  0.2658
 4901TIP3    H138898   1.362   0.810  18.708 -1.8064 -1.4702 -0.8066
 4901TIP3    H238899   1.502   0.771  18.749 -1.4389  1.5350  1.0758
 4902TIP3   OH238900   4.091   6.224  19.006 -0.0654  0.3060  0.1481
 4902TIP3    H138901   4.113   6.317  19.010 -1.1477  0.7756 -2.6236
 4902TIP3    H238902   3.996   6.221  19.015 -0.3130 -0.2336 -2.0657
 4903TIP3   OH238903   3.676   7.331  17.538 -0.1856 -0.1446  0.0351
 4903TIP3    H138904   3.613   7.261  17.522  0.6871 -1.3832  1.7589
 4903TIP3    H238905   3.700   7.322  17.630  1.0283  1.5406 -0.0647
 4904TIP3   OH238906   6.770   0.933  18.958  0.1619  0.1440  0.0174
 4904TIP3    H138907   6.804   0.861  18.906  0.8562  0.1562  0.4418
 4904TIP3    H238908   6.816   1.010  18.927 -1.5101  0.6654 -1.3427
 4905TIP3   OH238909   6.030   4.271  16.584  0.3361 -0.0890 -0.0946
 4905TIP3    H138910   6.123   4.251  16.595  0.0375 -1.4946  0.1015
 4905TIP3    H238911   6.018   4.274  16.489  0.5666  0.0007 -0.1209
 4906TIP3   OH238912   1.105   1.262  17.586 -0.0154  0.0444 -0.2618
 4906TIP3    H138913   1.179   1.309  17.624 -0.9387  0.1797  1.4880
 4906TIP3    H238914   1.116   1.172  17.615 -1.1479  0.3029  1.0513
 4907TIP3   OH238915   0.859   6.567  17.037  0.2657 -0.0558 -0.4992
 4907TIP3    H138916   0.903   6.651  17.055  0.5135 -0.4754  0.9871
 4907TIP3    H238917   0.774   6.576  17.080  0.6402 -0.8796  0.4435
 4908TIP3   OH238918   3.394   5.485  17.199  0.3818  0.1557 -0.2448
 4908TIP3    H138919   3.446   5.564  17.181  0.6585 -0.2695 -1.4009
 4908TIP3    H238920   3.421   5.423  17.132  0.4314 -1.0661  0.8845
 4909TIP3   OH238921   0.771   2.045  19.261 -0.7268 -0.5004  0.0565
 4909TIP3    H138922   0.830   2.024  19.333  0.3883  1.2807 -0.2870
 4909TIP3    H238923   0.798   1.988  19.189 -1.4506 -1.8491  0.8008
 4910TIP3   OH238924   0.323   4.689  17.989  0.5562 -0.3085 -0.0985
 4910TIP3    H138925   0.366   4.603  17.985 -0.0723 -0.5868 -1.7768
 4910TIP3    H238926   0.235   4.673  17.955 -1.3739  0.0439  4.0723
 4911TIP3   OH238927   5.695   6.194  18.798 -0.0631 -0.6687 -0.1070
 4911TIP3    H138928   5.611   6.230  18.826  0.3309  1.2145 -1.1787
 4911TIP3    H238929   5.749   6.197  18.877 -0.7597 -1.1554  0.3980
 4912TIP3   OH238930   1.635   3.536  19.141 -0.0033  0.1393  0.0886
 4912TIP3    H138931   1.596   3.457  19.104  0.7109 -0.6011  0.8868
 4912TIP3    H238932   1.560   3.583  19.178 -0.4867  0.0483 -0.7278
 4913TIP3   OH238933   3.433   5.140  16.598 -0.3504  0.5938 -0.1630
 4913TIP3    H138934   3.460   5.192  16.673  0.1410  0.3352 -0.1525
 4913TIP3    H238935   3.512   5.135  16.543 -0.4765  0.1240 -0.3076
 4914TIP3   OH238936   5.766   1.648  19.765 -0.3414  0.5260  0.2138
 4914TIP3    H138937   5.808   1.733  19.775 -2.4818  1.5175  1.2947
 4914TIP3    H238938   5.685   1.666  19.718  0.0598 -1.2464 -1.2761
 4915TIP3   OH238939   1.601   5.828  17.466  0.1499  0.2477 -0.3987
 4915TIP3    H138940   1.669   5.860  17.525 -0.0566  2.0149 -1.0669
 4915TIP3    H238941   1.643   5.757  17.417  1.2669  0.8095 -0.2700
 4916TIP3   OH238942   0.038   5.958  17.441 -0.1575 -0.4026  0.6166
 4916TIP3    H138943   0.130   5.985  17.440 -0.2521 -0.0721 -0.4581
 4916TIP3    H238944  -0.010   6.038  17.423 -0.6022 -0.7756  0.1298
 4917TIP3   OH238945   5.869   4.258  18.266  0.0481 -0.3478  0.3043
 4917TIP3    H138946   5.908   4.172  18.255  1.8518  0.4251  0.3291
 4917TIP3    H238947   5.812   4.269  18.190 -0.4761 -1.6633  0.4758
 4918TIP3   OH238948   4.593   4.141  19.353  0.1874 -0.1898 -0.0109
 4918TIP3    H138949   4.632   4.176  19.272  0.0186 -0.8125 -0.3668
 4918TIP3    H238950   4.530   4.207  19.379 -1.6688 -1.1336 -1.8353
 4919TIP3   OH238951   3.957   6.203  17.536  0.0843  0.3437  0.0788
 4919TIP3    H138952   3.865   6.193  17.563 -0.0544  1.6358  0.1441
 4919TIP3    H238953   3.957   6.181  17.443  0.0779 -1.5540  0.4988
 4920TIP3   OH238954   6.941   4.018  19.660 -0.0649 -0.2798  0.2226
 4920TIP3    H138955   6.992   3.939  19.679 -0.3585 -0.4699  0.2281
 4920TIP3    H238956   6.995   4.090  19.691  0.5272 -0.4337 -0.4265
 4921TIP3   OH238957   3.506   5.611  18.255 -0.1614 -0.8194  0.2401
 4921TIP3    H138958   3.472   5.569  18.334  2.6603 -0.4128  1.8148
 4921TIP3    H238959   3.501   5.705  18.274 -1.9934 -0.5637 -1.2697
 4922TIP3   OH238960   5.184   7.438  17.902 -0.4478 -0.0800  0.2355
 4922TIP3    H138961   5.090   7.426  17.915 -0.6574  1.2617  0.0648
 4922TIP3    H238962   5.212   7.361  17.852 -1.6263 -0.0041 -0.5457
 4923TIP3   OH238963   2.558   3.288  17.047  0.0903  0.3726 -0.1389
 4923TIP3    H138964   2.645   3.313  17.077  0.6328 -0.7476 -0.7182
 4923TIP3    H238965   2.510   3.371  17.038  1.2856  1.0494 -0.3922
 4924TIP3   OH238966   3.804   5.662  18.519 -0.0442  0.4012  0.1806
 4924TIP3    H138967   3.897   5.675  18.538  0.6008 -2.4466 -0.6654
 4924TIP3    H238968   3.789   5.712  18.439  0.7818  0.7274  0.2137
 4925TIP3   OH238969   4.657   6.780  17.664  0.2511 -0.0548  0.7114
 4925TIP3    H138970   4.733   6.838  17.669  0.0151  0.9067 -3.2733
 4925TIP3    H238971   4.690   6.695  17.694  2.3556  0.7625  0.9185
 4926TIP3   OH238972   4.973   1.768  18.347  0.5927  0.2305  0.3638
 4926TIP3    H138973   4.906   1.701  18.358  0.6399  0.1700  0.2868
 4926TIP3    H238974   4.979   1.811  18.432  0.2293  0.4463  0.2828
 4927TIP3   OH238975   6.824   3.535  19.682  0.5356  0.0906 -0.7336
 4927TIP3    H138976   6.874   3.613  19.707  0.8366 -0.0710 -0.8290
 4927TIP3    H238977   6.750   3.569  19.632 -0.9569  0.5734  1.6429
 4928TIP3   OH238978   2.655   2.896  19.313 -0.3758 -0.4055 -0.7908
 4928TIP3    H138979   2.746   2.904  19.282 -0.3159  0.0878 -0.4917
 4928TIP3    H238980   2.652   2.810  19.355  0.4558  0.3252  0.8384
 4929TIP3   OH238981   6.346   3.213  19.175  0.0007 -0.2809 -0.1220
 4929TIP3    H138982   6.391   3.154  19.114 -0.4452 -0.0585 -0.6681
 4929TIP3    H238983   6.253   3.199  19.157 -0.1123  1.5365 -1.1903
 4930TIP3   OH238984   1.269   1.900  18.843 -0.4499 -0.3073 -0.4113
 4930TIP3    H138985   1.210   1.894  18.918  0.2307  2.3836  0.4721
 4930TIP3    H238986   1.268   1.813  18.804 -1.8686 -1.4329  1.9259
 4931TIP3   OH238987   2.823   1.688  19.014  0.6549  0.2000 -0.5435
 4931TIP3    H138988   2.824   1.669  19.108 -0.5972  1.4119 -0.2631
 4931TIP3    H238989   2.774   1.615  18.976  1.3994 -0.4420 -0.3239
 4932TIP3   OH238990   5.480   3.361  18.331  0.4052 -0.4394 -0.2223
 4932TIP3    H138991   5.430   3.396  18.404 -0.1261  0.7078 -1.0994
 4932TIP3    H238992   5.484   3.267  18.348 -1.3396 -0.4618  0.3256
 4933TIP3   OH238993   1.995   0.111  18.553 -0.6974  0.1403  0.1857
 4933TIP3    H138994   1.985   0.059  18.473 -0.5143 -0.2221  0.3942
 4933TIP3    H238995   1.911   0.154  18.564 -0.5603  0.6063 -0.4894
 4934TIP3   OH238996   4.221   2.171  18.449  0.3227  0.2973 -0.1611
 4934TIP3    H138997   4.201   2.236  18.381  0.5814  0.6001  0.0496
 4934TIP3    H238998   4.137   2.155  18.493 -0.1413 -0.8956 -1.3988
 4935TIP3   OH238999   2.924   4.578  18.467 -0.0311  0.3354 -0.6591
 4935TIP3    H139000   2.904   4.643  18.534  0.4425  0.6620 -0.8236
 4935TIP3    H239001   2.843   4.529  18.455 -0.4043  0.9244 -0.5639
 4936TIP3   OH239002   4.879   0.156  19.236  0.1497  0.3927  0.2036
 4936TIP3    H139003   4.960   0.139  19.186 -0.2889 -0.7733 -0.1386
 4936TIP3    H239004   4.909   0.174  19.325  0.9007  1.8285 -0.2928
 4937TIP3   OH239005   1.180   7.240  18.586  0.2027 -0.5564  0.1707
 4937TIP3    H139006   1.153   7.178  18.518 -1.2402  1.9639 -1.7550
 4937TIP3    H239007   1.259   7.281  18.550  0.6569 -0.6680  1.0245
 4938TIP3   OH239008   7.368   5.177  18.806  0.2911 -0.2543  0.6328
 4938TIP3    H139009   7.415   5.258  18.789 -0.0284 -0.1456  0.2422
 4938TIP3    H239010   7.379   5.161  18.900 -0.8408  1.0198  1.0181
 4939TIP3   OH239011   2.115   2.166  17.189  0.2707 -0.1482  0.4426
 4939TIP3    H139012   2.143   2.159  17.097 -0.7170  0.0593  0.1124
 4939TIP3    H239013   2.080   2.079  17.210  0.4578 -0.1830  0.6129
 4940TIP3   OH239014   4.603   2.319  17.044 -0.2678 -0.1516 -0.3817
 4940TIP3    H139015   4.511   2.306  17.068  0.3677 -2.7567  1.0581
 4940TIP3    H239016   4.622   2.409  17.071 -1.9747 -0.0902  0.8419
 4941TIP3   OH239017   7.183   0.929  18.228  0.1273  0.4357 -0.1429
 4941TIP3    H139018   7.194   0.944  18.322  0.1245 -1.2251  0.1659
 4941TIP3    H239019   7.267   0.956  18.189 -0.2440  2.1331  0.1632
 4942TIP3   OH239020   2.030   4.560  19.506 -0.2286  0.0846 -0.6155
 4942TIP3    H139021   2.098   4.508  19.463 -1.2079 -1.1350 -0.7245
 4942TIP3    H239022   1.966   4.577  19.438 -1.9489 -2.1203  0.3591
 4943TIP3   OH239023   6.792   7.063  17.797  0.0657 -0.2702  0.1844
 4943TIP3    H139024   6.762   7.127  17.862  1.8818  1.6253 -0.7383
 4943TIP3    H239025   6.800   6.981  17.846  0.3596  0.8584  2.1119
 4944TIP3   OH239026   4.905   0.660  19.360  0.0327  0.3694  0.5372
 4944TIP3    H139027   4.850   0.627  19.432  0.3873  1.0504  1.1425
 4944TIP3    H239028   4.856   0.735  19.326 -1.3376 -1.3826 -1.5982
 4945TIP3   OH239029   6.249   4.566  19.063 -0.6606 -0.3509  0.7393
 4945TIP3    H139030   6.210   4.479  19.068  0.9895 -1.1695  0.0566
 4945TIP3    H239031   6.289   4.569  18.976  1.5783  0.0520  1.7155
 4946TIP3   OH239032   5.910   3.213  17.972 -0.2530 -0.0145 -0.4063
 4946TIP3    H139033   5.963   3.230  18.050  2.8082 -1.3045 -2.0220
 4946TIP3    H239034   5.824   3.190  18.005  0.5637  0.7389  2.4917
 4947TIP3   OH239035   1.357   1.535  18.039  0.2177 -0.3248  0.4576
 4947TIP3    H139036   1.289   1.497  17.985  0.0805  0.5653 -0.0128
 4947TIP3    H239037   1.319   1.539  18.127 -0.4712  0.4518  0.1419
 4948TIP3   OH239038   5.896   5.799  18.827  0.0991  0.6299  0.1359
 4948TIP3    H139039   5.925   5.854  18.900 -0.8091  0.6838  0.4611
 4948TIP3    H239040   5.814   5.839  18.797 -1.4069 -1.3683  1.3521
 4949TIP3   OH239041   6.379   1.812  18.762  0.1300  0.4248  0.2372
 4949TIP3    H139042   6.366   1.721  18.734 -0.1217  0.6847 -0.5202
 4949TIP3    H239043   6.333   1.864  18.696 -1.2508  1.0386  1.6205
 4950TIP3   OH239044   2.885   5.467  18.187 -0.2793 -0.1263  0.6488
 4950TIP3    H139045   2.951   5.418  18.138 -0.1923  0.3472  0.2872
 4950TIP3    H239046   2.801   5.441  18.149 -0.2788 -0.4778  0.8858
 4951TIP3   OH239047   6.706   3.051  18.692  0.1870 -0.3527 -0.2202
 4951TIP3    H139048   6.697   3.000  18.772 -0.3977 -1.0769 -0.7291
 4951TIP3    H239049   6.697   3.142  18.720 -0.1527 -0.6056  0.5180
 4952TIP3   OH239050   2.409   2.285  17.207 -0.0634  0.0672 -0.3082
 4952TIP3    H139051   2.413   2.282  17.112 -0.5577  0.2820 -0.3372
 4952TIP3    H239052   2.355   2.209  17.232 -0.3142  0.2684 -0.2295
 4953TIP3   OH239053   5.559   1.806  17.512  0.4646  0.5926  0.3270
 4953TIP3    H139054   5.561   1.862  17.435  0.4907  0.7570  0.4440
 4953TIP3    H239055   5.483   1.836  17.562  0.3023  0.3230  0.2448
 4954TIP3   OH239056   7.325   1.275  17.239  0.1038 -0.2828  0.2041
 4954TIP3    H139057   7.266   1.255  17.166 -1.1058  1.2047  0.7308
 4954TIP3    H239058   7.365   1.190  17.260 -0.1009 -0.8913 -1.6604
 4955TIP3   OH239059   5.784   7.655  19.228  1.0846  0.5814  0.3236
 4955TIP3    H139060   5.844   7.683  19.159  1.5080 -0.9383  0.0304
 4955TIP3    H239061   5.826   7.578  19.266 -0.7813 -0.7011 -0.0775
 4956TIP3   OH239062   0.036   7.387  17.198 -0.1906 -0.0836  0.0346
 4956TIP3    H139063  -0.017   7.310  17.179 -1.5897  0.5253  1.3484
 4956TIP3    H239064   0.090   7.361  17.272 -0.4714  0.1082  0.3080
 4957TIP3   OH239065   7.392   3.493  18.341  0.4043  0.0678  0.1290
 4957TIP3    H139066   7.331   3.550  18.294 -0.8965 -1.8395 -0.5980
 4957TIP3    H239067   7.397   3.414  18.288  1.6075 -0.7995  1.4613
 4958TIP3   OH239068   7.562   4.171  16.796 -0.0922 -0.2228 -0.1252
 4958TIP3    H139069   7.566   4.186  16.702  0.5674 -1.0522 -0.2498
 4958TIP3    H239070   7.628   4.104  16.812  0.8176  0.9190  1.1455
 4959TIP3   OH239071   5.246   2.420  17.810  0.1352  0.5630 -0.5107
 4959TIP3    H139072   5.243   2.385  17.721 -0.5201 -0.7291 -0.0065
 4959TIP3    H239073   5.309   2.364  17.856  0.3217  1.0964 -0.1038
 4960TIP3   OH239074   6.237   1.845  18.220 -0.4461  0.1214  0.0376
 4960TIP3    H139075   6.321   1.846  18.267 -0.2338  0.9754 -0.3395
 4960TIP3    H239076   6.203   1.756  18.234 -0.2831  0.2735  1.5932
 4961TIP3   OH239077   6.428   1.185  17.672 -0.0372  0.2207 -0.1179
 4961TIP3    H139078   6.498   1.143  17.721 -0.1781  0.0458 -0.0657
 4961TIP3    H239079   6.391   1.116  17.617 -1.2231 -0.1033  1.0259
 4962TIP3   OH239080   1.334   2.221  18.072  0.5723 -0.8875 -0.9767
 4962TIP3    H139081   1.340   2.255  17.983 -0.0983  1.9130 -0.0645
 4962TIP3    H239082   1.399   2.271  18.122 -0.9490 -0.3717  0.6051
 4963TIP3   OH239083   0.285   5.243  18.294 -0.1525  0.0739 -0.3529
 4963TIP3    H139084   0.210   5.297  18.322  1.8180  3.0602 -0.4236
 4963TIP3    H239085   0.280   5.242  18.199 -1.7679 -2.4422 -0.3356
 4964TIP3   OH239086   3.007   3.258  17.674  0.1801 -0.0818 -0.5206
 4964TIP3    H139087   3.041   3.301  17.596 -0.5694 -0.5551 -1.1243
 4964TIP3    H239088   2.968   3.177  17.642 -0.3484 -0.1718  0.3147
 4965TIP3   OH239089   5.553   2.534  17.039  0.0479  0.0618  0.2341
 4965TIP3    H139090   5.587   2.570  16.957 -0.5942  1.7473  0.6781
 4965TIP3    H239091   5.462   2.512  17.020  0.2225 -0.6530  0.1855
 4966TIP3   OH239092   4.258   1.307  19.265  0.6161  0.1148 -0.4225
 4966TIP3    H139093   4.307   1.231  19.297 -0.7891 -0.8685 -0.5431
 4966TIP3    H239094   4.224   1.279  19.180  0.0993  0.8955 -0.4758
 4967TIP3   OH239095   2.594   6.002  18.879 -0.4703 -0.2253 -0.5042
 4967TIP3    H139096   2.605   6.095  18.901 -0.3563 -0.5378  0.7945
 4967TIP3    H239097   2.631   5.994  18.791  0.0356  0.8527 -0.4055
 4968TIP3   OH239098   1.333   2.677  16.982  0.2290 -0.2448  0.1499
 4968TIP3    H139099   1.358   2.696  16.892 -0.6099  1.6055  0.2517
 4968TIP3    H239100   1.239   2.696  16.985  0.7321  2.5529  2.0184
 4969TIP3   OH239101   6.453   5.988  17.202 -0.3365 -0.1251 -0.3633
 4969TIP3    H139102   6.449   6.084  17.202  0.8102 -0.0622 -0.3812
 4969TIP3    H239103   6.369   5.961  17.237 -0.2024  0.9228  0.8574
 4970TIP3   OH239104   4.432   3.700  19.017 -0.2357 -0.0977 -0.2369
 4970TIP3    H139105   4.368   3.675  19.084  1.7579  0.7435  2.1156
 4970TIP3    H239106   4.422   3.794  19.007  1.7701  0.3625  1.5241
 4971TIP3   OH239107   4.637   0.741  19.500 -0.2860 -0.7653 -0.2837
 4971TIP3    H139108   4.574   0.686  19.453 -0.9327  1.2795 -1.9294
 4971TIP3    H239109   4.675   0.797  19.432  1.9118 -0.6023  0.9957
 4972TIP3   OH239110   2.705   1.628  18.660  1.0519  0.4712 -0.0486
 4972TIP3    H139111   2.680   1.562  18.725  0.8214  0.2866 -0.3267
 4972TIP3    H239112   2.726   1.578  18.582 -0.8290  0.8058 -0.8259
 4973TIP3   OH239113   1.007   3.036  17.244 -0.1668 -0.0287 -0.0715
 4973TIP3    H139114   1.023   2.967  17.180 -0.5604 -0.8074  0.6407
 4973TIP3    H239115   1.091   3.050  17.287  1.1452  3.1804 -3.2203
 4974TIP3   OH239116   4.064   2.493  19.488 -0.0720  0.4682  0.7698
 4974TIP3    H139117   4.155   2.489  19.458 -0.5679  0.4863 -0.8566
 4974TIP3    H239118   4.058   2.576  19.535  0.3453  1.3310 -0.6407
 4975TIP3   OH239119   0.932   3.485  16.590  0.1802  0.4165 -0.4459
 4975TIP3    H139120   0.972   3.425  16.652 -2.7910  0.2830  1.5296
 4975TIP3    H239121   0.971   3.570  16.610 -0.5331  0.3345  1.5615
 4976TIP3   OH239122   4.786   4.607  17.994  0.2126 -1.4697  0.2690
 4976TIP3    H139123   4.859   4.615  18.054  0.3237  1.7387 -0.0994
 4976TIP3    H239124   4.811   4.661  17.919 -2.4212 -0.3516  0.0779
 4977TIP3   OH239125   1.772   4.674  18.511  0.1998 -0.1922  0.8606
 4977TIP3    H139126   1.780   4.733  18.586 -0.9296 -1.2416  1.8419
 4977TIP3    H239127   1.686   4.694  18.474  0.3000 -0.4274  0.4987
 4978TIP3   OH239128   4.784   0.818  18.600  0.4092 -0.1562  0.0114
 4978TIP3    H139129   4.806   0.755  18.669 -0.0002  0.2199  0.4917
 4978TIP3    H239130   4.716   0.773  18.549  0.1296 -0.1165  0.3427
 4979TIP3   OH239131   1.792   4.136  17.325  0.4426  0.3766  0.2664
 4979TIP3    H139132   1.835   4.151  17.240 -1.2291  0.0315 -0.6813
 4979TIP3    H239133   1.781   4.041  17.330 -2.0054  0.5565 -0.4925
 4980TIP3   OH239134   2.674   3.129  16.822  0.2734 -0.0168 -0.2035
 4980TIP3    H139135   2.594   3.076  16.816  1.2587 -1.5766 -0.3678
 4980TIP3    H239136   2.650   3.205  16.874 -1.3658 -0.3423 -0.4451
 4981TIP3   OH239137   7.174   6.083  19.117  0.5771 -0.4538 -0.1238
 4981TIP3    H139138   7.104   6.021  19.138 -1.5587  2.1565  1.1101
 4981TIP3    H239139   7.226   6.089  19.196 -0.9089  1.2691  0.8071
 4982TIP3   OH239140   0.661   4.386  19.622 -0.4362  0.2113  0.0948
 4982TIP3    H139141   0.638   4.420  19.536  1.8880  1.1409 -0.2383
 4982TIP3    H239142   0.668   4.292  19.610  0.3241  0.3677 -0.9044
 4983TIP3   OH239143   3.682   0.505  18.611  0.2856 -0.0460 -0.0563
 4983TIP3    H139144   3.599   0.524  18.655  0.8138 -1.1174  1.4890
 4983TIP3    H239145   3.743   0.485  18.682  1.7226  0.1213 -1.1886
 4984TIP3   OH239146   7.121   4.027  18.583  0.0105 -0.1542  0.2190
 4984TIP3    H139147   7.052   4.041  18.648 -2.4098 -0.1569 -2.1782
 4984TIP3    H239148   7.143   4.114  18.552  0.3905 -0.2288  0.2721
 4985TIP3   OH239149   3.245   5.367  18.106  0.0938 -0.4465 -0.1251
 4985TIP3    H139150   3.217   5.348  18.195  0.9176  0.6198  0.3869
 4985TIP3    H239151   3.335   5.334  18.101 -0.5433 -2.2145 -1.1874
 4986TIP3   OH239152   5.598   2.735  17.226 -0.2635 -0.1596 -0.4750
 4986TIP3    H139153   5.574   2.702  17.313 -0.4375  0.5034 -0.2663
 4986TIP3    H239154   5.572   2.665  17.166  0.1158 -0.7389  0.0286
 4987TIP3   OH239155   0.919   5.929  17.377  0.1861  0.3914  0.4358
 4987TIP3    H139156   0.916   5.994  17.447 -1.1246  0.9483 -0.1128
 4987TIP3    H239157   0.925   5.980  17.296  1.4915 -0.2433  0.1019
 4988TIP3   OH239158   0.622   1.708  18.123 -0.1381  0.6986  0.2273
 4988TIP3    H139159   0.685   1.651  18.079 -1.2401 -0.6641  0.3485
 4988TIP3    H239160   0.659   1.796  18.113  1.7508 -0.0306  0.2624
 4989TIP3   OH239161   0.730   1.162  17.642 -0.2722  0.0270  0.0315
 4989TIP3    H139162   0.689   1.174  17.728  1.4317  1.2214  0.7495
 4989TIP3    H239163   0.706   1.073  17.616 -0.9071 -0.3405  1.7176
 4990TIP3   OH239164   6.448   0.788  19.318 -0.6587 -0.2376 -0.0314
 4990TIP3    H139165   6.457   0.877  19.284 -1.2247 -0.3020 -0.3598
 4990TIP3    H239166   6.401   0.800  19.401 -0.9916 -0.2525 -0.2151
 4991TIP3   OH239167   2.577   1.220  18.573  0.8039 -0.3656 -0.3070
 4991TIP3    H139168   2.587   1.223  18.478  0.8550 -1.2121 -0.3279
 4991TIP3    H239169   2.594   1.310  18.601  1.8802 -0.3401 -0.9882
 4992TIP3   OH239170   3.784   1.404  17.818 -0.2170 -0.3097  0.2296
 4992TIP3    H139171   3.843   1.455  17.763 -1.9004 -0.4366 -1.7829
 4992TIP3    H239172   3.841   1.338  17.859  1.2428  0.4189 -0.5440
 4993TIP3   OH239173   6.343   2.659  19.280 -0.2669 -0.6501  0.1596
 4993TIP3    H139174   6.406   2.627  19.215 -0.0150  1.2787 -0.6173
 4993TIP3    H239175   6.397   2.705  19.344 -0.7831  0.2361 -0.0280
 4994TIP3   OH239176   0.912   5.992  18.103  0.1624  0.1931  0.1971
 4994TIP3    H139177   0.866   6.075  18.089 -0.7850 -0.3927 -0.2805
 4994TIP3    H239178   0.909   5.948  18.018 -0.0133 -0.6500  0.6215
 4995TIP3   OH239179   1.251   6.504  17.140  0.0871 -0.4501 -0.3277
 4995TIP3    H139180   1.279   6.435  17.079 -0.3245  2.0655 -3.6863
 4995TIP3    H239181   1.305   6.579  17.117  0.4104  0.4973  3.0725
 4996TIP3   OH239182   3.679   3.862  19.527 -0.4303  0.0217 -0.3784
 4996TIP3    H139183   3.613   3.885  19.592 -0.4238  1.6332 -0.9160
 4996TIP3    H239184   3.678   3.766  19.526 -0.3830 -0.0794  2.0402
 4997TIP3   OH239185   5.571   6.647  18.185 -0.0404 -0.7345  0.4558
 4997TIP3    H139186   5.499   6.632  18.124 -0.5727  0.2990  0.8161
 4997TIP3    H239187   5.562   6.739  18.211  0.1973 -1.1309  2.0485
 4998TIP3   OH239188   0.181   0.039  17.682  0.0359  0.1726 -0.3501
 4998TIP3    H139189   0.111   0.101  17.662 -1.4884 -1.7741 -1.3448
 4998TIP3    H239190   0.149  -0.009  17.758  1.0717  0.3506  0.2243
 4999TIP3   OH239191   5.805   4.097  18.504  0.0124  0.1941 -0.5271
 4999TIP3    H139192   5.710   4.085  18.499 -0.0742  1.1972 -1.8281
 4999TIP3    H239193   5.827   4.150  18.427  1.5451  0.5144  0.0869
 5000TIP3   OH239194   6.108   0.683  19.039 -0.3732 -0.1580 -0.2571
 5000TIP3    H139195   6.157   0.607  19.069 -3.3710 -1.4896  1.8348
 5000TIP3    H239196   6.083   0.662  18.949 -0.2483 -1.1790 -0.0632
 5001TIP3   OH239197   2.020   6.545  16.967 -0.3230  0.4926  0.1378
 5001TIP3    H139198   2.096   6.545  16.908  0.0211 -0.4179  0.5727
 5001TIP3    H239199   2.016   6.635  16.999  0.4932  0.5931 -0.0050
 5002TIP3   OH239200   5.190   3.512  17.764 -0.5684 -0.6333  0.1493
 5002TIP3    H139201   5.280   3.497  17.792 -0.0672 -0.8797 -1.4790
 5002TIP3    H239202   5.151   3.425  17.758  0.0526 -0.8361 -2.0424
 5003TIP3   OH239203   0.054   2.530  19.184 -0.1771  0.8775  0.3666
 5003TIP3    H139204   0.009   2.449  19.161  0.6607  0.2576  0.8186
 5003TIP3    H239205   0.138   2.524  19.139  0.8625  0.3584  2.2514
 5004TIP3   OH239206   1.782   0.266  18.022  0.0617  0.0175 -0.0349
 5004TIP3    H139207   1.725   0.190  18.034  0.4174 -0.2483 -0.0326
 5004TIP3    H239208   1.809   0.262  17.930  0.4752 -0.1382  0.0911
 5005TIP3   OH239209   1.968   4.560  18.063 -0.3470  0.4139  0.5703
 5005TIP3    H139210   1.988   4.527  17.975  1.1426  1.1237  0.6155
 5005TIP3    H239211   2.041   4.530  18.117  0.0868  2.1388  1.0054
 5006TIP3   OH239212   4.059   1.390  19.438 -0.4315  0.7373 -0.1737
 5006TIP3    H139213   4.021   1.478  19.436 -0.3376  0.7773 -0.2452
 5006TIP3    H239214   4.130   1.394  19.374 -2.8422 -0.4907 -3.1689
 5007TIP3   OH239215   3.923   1.603  17.419  0.2581 -0.0919 -0.2613
 5007TIP3    H139216   3.919   1.509  17.407 -0.0449 -0.0372 -0.5906
 5007TIP3    H239217   3.847   1.637  17.373  0.2666  0.2997  0.0056
 5008TIP3   OH239218   0.029   0.552  18.577  0.3979 -0.0497  0.3069
 5008TIP3    H139219   0.051   0.488  18.645  1.7108 -1.0680 -1.0093
 5008TIP3    H239220   0.113   0.575  18.537 -0.3491  0.3850 -1.0825
 5009TIP3   OH239221   6.361   2.142  17.664  0.1717 -0.0179 -0.3248
 5009TIP3    H139222   6.405   2.100  17.737  0.4866  0.2220 -0.3756
 5009TIP3    H239223   6.297   2.077  17.634 -0.6632  0.2526  0.7941
 5010TIP3   OH239224   5.102   7.276  18.568 -0.0306  0.5572 -0.4345
 5010TIP3    H139225   5.154   7.281  18.648 -0.2867  0.2287 -0.2437
 5010TIP3    H239226   5.160   7.237  18.503  0.0943  0.5848 -0.3400
 5011TIP3   OH239227   5.024   1.320  19.200 -0.2516 -0.5246  0.1485
 5011TIP3    H139228   5.118   1.338  19.200 -0.0558 -1.4317 -0.8392
 5011TIP3    H239229   4.985   1.394  19.246  0.7226  1.1675 -1.6118
 5012TIP3   OH239230   7.513   2.206  16.865 -0.0576  0.6111 -0.2422
 5012TIP3    H139231   7.570   2.283  16.871  0.8114 -0.1161  1.4607
 5012TIP3    H239232   7.570   2.132  16.884 -1.1429 -0.3532 -0.6399
 5013TIP3   OH239233   0.394   6.807  18.615  0.3880 -0.0968 -0.1687
 5013TIP3    H139234   0.384   6.754  18.695 -0.0388  0.5405  0.2032
 5013TIP3    H239235   0.307   6.842  18.598 -0.2371 -2.3842 -2.4771
 5014TIP3   OH239236   4.620   0.084  18.737 -0.1831 -0.8855 -0.0442
 5014TIP3    H139237   4.596   0.174  18.759 -0.9620 -1.0890 -0.0085
 5014TIP3    H239238   4.566   0.030  18.796 -0.0052 -1.3835 -0.3278
 5015TIP3   OH239239   0.881   1.549  17.567  0.0235  0.0558  0.2229
 5015TIP3    H139240   0.916   1.507  17.646 -0.7596 -0.1400  0.4773
 5015TIP3    H239241   0.954   1.549  17.506 -0.0230 -1.9758  0.0913
 5016TIP3   OH239242   2.276   7.254  18.195  0.5203  0.0439 -0.1419
 5016TIP3    H139243   2.249   7.311  18.267  0.6262 -0.4212  0.2699
 5016TIP3    H239244   2.311   7.314  18.129  0.6455  0.4544  0.2911
 5017TIP3   OH239245   4.569   0.682  18.489 -0.4134  0.3218  0.2774
 5017TIP3    H139246   4.496   0.736  18.521  0.3260  1.0769  0.7406
 5017TIP3    H239247   4.527   0.612  18.439 -1.4360  0.9486  0.2228
 5018TIP3   OH239248   1.565   6.768  18.578 -0.0893 -0.2446 -0.5431
 5018TIP3    H139249   1.586   6.730  18.493  0.9681 -0.0631 -0.3680
 5018TIP3    H239250   1.605   6.709  18.642 -1.0885 -0.5194 -0.1449
 5019TIP3   OH239251   1.619   6.659  18.300 -0.2517  0.5234  0.0448
 5019TIP3    H139252   1.668   6.661  18.217  0.1330  0.1392  0.2567
 5019TIP3    H239253   1.540   6.609  18.280 -0.9006  1.7120 -0.4734
 5020TIP3   OH239254   1.248   1.327  16.848 -0.3436 -0.3386 -0.3523
 5020TIP3    H139255   1.322   1.276  16.815  1.1776  1.0111  0.8607
 5020TIP3    H239256   1.202   1.356  16.770  0.3285 -1.2721 -1.1234
 5021TIP3   OH239257   7.270   4.492  19.024  0.1054  0.5904 -0.4305
 5021TIP3    H139258   7.183   4.475  19.059  1.1476  1.7835  3.2434
 5021TIP3    H239259   7.315   4.408  19.029 -0.1180  0.4961  0.1228
 5022TIP3   OH239260   2.674   6.495  19.249 -0.8589 -0.5138  0.3349
 5022TIP3    H139261   2.721   6.497  19.165 -1.4380 -1.9275 -0.0623
 5022TIP3    H239262   2.651   6.586  19.266  1.0626  0.0812  0.0050
 5023TIP3   OH239263   4.781   2.621  18.991 -1.0242  0.4506 -0.0720
 5023TIP3    H139264   4.862   2.670  19.005 -0.2738 -0.6876 -0.2399
 5023TIP3    H239265   4.784   2.550  19.055 -2.0060  0.5179  0.0665
 5024TIP3   OH239266   4.943   6.555  17.938  0.4021 -0.2939 -0.0665
 5024TIP3    H139267   5.000   6.626  17.907  0.7323 -0.6006 -0.1705
 5024TIP3    H239268   4.989   6.520  18.014  0.3600 -0.5623 -0.1666
 5025TIP3   OH239269   1.325   1.221  19.160 -0.3063  0.4072 -0.2071
 5025TIP3    H139270   1.264   1.156  19.195  1.0915 -0.1297  1.3852
 5025TIP3    H239271   1.280   1.304  19.171 -0.8909 -0.0055  0.6810
 5026TIP3   OH239272   4.869   4.412  19.383 -0.4792  0.1035 -0.5880
 5026TIP3    H139273   4.913   4.423  19.299  1.7241  0.1408  0.4750
 5026TIP3    H239274   4.924   4.349  19.430 -1.8803 -0.2286  0.6741
 5027TIP3   OH239275   5.841   5.013  17.062  0.3843 -0.2028  0.3921
 5027TIP3    H139276   5.897   4.941  17.032 -1.0306 -0.4411 -1.9409
 5027TIP3    H239277   5.887   5.092  17.033  0.6007 -0.2915  0.4893
 5028TIP3   OH239278   0.856   3.244  18.260 -0.8696 -0.2741  0.5911
 5028TIP3    H139279   0.911   3.206  18.328 -1.8174 -1.6107  0.6549
 5028TIP3    H239280   0.841   3.172  18.198 -1.3919  0.4505 -0.1462
 5029TIP3   OH239281   5.714   3.070  18.507 -0.3923 -0.6480  0.4167
 5029TIP3    H139282   5.651   3.078  18.435 -0.7705 -0.7806  0.7323
 5029TIP3    H239283   5.754   2.984  18.493  0.0016 -0.4062 -0.0063
 5030TIP3   OH239284   6.829   1.668  18.638  0.0328  0.0833  0.5675
 5030TIP3    H139285   6.762   1.680  18.705 -0.7542  4.7249 -0.7484
 5030TIP3    H239286   6.906   1.713  18.672  0.9754 -1.0238 -0.0121
 5031TIP3   OH239287   2.200   1.694  19.144 -0.0896 -0.6089  0.5941
 5031TIP3    H139288   2.116   1.717  19.104  0.0922 -0.8146  0.0931
 5031TIP3    H239289   2.253   1.660  19.072  0.8846  0.7104  0.6562
 5032TIP3   OH239290   3.448   5.760  17.470 -0.2943  0.1944 -1.2361
 5032TIP3    H139291   3.461   5.763  17.375  0.9475 -0.7001 -1.1201
 5032TIP3    H239292   3.448   5.667  17.491  1.7709  0.3781 -0.1146
 5033TIP3   OH239293   4.498   1.309  19.716  0.0009  0.7276  0.3037
 5033TIP3    H139294   4.496   1.359  19.797  1.6689 -0.6846  1.2819
 5033TIP3    H239295   4.545   1.364  19.654  1.0006  0.7749  1.0896
 5034TIP3   OH239296   0.105   5.081  18.760  0.0843  0.1722  0.2011
 5034TIP3    H139297   0.191   5.064  18.799  1.0806 -0.6321 -2.1350
 5034TIP3    H239298   0.050   5.010  18.792  0.7243 -0.2023  0.4948
 5035TIP3   OH239299   2.751   3.115  19.112 -0.7271  0.3128  0.5442
 5035TIP3    H139300   2.821   3.051  19.126 -0.6553 -0.9017 -3.6956
 5035TIP3    H239301   2.747   3.165  19.193  2.3416 -2.0953  2.4341
 5036TIP3   OH239302   0.456   4.005  19.113 -0.2704 -0.5234 -0.3229
 5036TIP3    H139303   0.528   4.005  19.049 -0.3335  0.1132 -0.4042
 5036TIP3    H239304   0.380   3.974  19.064 -0.3380  0.0407 -0.5868
 5037TIP3   OH239305   3.947   2.211  18.576  0.0948  0.0338  0.1939
 5037TIP3    H139306   3.884   2.157  18.623 -0.4871  1.2891  0.9116
 5037TIP3    H239307   4.009   2.240  18.643  0.9185 -0.4359 -0.3396
 5038TIP3   OH239308   1.681   4.453  17.871 -0.4212  0.1336  0.0948
 5038TIP3    H139309   1.675   4.367  17.829  0.0658  0.3595 -0.4467
 5038TIP3    H239310   1.676   4.434  17.965 -1.6982 -0.3623 -0.0528
 5039TIP3   OH239311   0.692   5.481  17.645 -0.0913  0.6692 -0.0435
 5039TIP3    H139312   0.600   5.498  17.624  0.1336  3.4638  0.8303
 5039TIP3    H239313   0.717   5.553  17.703  2.0290 -1.2662  1.6745
 5040TIP3   OH239314   1.169   4.858  18.340 -0.0109 -0.4693  0.1464
 5040TIP3    H139315   1.124   4.873  18.423 -0.2890 -0.2882 -0.0366
 5040TIP3    H239316   1.126   4.917  18.278  0.6580 -0.0955  0.0311
 5041TIP3   OH239317   4.189   6.931  18.089 -0.3871 -0.3240  0.8948
 5041TIP3    H139318   4.246   7.008  18.088  0.6287 -1.0527  0.2904
 5041TIP3    H239319   4.197   6.896  18.179  4.7948 -3.6500 -0.4017
 5042TIP3   OH239320   7.096   5.977  17.455 -0.1660  0.1134 -0.2005
 5042TIP3    H139321   7.109   6.002  17.364  2.3271 -0.8431 -0.1857
 5042TIP3    H239322   7.013   5.929  17.456 -0.6856  0.9420 -1.7701
 5043TIP3   OH239323   3.526   1.518  18.332  0.2319  0.7425  0.1407
 5043TIP3    H139324   3.595   1.507  18.266  1.0896 -0.5952  1.2154
 5043TIP3    H239325   3.552   1.595  18.382  1.1646  0.0431  0.7631
 5044TIP3   OH239326   2.053   0.133  19.317  0.8109  0.0189 -0.0772
 5044TIP3    H139327   2.057   0.043  19.350 -0.8356 -0.3847 -0.8862
 5044TIP3    H239328   2.102   0.131  19.235 -1.7421 -0.9493 -1.6862
 5045TIP3   OH239329   5.278   0.712  17.371 -0.1672 -0.7930  0.0025
 5045TIP3    H139330   5.357   0.688  17.323  0.1285 -0.7076  0.4501
 5045TIP3    H239331   5.210   0.654  17.336 -0.6245  1.0785 -2.5509
 5046TIP3   OH239332   3.105   2.495  18.873  0.0328  0.1303  0.3655
 5046TIP3    H139333   3.175   2.560  18.867  0.3242 -0.0389  1.6112
 5046TIP3    H239334   3.032   2.542  18.912 -0.6114  0.3408 -1.0570
 5047TIP3   OH239335   2.820   5.077  18.142  0.3137 -0.3353  0.2753
 5047TIP3    H139336   2.799   5.003  18.086 -0.7380 -1.4418  2.0349
 5047TIP3    H239337   2.766   5.149  18.109  1.5814 -0.1994 -1.6475
 5048TIP3   OH239338   5.979   2.399  17.293  0.1313 -0.6141 -0.3420
 5048TIP3    H139339   5.966   2.347  17.213 -0.4705 -1.0449  0.0208
 5048TIP3    H239340   6.033   2.343  17.349 -0.3731 -0.7775 -0.0173
 5049TIP3   OH239341   3.611   0.599  19.572 -0.9416  0.1893 -0.0282
 5049TIP3    H139342   3.591   0.690  19.552  0.4168  0.3458 -0.7717
 5049TIP3    H239343   3.699   0.601  19.609 -1.3177 -0.7166  1.0010
 5050TIP3   OH239344   3.103   6.250  18.006  0.2515  0.3364 -0.0649
 5050TIP3    H139345   3.083   6.180  17.943 -2.1479 -0.5123  1.5001
 5050TIP3    H239346   3.092   6.331  17.956  1.1867 -0.3348 -1.4251
 5051TIP3   OH239347   3.730   5.034  19.241 -0.1394 -0.4651  0.1357
 5051TIP3    H139348   3.723   4.945  19.207  0.1109 -0.9678  1.3350
 5051TIP3    H239349   3.646   5.049  19.285  0.3016 -0.6273  1.0712
 5052TIP3   OH239350   7.593   1.231  17.438 -0.3758  0.9560  0.0807
 5052TIP3    H139351   7.514   1.191  17.401 -0.6566  1.7912 -0.2483
 5052TIP3    H239352   7.665   1.174  17.408 -0.9619 -0.7360  1.7229
 5053TIP3   OH239353   0.948   0.417  17.542  0.5841 -0.1909 -0.1218
 5053TIP3    H139354   1.019   0.357  17.563 -0.1964 -0.4646  1.9381
 5053TIP3    H239355   0.872   0.381  17.588 -0.7985  0.3554 -1.8693
 5054TIP3   OH239356   6.976   5.206  17.696  0.2977 -0.2413 -0.4537
 5054TIP3    H139357   6.944   5.165  17.616 -2.1659 -0.3278  0.4721
 5054TIP3    H239358   6.936   5.293  17.695  2.0934  0.6145 -0.3901
 5055TIP3   OH239359   1.527   3.182  19.244 -0.0309  0.0998 -0.0705
 5055TIP3    H139360   1.588   3.115  19.272  0.1076  0.2921  0.0939
 5055TIP3    H239361   1.518   3.240  19.320 -0.4177  0.0716 -0.0903
 5056TIP3   OH239362   0.592   3.364  18.336 -0.1782  0.1039 -0.7020
 5056TIP3    H139363   0.525   3.296  18.327 -1.4395  1.2266 -0.1961
 5056TIP3    H239364   0.675   3.317  18.327 -0.9478 -1.7686  1.0779
 5057TIP3   OH239365   7.079   5.194  18.377  0.2853 -0.4720  0.2720
 5057TIP3    H139366   7.167   5.164  18.356  0.1428 -1.2478  0.7245
 5057TIP3    H239367   7.091   5.279  18.419  0.6864  0.2634 -1.2629
 5058TIP3   OH239368   0.579   0.992  18.694 -0.1333  0.5804 -0.5261
 5058TIP3    H139369   0.586   0.996  18.598 -1.4791 -0.3591 -0.7047
 5058TIP3    H239370   0.485   0.983  18.710  0.0558  0.9438  0.9044
 5059TIP3   OH239371   6.679   4.449  18.874  0.2864 -0.0064 -0.0081
 5059TIP3    H139372   6.737   4.473  18.801  0.4451  0.9262  0.4057
 5059TIP3    H239373   6.711   4.364  18.903  0.5021 -0.1823 -0.7416
 5060TIP3   OH239374   7.260   3.949  17.373 -0.0968  0.1033  0.1051
 5060TIP3    H139375   7.237   4.029  17.327 -0.0920 -0.6735 -1.3151
 5060TIP3    H239376   7.202   3.882  17.336 -0.4509 -0.4674  1.6117
 5061TIP3   OH239377   4.862   1.832  17.142 -0.9490 -0.1658  0.1452
 5061TIP3    H139378   4.858   1.869  17.054  0.2594  2.2400  1.0325
 5061TIP3    H239379   4.955   1.815  17.158 -1.0923 -0.1315  1.1232
 5062TIP3   OH239380   2.003   7.441  18.110 -0.0766 -0.3863 -0.2688
 5062TIP3    H139381   2.086   7.439  18.157 -1.0063 -0.5392  1.4587
 5062TIP3    H239382   1.939   7.471  18.176 -1.7557 -2.3680 -0.8950
 5063TIP3   OH239383   0.543   4.435  17.735  0.1799  0.4286 -0.2191
 5063TIP3    H139384   0.506   4.348  17.717  0.9515 -0.0279  0.3443
 5063TIP3    H239385   0.589   4.458  17.654 -0.4713  0.5481 -0.5575
 5064TIP3   OH239386   0.424   4.584  18.376 -0.1389  0.1835  0.3762
 5064TIP3    H139387   0.404   4.519  18.309  1.0007 -0.5521  0.7138
 5064TIP3    H239388   0.427   4.534  18.457  0.3756  0.7298  0.7019
 5065TIP3   OH239389   2.707   3.770  18.907  0.2684 -0.0413  0.0947
 5065TIP3    H139390   2.709   3.829  18.833 -1.2573  1.4851  1.2021
 5065TIP3    H239391   2.782   3.796  18.960 -0.5129  1.1104  0.6817
 5066TIP3   OH239392   1.796   1.031  18.578  0.4487 -0.2254  0.0831
 5066TIP3    H139393   1.716   1.083  18.584 -0.8129 -2.1319  0.4460
 5066TIP3    H239394   1.789   0.967  18.648  1.6359 -1.3366 -0.7608
 5067TIP3   OH239395   6.526   5.822  18.396  0.2207 -0.0172 -0.4389
 5067TIP3    H139396   6.568   5.902  18.366 -0.2555  0.4989  0.2417
 5067TIP3    H239397   6.573   5.751  18.351  0.5446  0.6452 -1.1565
 5068TIP3   OH239398   1.442   7.558  17.280  0.1575 -0.0029  0.0585
 5068TIP3    H139399   1.367   7.501  17.260 -0.8513  0.4901  2.1349
 5068TIP3    H239400   1.456   7.547  17.374 -0.2944  3.3613  0.6517
 5069TIP3   OH239401   1.185   1.851  17.246  0.0731  0.0510 -0.0265
 5069TIP3    H139402   1.227   1.889  17.323  1.5696 -2.2509  0.4196
 5069TIP3    H239403   1.230   1.891  17.172  0.1151  0.7266  0.3593
 5070TIP3   OH239404   5.818   0.320  17.955 -0.3359  0.1059  0.2924
 5070TIP3    H139405   5.899   0.352  17.915  0.1760 -0.9931  0.4071
 5070TIP3    H239406   5.758   0.309  17.881  0.8973 -2.7939 -0.4198
 5071TIP3   OH239407   3.807   2.421  18.432 -0.1185 -0.3391 -0.0318
 5071TIP3    H139408   3.802   2.467  18.515  3.3635  0.5226 -0.1561
 5071TIP3    H239409   3.861   2.344  18.450  0.7174 -0.1268 -1.4259
 5072TIP3   OH239410   6.312   1.421  19.508  0.0564  0.2562  0.3991
 5072TIP3    H139411   6.350   1.336  19.529  0.0981  0.6525  2.0682
 5072TIP3    H239412   6.219   1.404  19.496 -0.0614  0.0656  1.4691
 5073TIP3   OH239413   7.172   5.927  17.766 -0.7729 -0.4067  0.1602
 5073TIP3    H139414   7.161   5.879  17.848 -1.1321 -1.7397 -0.6324
 5073TIP3    H239415   7.083   5.953  17.741 -0.4854  1.5742  1.0756
 5074TIP3   OH239416   5.837   1.650  18.992  0.1942 -0.5516  0.0305
 5074TIP3    H139417   5.763   1.641  18.932 -0.3515 -1.1322  0.7775
 5074TIP3    H239418   5.801   1.697  19.068  1.0968  0.9910 -0.4563
 5075TIP3   OH239419   2.949   2.733  19.500  0.4758  0.5074  0.3895
 5075TIP3    H139420   2.965   2.776  19.416 -4.8157  0.6307 -0.9008
 5075TIP3    H239421   2.928   2.804  19.560  0.0379  0.2003  0.6073
 5076TIP3   OH239422   5.135   5.256  17.394  0.4383 -0.3936  0.1962
 5076TIP3    H139423   5.089   5.318  17.451  0.3331 -0.5892  0.3240
 5076TIP3    H239424   5.066   5.198  17.361  0.1897  0.8576 -1.6364
 5077TIP3   OH239425   4.102   5.351  17.321  0.8598 -0.3424  0.3112
 5077TIP3    H139426   4.137   5.375  17.406  3.0503  1.1391 -0.9012
 5077TIP3    H239427   4.056   5.429  17.290  1.1314 -0.4433 -0.3699
 5078TIP3   OH239428   4.719   0.994  19.818  0.5641  0.5845  0.0463
 5078TIP3    H139429   4.647   1.004  19.756  1.1939 -0.7525 -0.9547
 5078TIP3    H239430   4.709   0.905  19.852  0.5380  1.1254  1.4890
 5079TIP3   OH239431   1.765   3.273  17.818 -0.1183  0.6303  0.2118
 5079TIP3    H139432   1.686   3.285  17.871  1.5767  1.8023  2.6813
 5079TIP3    H239433   1.810   3.357  17.822  0.7139  0.3566 -2.1350
 5080TIP3   OH239434   6.138   1.890  19.276 -0.2095  0.4115  0.5558
 5080TIP3    H139435   6.211   1.880  19.216 -0.6183  0.4233  0.0502
 5080TIP3    H239436   6.156   1.971  19.323 -1.1757  1.8551 -1.3951
 5081TIP3   OH239437   4.805   2.199  17.291  0.1325 -0.4220  0.1761
 5081TIP3    H139438   4.720   2.157  17.302  0.1666 -0.2740  1.1018
 5081TIP3    H239439   4.792   2.265  17.223 -0.1903 -1.1986 -0.5348
 5082TIP3   OH239440   5.251   0.016  18.390 -0.4413  0.0777 -0.4483
 5082TIP3    H139441   5.191   0.064  18.333 -0.5876  1.1309  0.5505
 5082TIP3    H239442   5.338   0.043  18.361 -0.4926 -0.1331 -0.7961
 5083TIP3   OH239443   4.446   6.127  18.046 -0.4123 -0.2527  0.0656
 5083TIP3    H139444   4.416   6.041  18.074  1.1110 -0.4990  1.0848
 5083TIP3    H239445   4.440   6.125  17.951  0.0021 -1.6585  0.0425
 5084TIP3   OH239446   4.368   2.270  17.153 -0.1720  0.3587  0.2125
 5084TIP3    H139447   4.312   2.347  17.167 -1.8961 -1.0214  1.2164
 5084TIP3    H239448   4.308   2.199  17.133  0.8790 -1.7635  3.7095
 5085TIP3   OH239449   2.936   4.137  17.501 -0.1151 -0.1647 -0.4994
 5085TIP3    H139450   2.905   4.047  17.497 -1.1025  0.1791 -0.7471
 5085TIP3    H239451   2.859   4.189  17.521  0.2194  0.7377 -1.4234
 5086TIP3   OH239452   1.958   2.535  19.145  0.4264 -0.0323 -0.3328
 5086TIP3    H139453   2.048   2.520  19.117  0.4667 -1.6301  0.5318
 5086TIP3    H239454   1.942   2.468  19.211 -1.1497  0.7246  0.1076
 5087TIP3   OH239455   3.121   6.456  17.840 -0.1993 -0.6538 -0.0819
 5087TIP3    H139456   3.191   6.503  17.794  0.8147 -2.6203 -0.6529
 5087TIP3    H239457   3.050   6.452  17.777 -0.5613  0.6574  0.2133
 5088TIP3   OH239458   6.464   6.076  19.354 -0.3091  0.5100 -0.1520
 5088TIP3    H139459   6.403   6.149  19.367 -0.8962  0.1540 -0.8459
 5088TIP3    H239460   6.415   6.012  19.303  0.2518 -0.3144  0.3178
 5089TIP3   OH239461   5.862   1.893  19.771  0.3767 -0.1899 -0.4285
 5089TIP3    H139462   5.836   1.949  19.698 -0.0434 -0.1380 -0.2452
 5089TIP3    H239463   5.921   1.947  19.824 -0.4353  0.2818  0.0291
 5090TIP3   OH239464   3.718   0.318  18.239  0.0334  0.0824 -0.2529
 5090TIP3    H139465   3.751   0.362  18.317 -0.6533 -1.1906  0.8056
 5090TIP3    H239466   3.625   0.339  18.237 -0.3173 -1.2974  0.3034
 5091TIP3   OH239467   3.547   2.558  17.144 -0.1982  0.3277  0.2204
 5091TIP3    H139468   3.576   2.467  17.142  0.0757  0.3015  2.5920
 5091TIP3    H239469   3.623   2.609  17.116  0.6376 -0.0468  1.6731
 5092TIP3   OH239470   3.278   6.969  19.240  0.1831  0.1310 -0.0870
 5092TIP3    H139471   3.355   6.962  19.296  0.9818  1.7150 -0.9047
 5092TIP3    H239472   3.301   6.922  19.160  0.6492  1.2344 -0.6335
 5093TIP3   OH239473   6.570   2.924  18.462  0.2856 -0.1145 -0.1439
 5093TIP3    H139474   6.615   2.988  18.517 -1.2241  1.8796 -1.0871
 5093TIP3    H239475   6.615   2.929  18.377 -0.2228  0.1619 -0.4005
 5094TIP3   OH239476   6.558   5.117  17.884  0.5118 -0.3021  0.4735
 5094TIP3    H139477   6.653   5.107  17.895  0.6638  1.1021  0.6718
 5094TIP3    H239478   6.535   5.053  17.817  1.5818 -0.7426  0.4983
 5095TIP3   OH239479   5.973   0.809  18.037 -0.3567  0.0625 -0.6695
 5095TIP3    H139480   5.888   0.767  18.052 -0.6770  1.3652  1.5651
 5095TIP3    H239481   6.036   0.738  18.040 -1.1705 -0.6559 -0.0848
 5096TIP3   OH239482   4.940   5.060  18.371  0.0555  0.0426  0.4896
 5096TIP3    H139483   5.024   5.028  18.339 -0.5715 -1.5680  0.3603
 5096TIP3    H239484   4.944   5.155  18.360  1.2806 -0.1431 -0.8656
 5097TIP3   OH239485   1.941   2.773  18.366  0.7700  0.2918  0.9371
 5097TIP3    H139486   1.910   2.864  18.359  3.7682  1.3897  0.3182
 5097TIP3    H239487   1.912   2.732  18.284  0.6050  1.1188  0.5632
 5098TIP3   OH239488   6.303   2.955  17.398 -0.2393 -0.2360 -0.5231
 5098TIP3    H139489   6.301   2.884  17.333  0.5298 -1.2020  0.4771
 5098TIP3    H239490   6.396   2.977  17.407 -0.5601  2.0785 -2.0100
 5099TIP3   OH239491   7.336   1.503  17.953  0.3909 -0.1538  0.5716
 5099TIP3    H139492   7.250   1.516  17.912 -0.8617 -1.2184  2.6711
 5099TIP3    H239493   7.379   1.439  17.897 -0.3556  0.0491 -0.2745
 5100TIP3   OH239494   1.877   4.500  19.155 -0.0578 -0.4422  0.2829
 5100TIP3    H139495   1.788   4.510  19.189  0.4954  0.7787  1.4532
 5100TIP3    H239496   1.866   4.488  19.060 -1.5182 -1.5979  0.5724
 5101TIP3   OH239497   5.999   6.334  17.972  0.4386  0.3085  0.0436
 5101TIP3    H139498   5.968   6.400  18.034 -0.1334 -0.9092  1.1148
 5101TIP3    H239499   5.949   6.256  17.993  3.8247 -1.6987  1.6311
 5102TIP3   OH239500   4.804   1.575  18.492 -0.1153  0.1274 -0.3839
 5102TIP3    H139501   4.799   1.492  18.539 -1.5056  0.0878 -0.5709
 5102TIP3    H239502   4.802   1.642  18.561  0.4017  0.0277 -0.2677
 5103TIP3   OH239503   1.119   3.633  19.054  0.3401  0.0927 -0.1975
 5103TIP3    H139504   1.043   3.650  18.999 -0.1002  1.7893  0.8271
 5103TIP3    H239505   1.088   3.651  19.143  0.9780 -2.7190  0.6830
 5104TIP3   OH239506   1.898   6.816  19.620  0.5594  0.2204 -0.2529
 5104TIP3    H139507   1.888   6.726  19.650 -2.7098  0.8315  0.8991
 5104TIP3    H239508   1.840   6.823  19.544  1.5343  1.1501 -0.9466
 5105TIP3   OH239509   5.894   6.908  17.094 -0.2197 -0.1015  0.1007
 5105TIP3    H139510   5.938   6.843  17.148  1.0869  1.2515  0.7634
 5105TIP3    H239511   5.962   6.941  17.036 -0.3757  1.7851  0.8995
 5106TIP3   OH239512   0.509   2.124  19.317  0.3030 -0.5802 -0.0966
 5106TIP3    H139513   0.592   2.101  19.276 -0.0674 -0.3688 -0.9875
 5106TIP3    H239514   0.532   2.186  19.386  0.7090  0.9432 -1.5548
 5107TIP3   OH239515   2.975   3.430  16.529 -0.0848  0.1606  0.2957
 5107TIP3    H139516   3.052   3.376  16.513 -0.1568  0.6608 -2.0013
 5107TIP3    H239517   2.917   3.374  16.581  1.1036 -0.8285  0.6069
 5108TIP3   OH239518   7.163   3.314  17.790  0.2734 -0.3197  0.9187
 5108TIP3    H139519   7.166   3.317  17.885 -0.0238 -1.0634  0.9526
 5108TIP3    H239520   7.249   3.348  17.762  0.3018  0.0461  1.4370
 5109TIP3   OH239521   3.800   6.656  17.310 -0.6296 -0.0782  0.0369
 5109TIP3    H139522   3.739   6.713  17.264 -0.5415  1.2257  1.4604
 5109TIP3    H239523   3.801   6.575  17.259 -1.4273  0.8698 -1.5445
 5110TIP3   OH239524   1.240   3.046  17.422 -0.2591 -0.3759 -0.7032
 5110TIP3    H139525   1.248   2.964  17.469  0.5816  0.2415  0.2682
 5110TIP3    H239526   1.323   3.056  17.375 -0.1956  0.1062 -0.4941
 5111TIP3   OH239527   0.384   1.077  18.352  0.1653 -0.6963  0.7303
 5111TIP3    H139528   0.308   1.051  18.404 -0.3216 -2.5076 -0.7842
 5111TIP3    H239529   0.381   1.173  18.351 -2.0210 -0.7199  0.8365
 5112TIP3   OH239530   4.893   1.165  16.921  0.3240 -0.2651 -1.3429
 5112TIP3    H139531   4.823   1.228  16.940  2.0017  1.2112  0.2955
 5112TIP3    H239532   4.958   1.216  16.872  1.7652 -0.6380  0.1041
 5113TIP3   OH239533   7.175   2.790  17.845  0.2072 -0.4721 -0.6606
 5113TIP3    H139534   7.090   2.770  17.884 -0.6263  0.8192 -1.7111
 5113TIP3    H239535   7.188   2.723  17.778 -0.5881  0.0347 -1.3365
 5114TIP3   OH239536   7.636   1.570  18.914 -0.0557  0.5736 -0.7998
 5114TIP3    H139537   7.629   1.618  18.831  0.6530  0.7936 -0.7384
 5114TIP3    H239538   7.588   1.489  18.898 -0.4072  0.8599 -1.2402
 5115TIP3   OH239539   1.553   4.717  18.348  0.0467  0.1713 -0.1641
 5115TIP3    H139540   1.571   4.691  18.257  0.6111  1.2597 -0.3777
 5115TIP3    H239541   1.457   4.723  18.352  0.0757  1.9497 -1.2361
 5116TIP3   OH239542   3.984   7.167  17.133  0.2403 -0.2226  0.4687
 5116TIP3    H139543   3.940   7.189  17.051  1.1997  2.5671  0.5939
 5116TIP3    H239544   3.931   7.210  17.201  0.2961 -1.2135  1.1558
 5117TIP3   OH239545   3.937   1.635  19.422 -0.0365  0.0275  0.0668
 5117TIP3    H139546   3.859   1.677  19.458  0.3005 -1.3743  2.6234
 5117TIP3    H239547   3.993   1.708  19.394 -0.7452  1.1913  1.5548
 5118TIP3   OH239548   2.780   4.583  19.456  0.3035  0.2226 -0.1697
 5118TIP3    H139549   2.714   4.523  19.491  0.8569  0.1167  0.7099
 5118TIP3    H239550   2.779   4.566  19.361 -1.2502  0.5529 -0.2408
 5119TIP3   OH239551   5.778   5.834  19.415  0.4041  0.4227  0.0727
 5119TIP3    H139552   5.764   5.739  19.416 -0.5288  0.5389 -0.7438
 5119TIP3    H239553   5.691   5.871  19.399  0.2702  1.5315  2.7905
 5120TIP3   OH239554   1.725   7.629  18.856  0.1671 -0.5213  0.0093
 5120TIP3    H139555   1.673   7.552  18.835 -1.4348  1.1392 -2.6613
 5120TIP3    H239556   1.664   7.702  18.847  2.0081  1.2194  0.8462
 5121TIP3   OH239557   3.508   6.025  18.997 -0.3783 -0.0545 -0.4731
 5121TIP3    H139558   3.548   6.044  19.082 -0.0684  0.1574 -0.6617
 5121TIP3    H239559   3.418   6.003  19.017 -0.3292  0.0800 -0.0949
 5122TIP3   OH239560   0.445   2.429  16.546  0.3522  0.0493  0.6097
 5122TIP3    H139561   0.428   2.474  16.463 -0.8373 -1.1419  0.1826
 5122TIP3    H239562   0.487   2.347  16.521  0.2265 -0.2062  1.2086
 5123TIP3   OH239563   0.147   3.338  17.223  0.3874 -0.3432  0.0351
 5123TIP3    H139564   0.172   3.333  17.315  0.6441  0.3145  0.0061
 5123TIP3    H239565   0.052   3.320  17.223 -0.0254  1.5830  0.6676
 5124TIP3   OH239566   4.721   7.511  17.993  0.1556  0.3505 -0.0623
 5124TIP3    H139567   4.635   7.555  17.992  1.2105  2.6066  0.7359
 5124TIP3    H239568   4.722   7.463  18.075 -0.2425  0.5000  0.0366
 5125TIP3   OH239569   0.460   1.523  19.749 -0.0059 -0.1566  0.0291
 5125TIP3    H139570   0.413   1.607  19.742 -0.5909 -0.5793 -1.7878
 5125TIP3    H239571   0.428   1.485  19.831  0.0788  1.2680  0.7666
 5126TIP3   OH239572   2.731   6.216  18.998  0.2598 -0.4309  0.4362
 5126TIP3    H139573   2.657   6.220  19.058  0.5621 -1.2749  0.8823
 5126TIP3    H239574   2.733   6.302  18.955 -1.2372 -0.5483  0.1046
 5127TIP3   OH239575   5.258   5.447  19.386  0.2123 -0.3984 -0.6308
 5127TIP3    H139576   5.285   5.531  19.348  1.5536 -0.2363  0.5902
 5127TIP3    H239577   5.176   5.467  19.433  1.3002  0.6269  0.9237
 5128TIP3   OH239578   5.656   5.868  17.565 -0.3777  1.0130  0.2177
 5128TIP3    H139579   5.619   5.793  17.612  0.8686 -0.2975 -0.7896
 5128TIP3    H239580   5.591   5.938  17.576 -1.6801 -0.2665  1.0312
 5129TIP3   OH239581   2.639   1.053  18.792  0.8536 -0.2772 -0.6029
 5129TIP3    H139582   2.565   1.096  18.750  1.1324  2.7815  1.6944
 5129TIP3    H239583   2.599   0.993  18.856  0.3441  0.5659 -0.1169
 5130TIP3   OH239584   3.802   6.561  18.824  0.0251 -0.2507  0.0765
 5130TIP3    H139585   3.836   6.495  18.763 -1.0581  0.5849 -1.5156
 5130TIP3    H239586   3.821   6.644  18.782 -0.7615  0.3586  0.8799
 5131TIP3   OH239587   1.992   4.849  18.068  0.7372  0.8953  0.1223
 5131TIP3    H139588   1.911   4.893  18.094  1.0518  1.0796  0.8185
 5131TIP3    H239589   1.969   4.756  18.066  0.3970  0.9838 -0.1096
 5132TIP3   OH239590   2.291   6.521  18.501  0.0992 -0.6931  0.2880
 5132TIP3    H139591   2.217   6.536  18.559  0.1448 -2.8526  1.0063
 5132TIP3    H239592   2.253   6.479  18.423  0.0448  2.1329 -1.3404
 5133TIP3   OH239593   0.371   3.279  16.945  0.2204  0.6369  0.2279
 5133TIP3    H139594   0.321   3.342  16.996 -0.9633 -0.3947  0.3952
 5133TIP3    H239595   0.361   3.309  16.854  1.4159  1.8478  0.4653
 5134TIP3   OH239596   1.906   1.278  17.503 -0.2496  0.3258  0.4977
 5134TIP3    H139597   1.873   1.327  17.428 -1.2292 -0.2364  0.5421
 5134TIP3    H239598   1.828   1.240  17.543  0.3757 -0.3304  1.1287
 5135TIP3   OH239599   7.422   3.235  18.019 -0.2859 -0.4235  0.8340
 5135TIP3    H139600   7.478   3.199  18.087 -0.5095 -0.6445  0.9025
 5135TIP3    H239601   7.441   3.183  17.941 -0.2543 -0.3691  0.8043
 5136TIP3   OH239602   4.095   4.771  18.260  0.2493  0.3019 -0.0201
 5136TIP3    H139603   4.038   4.783  18.183 -2.5683 -0.6966  1.7562
 5136TIP3    H239604   4.166   4.834  18.247 -0.9327  1.2397 -2.6699
 5137TIP3   OH239605   2.290   5.990  17.563 -0.2571  0.1084  0.0596
 5137TIP3    H139606   2.240   5.934  17.622  0.3062  0.4665  0.9022
 5137TIP3    H239607   2.334   6.052  17.621  0.0783  0.6580 -0.7658
 5138TIP3   OH239608   1.831   2.365  17.267 -0.4265  0.7890  0.6368
 5138TIP3    H139609   1.802   2.290  17.216 -2.0123  0.9156  1.2936
 5138TIP3    H239610   1.788   2.440  17.226  0.2333  1.1997  0.6801
 5139TIP3   OH239611   2.035   4.829  18.994 -0.2010  0.6688 -0.1196
 5139TIP3    H139612   1.959   4.875  19.029  1.4589  2.4393  1.3376
 5139TIP3    H239613   2.064   4.772  19.066  0.8847  1.3354 -0.0150
 5140TIP3   OH239614   0.884   4.954  17.535  0.0828  0.5930  0.4836
 5140TIP3    H139615   0.951   4.902  17.580 -1.9315 -1.2553  1.5548
 5140TIP3    H239616   0.918   5.043  17.537  2.9950 -0.3882 -0.0262
 5141TIP3   OH239617   2.138   4.591  19.082  0.2871  0.0481  0.4603
 5141TIP3    H139618   2.095   4.593  18.996 -1.1611  1.8514  1.1646
 5141TIP3    H239619   2.067   4.572  19.143  0.7393  1.5659  1.5136
 5142TIP3   OH239620   5.944   2.910  18.179 -0.0254 -0.1814  0.0356
 5142TIP3    H139621   6.013   2.908  18.113  0.6616  0.2816  0.7244
 5142TIP3    H239622   5.864   2.924  18.129  0.2996 -1.2398 -0.8231
 5143TIP3   OH239623   1.880   4.309  16.504  0.2311 -0.6367  0.2329
 5143TIP3    H139624   1.891   4.302  16.599 -0.2090 -0.9921  0.2617
 5143TIP3    H239625   1.857   4.401  16.490 -0.3979 -0.7343  0.5540
 5144TIP3   OH239626   3.446   7.237  17.447 -0.1266  0.0774 -0.3624
 5144TIP3    H139627   3.477   7.250  17.357  1.6936 -0.7366  0.0867
 5144TIP3    H239628   3.394   7.315  17.466  0.7189  0.9944 -1.6209
 5145TIP3   OH239629   5.095   4.891  19.132 -0.0187  0.0639  0.3139
 5145TIP3    H139630   5.109   4.957  19.064  1.0639 -0.9039 -0.4309
 5145TIP3    H239631   5.031   4.831  19.095 -0.5066  0.3247  0.7281
 5146TIP3   OH239632   3.571   0.062  19.301 -0.2468 -0.0287 -0.4605
 5146TIP3    H139633   3.532   0.036  19.217 -0.7588 -1.1137  0.0928
 5146TIP3    H239634   3.573   0.158  19.298 -2.4013  0.0527 -0.7811
 5147TIP3   OH239635   1.695   2.514  18.959  0.2566 -0.2448 -0.1396
 5147TIP3    H139636   1.726   2.602  18.979 -0.1196 -0.1028 -0.1662
 5147TIP3    H239637   1.757   2.456  19.003 -0.5191  0.0626  1.4514
 5148TIP3   OH239638   7.342   4.240  19.019  0.4622 -0.0956 -0.1791
 5148TIP3    H139639   7.297   4.189  19.087  1.5146 -0.7865  0.0206
 5148TIP3    H239640   7.311   4.202  18.937  0.9599 -0.8382 -0.0343
 5149TIP3   OH239641   7.510   3.878  17.583 -0.6954 -0.2587  0.0129
 5149TIP3    H139642   7.494   3.942  17.514  1.9169  1.1976  0.6011
 5149TIP3    H239643   7.560   3.926  17.649 -2.8334 -1.6647  2.8603
 5150TIP3   OH239644   7.341   3.956  17.910  0.1750  0.0288 -0.0629
 5150TIP3    H139645   7.338   3.937  18.003 -0.0364 -2.6965 -0.5480
 5150TIP3    H239646   7.434   3.959  17.888  0.2143 -0.9342 -0.0379
 5151TIP3   OH239647   3.963   5.215  19.170  0.0250 -0.0499  0.0474
 5151TIP3    H139648   3.939   5.308  19.177 -0.7913 -0.2494  0.0273
 5151TIP3    H239649   3.888   5.169  19.206  1.0918 -0.6628  1.5749
 5152TIP3   OH239650   3.417   2.284  18.489  0.2433  0.2945 -0.3728
 5152TIP3    H139651   3.445   2.369  18.453  0.5477 -0.8469 -3.0377
 5152TIP3    H239652   3.322   2.294  18.501  0.3168  1.1125 -0.3865
 5153TIP3   OH239653   1.206   5.765  19.115  0.8113  0.6728 -0.0132
 5153TIP3    H139654   1.255   5.691  19.078 -0.1756  0.5846 -1.2199
 5153TIP3    H239655   1.190   5.822  19.039 -2.7631 -0.3168 -0.1422
 5154TIP3   OH239656   0.340   6.410  19.177  0.4410 -0.1222 -0.1701
 5154TIP3    H139657   0.388   6.459  19.244  1.5195 -1.2900 -0.0443
 5154TIP3    H239658   0.307   6.476  19.117  0.3826  0.8703  0.9120
 5155TIP3   OH239659   2.467   6.257  18.667 -0.4734 -0.2917  0.3513
 5155TIP3    H139660   2.450   6.350  18.684  0.8974 -0.1097  0.8819
 5155TIP3    H239661   2.417   6.211  18.734  1.1859  0.2297  2.0393
 5156TIP3   OH239662   7.258   3.521  17.031  0.2975 -0.0734 -0.1891
 5156TIP3    H139663   7.219   3.564  16.955  0.2276  1.2272  0.5541
 5156TIP3    H239664   7.250   3.427  17.013 -1.4999  0.1789 -0.8933
 5157TIP3   OH239665   4.056   0.366  18.281 -0.1538  0.3087  0.2012
 5157TIP3    H139666   4.021   0.303  18.345  2.1601 -0.4471  0.8250
 5157TIP3    H239667   4.002   0.444  18.293 -0.1100  0.0462  2.8190
 5158TIP3   OH239668   0.032   2.244  17.109 -0.3609 -0.4352 -0.3580
 5158TIP3    H139669   0.052   2.169  17.053 -1.7152 -0.5804 -0.6715
 5158TIP3    H239670   0.107   2.303  17.097 -0.4682 -0.6065 -2.0953
 5159TIP3   OH239671   5.409   6.276  17.899  0.0827 -0.1083 -0.3319
 5159TIP3    H139672   5.405   6.341  17.970  0.2815 -0.8968  0.4206
 5159TIP3    H239673   5.333   6.295  17.844 -0.0328  0.5698  0.0503
 5160TIP3   OH239674   2.136   1.100  17.386  0.2201 -0.1130  0.1134
 5160TIP3    H139675   2.210   1.150  17.354  0.1631 -0.8241 -1.2060
 5160TIP3    H239676   2.077   1.165  17.423  0.5742  0.6802 -0.6861
 5161TIP3   OH239677   5.544   6.675  18.551  0.2294  0.4496  0.3680
 5161TIP3    H139678   5.635   6.651  18.536 -0.2094 -1.3012  0.2590
 5161TIP3    H239679   5.494   6.600  18.519 -1.1933  0.9026  1.4352
 5162TIP3   OH239680   3.466   7.657  19.001  0.1324 -0.2958 -0.3246
 5162TIP3    H139681   3.416   7.613  18.932 -0.9247  1.1652 -0.5356
 5162TIP3    H239682   3.443   7.750  18.992  0.8390  0.0727  1.2945
 5163TIP3   OH239683   4.285   1.213  17.539  0.3809 -0.2703  0.7599
 5163TIP3    H139684   4.256   1.302  17.558  0.4265 -0.0808 -0.0293
 5163TIP3    H239685   4.205   1.161  17.538  0.0887  0.1611 -0.9189
 5164TIP3   OH239686   6.422   6.162  17.869 -0.0250  0.2416 -0.1623
 5164TIP3    H139687   6.330   6.161  17.842  0.1023  0.9247 -0.6793
 5164TIP3    H239688   6.419   6.168  17.964 -0.4974 -1.6072 -0.0348
 5165TIP3   OH239689   5.108   4.692  17.558 -0.4576 -0.1926 -0.2686
 5165TIP3    H139690   5.105   4.780  17.595 -2.3397  0.4482 -1.7612
 5165TIP3    H239691   5.062   4.699  17.475 -1.0591 -2.6968 -0.2445
 5166TIP3   OH239692   0.003   4.565  18.580  0.1041  0.0076 -0.1059
 5166TIP3    H139693  -0.041   4.576  18.664 -0.5206  2.5683 -0.6826
 5166TIP3    H239694  -0.042   4.491  18.539  1.4282 -2.3182  2.3320
 5167TIP3   OH239695   7.144   0.193  17.050  0.2893  0.1983  0.4950
 5167TIP3    H139696   7.092   0.157  16.979  0.0495 -0.1056  0.8195
 5167TIP3    H239697   7.219   0.233  17.008  1.3235 -1.9156  0.2006
 5168TIP3   OH239698   3.450   2.523  18.378 -0.3141  0.2522 -0.0724
 5168TIP3    H139699   3.355   2.530  18.369 -0.4510 -0.1876  0.8950
 5168TIP3    H239700   3.485   2.598  18.329 -0.9755 -1.3924 -3.3894
 5169TIP3   OH239701   2.378   6.723  17.753 -0.2107 -0.3784  0.8130
 5169TIP3    H139702   2.461   6.756  17.787 -1.0143  0.1845  2.3365
 5169TIP3    H239703   2.370   6.761  17.666  0.9086 -0.0727  0.8330
 5170TIP3   OH239704   5.567   2.392  19.622 -0.7889 -0.5845  0.2750
 5170TIP3    H139705   5.585   2.342  19.702  0.4223  1.5796  1.4302
 5170TIP3    H239706   5.623   2.351  19.556  0.6838 -0.3790  1.3515
 5171TIP3   OH239707   2.518   2.177  18.241  0.0161 -0.1566  0.2022
 5171TIP3    H139708   2.457   2.108  18.264  0.2584 -0.8272 -1.1150
 5171TIP3    H239709   2.464   2.244  18.199  0.0104 -0.2035  0.1345
 5172TIP3   OH239710   2.183   0.114  16.647 -0.6602  0.4705  0.3099
 5172TIP3    H139711   2.235   0.098  16.726 -1.5380 -0.9262  0.6290
 5172TIP3    H239712   2.243   0.096  16.575 -0.6982 -1.3176  0.6761
 5173TIP3   OH239713   6.462   4.103  18.868  0.1351  0.3097 -0.0636
 5173TIP3    H139714   6.514   4.069  18.941 -0.5679  1.5174  1.0532
 5173TIP3    H239715   6.463   4.198  18.881 -0.0089  0.5470 -1.6459
 5174TIP3   OH239716   1.673   2.238  19.740 -0.4023  0.0002  0.0669
 5174TIP3    H139717   1.671   2.177  19.666  0.3286 -0.0156  0.0534
 5174TIP3    H239718   1.690   2.182  19.816  2.7078  0.3651 -0.2146
 5175TIP3   OH239719   7.111   2.410  17.673 -0.3129 -0.0792 -0.7978
 5175TIP3    H139720   7.081   2.494  17.638 -2.7921 -0.2690  0.6507
 5175TIP3    H239721   7.177   2.434  17.739 -3.5608  1.2032  2.3082
 5176TIP3   OH239722   5.878   5.956  19.049 -0.2625 -0.1904  0.1617
 5176TIP3    H139723   5.880   6.034  19.105 -1.0330 -0.6684  0.8797
 5176TIP3    H239724   5.800   5.908  19.078 -0.6173 -0.5117 -1.2481
 5177TIP3   OH239725   6.798   1.632  19.434  0.2701  0.2197 -0.2214
 5177TIP3    H139726   6.710   1.653  19.403 -0.0227 -0.2439  0.2601
 5177TIP3    H239727   6.790   1.543  19.470  0.9047  0.2195 -0.0674
 5178TIP3   OH239728   4.869   6.862  18.871 -0.5233  0.8996  0.1074
 5178TIP3    H139729   4.843   6.940  18.920  0.2403 -1.0607  4.0368
 5178TIP3    H239730   4.790   6.808  18.867  0.0658 -0.2052  1.9923
 5179TIP3   OH239731   1.380   6.922  19.272  0.6834  1.3350  0.1887
 5179TIP3    H139732   1.440   6.959  19.337 -0.9466  1.2026  1.8520
 5179TIP3    H239733   1.301   6.976  19.279 -0.6515 -0.5712  0.5425
 5180TIP3   OH239734   3.534   0.346  16.449 -0.2303 -0.1952  0.1042
 5180TIP3    H139735   3.579   0.292  16.384 -2.2188 -0.7054 -0.8956
 5180TIP3    H239736   3.563   0.435  16.431  1.2501 -0.6129  0.2501
 5181TIP3   OH239737   6.888   6.776  19.446 -0.2932 -0.3523  0.7576
 5181TIP3    H139738   6.838   6.698  19.422 -0.7680  0.0487  0.4376
 5181TIP3    H239739   6.826   6.848  19.439  0.1016  0.0425  1.1986
 5182TIP3   OH239740   2.473   1.719  19.527  0.4146  0.3639 -0.5422
 5182TIP3    H139741   2.533   1.765  19.586  0.2888  1.2208 -1.0725
 5182TIP3    H239742   2.400   1.779  19.514  1.2746  0.9900 -2.9997
 5183TIP3   OH239743   3.045   3.410  18.755  0.1644 -0.0028  0.0571
 5183TIP3    H139744   3.022   3.364  18.836 -0.2037 -0.4598 -0.3032
 5183TIP3    H239745   3.060   3.340  18.692 -0.9705  0.3768 -0.6592
 5184TIP3   OH239746   7.079   0.623  17.784  0.1334 -0.1325  0.5732
 5184TIP3    H139747   7.129   0.692  17.828  0.8527  1.4216 -2.3697
 5184TIP3    H239748   7.140   0.589  17.717 -0.5669 -2.9587  1.2448
 5185TIP3   OH239749   4.581   7.669  17.504 -0.2262  0.2161 -0.3950
 5185TIP3    H139750   4.635   7.732  17.551 -1.2750  0.0946  1.0250
 5185TIP3    H239751   4.642   7.626  17.444  1.2429  0.1767  1.0514
 5186TIP3   OH239752   1.395   3.643  19.220 -0.1956  0.1289  0.4398
 5186TIP3    H139753   1.342   3.719  19.198 -0.9370 -0.2427  0.8929
 5186TIP3    H239754   1.404   3.646  19.315 -0.0910 -0.2472  0.4460
 5187TIP3   OH239755   3.680   5.056  18.748 -0.6287 -0.0564 -0.0498
 5187TIP3    H139756   3.698   5.147  18.773  0.2883 -0.0745 -0.6027
 5187TIP3    H239757   3.584   5.051  18.746 -0.7023  0.5631  1.1507
 5188TIP3   OH239758   0.733   2.405  18.471 -0.3929  0.1941  0.3434
 5188TIP3    H139759   0.823   2.370  18.474 -0.0794  0.9767  0.1797
 5188TIP3    H239760   0.680   2.331  18.441  0.0301 -0.6010  1.4508
 5189TIP3   OH239761   7.427   4.802  19.315 -0.1979  0.2032  0.2111
 5189TIP3    H139762   7.513   4.771  19.343 -0.5359 -1.3645 -0.3463
 5189TIP3    H239763   7.422   4.780  19.222 -1.2911  0.0204  0.2978
 5190TIP3   OH239764   1.174   5.365  19.170  0.1667  0.0084 -0.8073
 5190TIP3    H139765   1.190   5.272  19.160  1.5572 -0.2371  2.6106
 5190TIP3    H239766   1.086   5.371  19.207 -0.1140  0.1194 -1.4729
 5191TIP3   OH239767   4.700   2.740  17.949  0.9135 -0.4556  0.6057
 5191TIP3    H139768   4.781   2.786  17.971  0.5633  0.6938 -0.3762
 5191TIP3    H239769   4.710   2.716  17.857  0.6610 -1.4564  0.8256
 5192TIP3   OH239770   6.370   2.340  18.879  0.6646 -0.0024 -0.3364
 5192TIP3    H139771   6.421   2.260  18.870 -0.3492 -0.5428 -1.5483
 5192TIP3    H239772   6.302   2.333  18.812  0.1344  1.5547 -0.0028
 5193TIP3   OH239773   0.050   5.951  17.999 -0.2863 -0.2689  0.5993
 5193TIP3    H139774  -0.030   5.983  17.957 -0.0194 -0.7899 -0.3512
 5193TIP3    H239775   0.115   5.952  17.929  0.3804 -0.4449  1.2086
 5194TIP3   OH239776   3.211   3.680  17.960  0.6608 -0.3091  0.0961
 5194TIP3    H139777   3.222   3.612  18.026 -0.2220 -2.5423 -1.8998
 5194TIP3    H239778   3.148   3.642  17.898  1.9101  1.3962 -2.3431
 5195TIP3   OH239779   0.593   0.685  18.885 -0.0369  0.3119  0.2245
 5195TIP3    H139780   0.663   0.744  18.858 -0.0610  0.8020  1.1851
 5195TIP3    H239781   0.628   0.597  18.869  0.1219  0.5666 -0.9143
 5196TIP3   OH239782   7.614   4.140  19.462 -0.0125 -0.2337  0.7753
 5196TIP3    H139783   7.667   4.111  19.387  0.0426  0.3391  0.5890
 5196TIP3    H239784   7.583   4.227  19.437  1.2810  0.6543  2.0487
 5197TIP3   OH239785   5.718   3.383  19.238 -0.2095 -0.0516  0.3545
 5197TIP3    H139786   5.670   3.466  19.243  0.7014  0.5432 -0.3739
 5197TIP3    H239787   5.656   3.317  19.271 -2.4506  0.2974 -2.6853
 5198TIP3   OH239788   0.625   0.724  18.247 -0.2842  0.4938 -0.0802
 5198TIP3    H139789   0.562   0.795  18.232 -0.4893  0.4528  0.5273
 5198TIP3    H239790   0.601   0.656  18.185 -1.1801  0.2656  0.4971
 5199TIP3   OH239791   5.496   3.726  18.641 -0.4887 -0.5945 -0.3925
 5199TIP3    H139792   5.540   3.641  18.631  1.3304  0.2092  0.2710
 5199TIP3    H239793   5.567   3.789  18.644 -1.8491  1.0913 -1.8182
 5200TIP3   OH239794   6.123   1.252  18.230 -0.3078  0.0552 -0.0293
 5200TIP3    H139795   6.193   1.230  18.292 -0.8524  1.1952  1.0292
 5200TIP3    H239796   6.043   1.225  18.273 -0.6786  0.6304 -0.3413
 5201TIP3   OH239797   4.034   3.572  19.633  0.1062  0.0480  0.3107
 5201TIP3    H139798   3.997   3.515  19.566  0.0835  0.3586  0.0556
 5201TIP3    H239799   4.125   3.545  19.641  0.3134  0.5040 -0.3907
 5202TIP3   OH239800   7.280   6.189  16.849  0.0887  0.3540  0.3071
 5202TIP3    H139801   7.245   6.271  16.886  1.2562  1.2340 -0.4512
 5202TIP3    H239802   7.375   6.198  16.857  0.3373  0.0225 -1.6756
 5203TIP3   OH239803   0.627   1.217  18.847  0.1059  0.2470 -0.4193
 5203TIP3    H139804   0.558   1.282  18.860  0.2613  0.0881  1.4522
 5203TIP3    H239805   0.585   1.147  18.797 -1.1649  0.0705  0.8395
 5204TIP3   OH239806   5.464   5.949  16.921 -0.3696  0.4600  0.0781
 5204TIP3    H139807   5.540   6.001  16.893 -1.3987  1.9697 -0.0427
 5204TIP3    H239808   5.502   5.874  16.966  1.2611 -0.0201 -1.9080
 5205TIP3   OH239809   1.554   4.223  18.518 -0.1699 -0.8449  0.4427
 5205TIP3    H139810   1.460   4.211  18.530 -0.2453 -0.2541  0.4504
 5205TIP3    H239811   1.574   4.176  18.437 -0.3262 -1.6541  0.8675
 5206TIP3   OH239812   2.849   7.456  19.126 -0.1951 -0.2318 -0.3343
 5206TIP3    H139813   2.872   7.421  19.212 -2.2608  0.9519  0.7792
 5206TIP3    H239814   2.932   7.483  19.087  1.3667 -4.5987 -0.5666
 5207TIP3   OH239815   5.600   2.865  17.812 -0.1197  0.2360 -0.3775
 5207TIP3    H139816   5.514   2.908  17.807 -0.5202 -0.6438 -2.0269
 5207TIP3    H239817   5.591   2.788  17.756  1.1905 -0.9145  0.8995
 5208TIP3   OH239818   3.415   5.312  19.059 -0.3494 -0.3855 -0.2930
 5208TIP3    H139819   3.485   5.247  19.045  0.7269  0.1540  2.1594
 5208TIP3    H239820   3.416   5.365  18.979  2.1350 -0.3439 -0.3127
 5209TIP3   OH239821   2.200   7.129  19.299  0.0551 -0.3336  0.4821
 5209TIP3    H139822   2.264   7.194  19.272 -0.3129  0.5519  1.6700
 5209TIP3    H239823   2.235   7.046  19.266 -0.1431  0.5747 -2.2541
 5210TIP3   OH239824   7.447   5.506  17.476  0.8099 -0.7307 -0.5861
 5210TIP3    H139825   7.478   5.526  17.388 -0.8029 -0.1107 -1.0530
 5210TIP3    H239826   7.449   5.410  17.481 -2.5327 -1.1086 -2.7541
 5211TIP3   OH239827   1.567   7.051  19.461  0.5968  0.4269 -0.2732
 5211TIP3    H139828   1.644   7.104  19.482  1.4532 -0.9787  0.2981
 5211TIP3    H239829   1.496   7.090  19.512  1.4633  0.3426  1.0339
 5212TIP3   OH239830   2.335   5.707  16.685  0.1899 -0.1755 -0.5496
 5212TIP3    H139831   2.323   5.728  16.592 -2.1712 -0.0228 -0.2609
 5212TIP3    H239832   2.363   5.616  16.686 -0.4510 -0.3946 -1.4007
 5213TIP3   OH239833   7.622   0.006  17.091 -0.3314  0.1048 -0.6591
 5213TIP3    H139834   7.581  -0.006  17.005  0.7579  0.1084 -1.2015
 5213TIP3    H239835   7.671   0.088  17.083 -0.2958  0.1519 -0.0052
 5214TIP3   OH239836   2.031   1.931  17.318 -0.1078  0.3779  0.0226
 5214TIP3    H139837   2.048   1.842  17.348  0.0417  0.4115  0.0378
 5214TIP3    H239838   2.016   1.981  17.398 -1.3762  0.1245 -0.0414
 5215TIP3   OH239839   6.998   3.857  17.254 -0.1510 -0.5871 -0.0609
 5215TIP3    H139840   6.930   3.877  17.318  1.6835 -1.2729  2.2567
 5215TIP3    H239841   6.989   3.763  17.238  1.2580 -1.0988  1.6936
 5216TIP3   OH239842   2.454   5.348  17.076 -0.0819 -0.3076 -0.4341
 5216TIP3    H139843   2.533   5.342  17.131  0.1437  0.2730 -0.6807
 5216TIP3    H239844   2.408   5.266  17.091  0.2837 -0.4142  0.1579
 5217TIP3   OH239845   2.908   3.191  16.691 -0.2380 -0.0824  0.0100
 5217TIP3    H139846   2.829   3.178  16.742  0.4565  0.4169  1.2697
 5217TIP3    H239847   2.926   3.106  16.650 -1.6597 -0.0716 -0.6810
 5218TIP3   OH239848   5.664   2.630  18.977  0.2545 -0.4203 -0.3186
 5218TIP3    H139849   5.581   2.677  18.985  0.5170  0.0591 -0.3233
 5218TIP3    H239850   5.639   2.539  18.960 -0.3358 -1.0130  3.0320
 5219TIP3   OH239851   1.344   6.417  18.442  0.0393 -0.1062 -0.3726
 5219TIP3    H139852   1.329   6.506  18.474  0.6223  0.3988 -1.4706
 5219TIP3    H239853   1.266   6.368  18.471 -0.1492  0.6757  0.4928
 5220TIP3   OH239854   4.097   1.821  17.313 -0.5918 -0.4598 -0.1920
 5220TIP3    H139855   4.027   1.878  17.343 -1.0270 -0.6731 -0.7976
 5220TIP3    H239856   4.065   1.732  17.328  0.4772 -0.5892  1.6846
 5221TIP3   OH239857   6.525   6.224  18.967 -0.1668  0.7192  0.2754
 5221TIP3    H139858   6.583   6.160  19.008  0.1022  1.7008  1.4843
 5221TIP3    H239859   6.441   6.179  18.960 -0.1401  0.4191  1.6521
 5222TIP3   OH239860   2.846   2.381  18.050  0.1852 -0.4477  0.5151
 5222TIP3    H139861   2.850   2.290  18.022 -0.9164 -0.6438  0.9623
 5222TIP3    H239862   2.794   2.380  18.130 -0.3655  0.6548  0.1983
 5223TIP3   OH239863   3.280   3.624  17.665  0.0213 -0.1471 -0.2510
 5223TIP3    H139864   3.298   3.718  17.660  0.4500 -0.0772  1.5808
 5223TIP3    H239865   3.220   3.606  17.593 -0.7365  1.6983 -0.1271
 5224TIP3   OH239866   4.968   1.547  17.768 -0.2318 -0.4259 -0.6665
 5224TIP3    H139867   4.920   1.541  17.685  1.3127 -2.0882 -1.5053
 5224TIP3    H239868   4.922   1.488  17.827  0.6702 -1.9793 -1.4515
 5225TIP3   OH239869   7.162   3.986  17.653  0.4307  0.2290  0.2038
 5225TIP3    H139870   7.227   3.969  17.584  0.7852 -1.0921  0.8229
 5225TIP3    H239871   7.213   3.990  17.734 -0.0727  0.9845  0.4968
 5226TIP3   OH239872   0.354   2.637  17.575  0.5777  0.0501  0.3732
 5226TIP3    H139873   0.310   2.670  17.497  1.2649 -1.7972 -0.8831
 5226TIP3    H239874   0.393   2.714  17.615 -1.9156  1.4159  0.3367
 5227TIP3   OH239875   1.828   3.590  17.192  0.3485 -0.0513 -0.0136
 5227TIP3    H139876   1.845   3.537  17.271  1.2605 -0.6093 -0.5651
 5227TIP3    H239877   1.824   3.526  17.121 -1.1800  0.3704 -0.3496
 5228TIP3   OH239878   4.816   5.724  19.048 -0.0923 -0.2132 -1.0896
 5228TIP3    H139879   4.820   5.752  18.956 -0.1865 -1.5343 -1.5116
 5228TIP3    H239880   4.732   5.680  19.056 -0.2122  0.1577 -0.2786
 5229TIP3   OH239881   5.812   2.517  18.088 -0.2641 -0.0818 -0.2332
 5229TIP3    H139882   5.870   2.520  18.013  1.0778 -1.3178  0.7094
 5229TIP3    H239883   5.788   2.425  18.096 -1.0001  0.1550  0.4115
 5230TIP3   OH239884   3.777   7.293  16.928 -0.1210  0.5511  0.2184
 5230TIP3    H139885   3.834   7.236  16.877  0.2077  2.5096 -1.7324
 5230TIP3    H239886   3.688   7.270  16.899  0.0175  1.0927 -0.6588
 5231TIP3   OH239887   4.953   5.495  18.616 -0.6450  0.2133  0.6094
 5231TIP3    H139888   4.980   5.542  18.695  1.1347  1.2845 -0.5755
 5231TIP3    H239889   5.033   5.485  18.565 -1.7640 -0.3335 -1.1401
 5232TIP3   OH239890   3.257   2.009  19.300 -0.0572  0.1877 -0.7735
 5232TIP3    H139891   3.262   2.104  19.312 -2.0595  0.5931 -2.4050
 5232TIP3    H239892   3.163   1.990  19.301  0.1514 -1.3765 -2.8803
 5233TIP3   OH239893   7.394   2.302  19.376  0.3026 -0.6622  0.5279
 5233TIP3    H139894   7.468   2.358  19.399  0.3916 -0.6928  0.3142
 5233TIP3    H239895   7.433   2.218  19.352  0.3638 -0.1311 -1.4127
 5234TIP3   OH239896   3.747   6.452  17.993 -0.4566 -0.4132 -0.0076
 5234TIP3    H139897   3.803   6.529  17.984 -0.3117 -0.5009  0.1333
 5234TIP3    H239898   3.745   6.413  17.905 -1.1192  0.1507 -0.2534
 5235TIP3   OH239899   4.771   5.959  19.195  0.0229 -0.1306  0.4606
 5235TIP3    H139900   4.778   5.876  19.148  0.4041 -0.4018  0.9908
 5235TIP3    H239901   4.739   5.935  19.282 -0.8101  0.3830  0.3097
 5236TIP3   OH239902   3.532   1.310  17.758 -0.5195 -0.1987  0.3593
 5236TIP3    H139903   3.620   1.330  17.790 -0.9681 -0.4101  1.8336
 5236TIP3    H239904   3.484   1.284  17.837 -2.3211  1.3523 -0.1740
 5237TIP3   OH239905   4.593   0.260  18.118 -0.2079  0.0468 -0.6695
 5237TIP3    H139906   4.517   0.222  18.162  0.5320  0.3518  0.9886
 5237TIP3    H239907   4.580   0.355  18.126  0.6392  0.1101  0.2682
 5238TIP3   OH239908   2.400   5.169  17.977 -0.1577 -0.8307 -0.3830
 5238TIP3    H139909   2.417   5.172  17.883  3.5930  4.4703  0.0214
 5238TIP3    H239910   2.311   5.204  17.986 -0.1869 -0.4594 -1.9230
 5239TIP3   OH239911   3.555   4.053  18.082 -0.3340 -0.0566 -0.1820
 5239TIP3    H139912   3.629   4.108  18.108 -0.2778  0.0198 -0.4998
 5239TIP3    H239913   3.594   3.987  18.023 -0.5256  0.0137 -0.3900
 5240TIP3   OH239914   6.114   3.675  19.770  0.5255 -0.4028 -0.7597
 5240TIP3    H139915   6.113   3.771  19.779 -0.7934 -0.3360 -1.3434
 5240TIP3    H239916   6.097   3.643  19.859  2.6950 -0.1784 -0.2055
 5241TIP3   OH239917   6.569   6.343  18.093  0.4923 -0.3499 -0.0368
 5241TIP3    H139918   6.476   6.362  18.081  0.5451 -0.0161  0.0640
 5241TIP3    H239919   6.577   6.326  18.187  0.8107  1.2555  0.2590
 5242TIP3   OH239920   6.717   3.281  18.269  0.0756  0.3668  0.1059
 5242TIP3    H139921   6.670   3.304  18.189  1.4457 -1.8058 -1.4601
 5242TIP3    H239922   6.715   3.185  18.271 -0.3222  0.3337  3.0040
 5243TIP3   OH239923   6.716   5.232  19.218  0.2729  0.1252  0.1746
 5243TIP3    H139924   6.781   5.165  19.240 -0.4613 -0.6392  0.0969
 5243TIP3    H239925   6.730   5.301  19.282  0.9071 -0.2032  0.3975
 5244TIP3   OH239926   4.488   2.247  18.438 -0.2099 -0.0749  0.0025
 5244TIP3    H139927   4.511   2.251  18.530 -0.4556 -1.4250  0.1467
 5244TIP3    H239928   4.402   2.204  18.436 -0.5637  0.6450 -0.8029
 5245TIP3   OH239929   2.358   3.762  17.961 -0.1952  0.0540  0.1252
 5245TIP3    H139930   2.401   3.701  18.021 -2.4536 -0.9774  0.7745
 5245TIP3    H239931   2.417   3.837  17.958 -0.2822  0.4874  4.2197
 5246TIP3   OH239932   3.372   4.073  18.585 -0.1537  0.2705  0.1493
 5246TIP3    H139933   3.410   4.144  18.638 -0.3776  1.4036 -1.1622
 5246TIP3    H239934   3.278   4.079  18.602 -0.2557  0.8211 -0.5702
 5247TIP3   OH239935   4.735   2.276  19.693  0.0323  0.0570  0.5561
 5247TIP3    H139936   4.764   2.365  19.677  0.9653 -0.3070  0.1501
 5247TIP3    H239937   4.722   2.271  19.788 -1.3404  0.9916  0.4542
 5248TIP3   OH239938   5.038   1.276  18.105 -0.1704  1.0190 -0.3994
 5248TIP3    H139939   4.959   1.232  18.072  0.6640  0.2679 -1.4628
 5248TIP3    H239940   5.106   1.254  18.041  0.8702  1.7853  0.4143
 5249TIP3   OH239941   6.313   4.867  19.334 -0.7923 -0.0493 -0.8456
 5249TIP3    H139942   6.397   4.824  19.347 -0.6036  0.2009 -1.2243
 5249TIP3    H239943   6.265   4.809  19.275 -0.9644 -0.2855 -0.4835
 5250TIP3   OH239944   6.827   6.538  19.242  0.2967  0.1400 -0.7869
 5250TIP3    H139945   6.874   6.466  19.201  1.4051  0.7825 -0.6747
 5250TIP3    H239946   6.862   6.617  19.201  0.9112  0.7625  0.8438
 5251TIP3   OH239947   0.021   1.414  18.585  0.7639 -0.3725 -0.4536
 5251TIP3    H139948  -0.035   1.462  18.646 -1.1487 -1.9083 -0.8571
 5251TIP3    H239949   0.053   1.339  18.636  1.3521 -0.2221 -0.5994
 5252TIP3   OH239950   6.996   4.344  19.027  0.8102  0.0283 -0.2659
 5252TIP3    H139951   6.917   4.293  19.010  0.9067  0.4595 -2.2026
 5252TIP3    H239952   6.968   4.410  19.091 -0.8782  1.1308 -2.0091
 5253TIP3   OH239953   1.630   4.451  19.283  0.0030 -0.0345 -0.0195
 5253TIP3    H139954   1.592   4.385  19.224 -0.6111  1.2445 -1.0943
 5253TIP3    H239955   1.699   4.403  19.330  0.9382 -0.9889 -2.2126
 5254TIP3   OH239956   5.688   4.851  17.242  0.1772  0.3942  0.1369
 5254TIP3    H139957   5.739   4.922  17.203 -0.0224  0.3236 -0.2699
 5254TIP3    H239958   5.597   4.880  17.233  0.1810  1.3449  2.4886
 5255TIP3   OH239959   4.972   0.312  19.609  0.2996 -0.1637 -0.1596
 5255TIP3    H139960   4.909   0.374  19.573  1.1889  1.5480  1.0752
 5255TIP3    H239961   4.920   0.235  19.632 -0.9209  0.2998 -1.2470
 5256TIP3   OH239962   3.074   6.156  18.276  0.1252 -0.2540 -0.1267
 5256TIP3    H139963   3.138   6.092  18.245  0.7294 -0.8690  2.1575
 5256TIP3    H239964   3.062   6.217  18.203  2.1070 -1.0562 -1.1777
 5257TIP3   OH239965   3.641   7.067  17.207  0.1263 -0.6335 -0.2291
 5257TIP3    H139966   3.595   7.131  17.153  0.9840  0.1576 -0.0495
 5257TIP3    H239967   3.573   7.005  17.234 -0.8644  0.5872  0.1652
 5258TIP3   OH239968   6.252   5.873  18.385  0.4941 -0.3469 -0.1385
 5258TIP3    H139969   6.213   5.805  18.330 -1.3872  0.6777 -0.1873
 5258TIP3    H239970   6.346   5.860  18.378  0.3128 -0.5427 -3.2382
 5259TIP3   OH239971   1.755   6.954  16.666 -0.2612 -0.0483  0.9013
 5259TIP3    H139972   1.842   6.949  16.706  1.3716 -0.0584 -2.2877
 5259TIP3    H239973   1.728   7.045  16.678  1.6677  0.7985 -0.6960
 5260TIP3   OH239974   5.000   1.794  17.897 -0.3012  0.5216 -0.0982
 5260TIP3    H139975   4.991   1.700  17.879  1.4859  0.1176  0.8695
 5260TIP3    H239976   4.939   1.811  17.969  0.4608 -0.2655  0.7598
 5261TIP3   OH239977   1.843   5.021  19.106 -0.2373 -0.0179  0.1485
 5261TIP3    H139978   1.786   5.072  19.164  1.4676  1.7059  0.3867
 5261TIP3    H239979   1.928   5.022  19.150  0.3782 -1.1667 -0.9864
 5262TIP3   OH239980   4.251   3.458  18.373  0.6292  0.0209 -0.2941
 5262TIP3    H139981   4.166   3.418  18.353  1.4834 -1.8191 -0.4423
 5262TIP3    H239982   4.232   3.520  18.444 -0.6918 -0.9740  0.2688
 5263TIP3   OH239983   0.232   4.300  18.233 -0.0043 -0.2729  0.7293
 5263TIP3    H139984   0.197   4.264  18.315 -1.4053  0.1704  0.3541
 5263TIP3    H239985   0.164   4.360  18.203  0.2727 -0.7803 -1.0028
 5264TIP3   OH239986   2.466   7.254  18.574 -0.7769 -0.3521  0.2814
 5264TIP3    H139987   2.475   7.234  18.481 -0.6554  1.0056 -0.0171
 5264TIP3    H239988   2.554   7.281  18.601 -1.3749  2.0299  0.0684
 5265TIP3   OH239989   4.327   3.107  19.147 -0.7433 -0.0958  0.7688
 5265TIP3    H139990   4.359   3.188  19.185  0.2664 -1.2255  2.4456
 5265TIP3    H239991   4.388   3.089  19.075  0.1168 -0.2585  1.5212
 5266TIP3   OH239992   3.876   3.653  19.152  0.1270  0.4311  0.5720
 5266TIP3    H139993   3.944   3.611  19.099  0.7675  0.9370  0.9790
 5266TIP3    H239994   3.924   3.704  19.217 -0.5323  3.4883 -1.1275
 5267TIP3   OH239995   4.330   7.657  17.602 -0.2739 -0.4494 -0.1597
 5267TIP3    H139996   4.298   7.746  17.616 -1.2781 -1.0438  1.7841
 5267TIP3    H239997   4.418   7.668  17.566  0.3895  1.3927  1.7880
 5268TIP3   OH239998   1.777   1.567  18.359 -0.3455 -0.3796 -0.2047
 5268TIP3    H139999   1.788   1.617  18.441  0.1105  0.6245 -0.8587
 5268TIP3    H240000   1.839   1.494  18.368 -1.9353 -1.6172  1.3122
 5269TIP3   OH240001   0.875   3.227  18.572 -0.2010 -0.4211 -0.0866
 5269TIP3    H140002   0.896   3.254  18.661 -0.0880 -1.1063  0.1012
 5269TIP3    H240003   0.793   3.177  18.580  0.5173 -1.6490 -0.1560
 5270TIP3   OH240004   2.021   2.790  18.748  0.1228 -0.1643 -0.4239
 5270TIP3    H140005   2.053   2.880  18.747 -1.5555  0.4855  0.6078
 5270TIP3    H240006   2.094   2.740  18.784 -0.3800  1.4697  3.2893
 5271TIP3   OH240007   0.509   0.451  18.148 -0.1376  0.0194  0.3484
 5271TIP3    H140008   0.441   0.428  18.211  0.5676 -0.4877  0.9444
 5271TIP3    H240009   0.581   0.391  18.168  0.5320  0.6284 -0.1865
 5272TIP3   OH240010   0.720   0.884  19.313 -0.1869  0.3743 -0.0776
 5272TIP3    H140011   0.633   0.921  19.325 -0.5906 -0.6658  0.2561
 5272TIP3    H240012   0.705   0.796  19.279  0.7371  0.2539 -0.2109
 5273TIP3   OH240013   4.292   5.399  19.173 -0.1261 -0.0460 -0.1690
 5273TIP3    H140014   4.261   5.309  19.167 -0.9805  0.3049 -1.3417
 5273TIP3    H240015   4.262   5.440  19.092 -0.3141  1.4645  0.6360
 5274TIP3   OH240016   4.307   4.120  19.183  0.2038  0.5187 -0.1890
 5274TIP3    H140017   4.364   4.180  19.232  1.7689 -0.2738 -0.9760
 5274TIP3    H240018   4.243   4.178  19.140  0.2533  1.4116  0.8813
 5275TIP3   OH240019   2.204   1.791  19.399 -0.4950 -0.0862 -0.2626
 5275TIP3    H140020   2.128   1.849  19.397  0.3644  1.1138  0.3139
 5275TIP3    H240021   2.221   1.769  19.308  1.0357  3.1624 -0.8753
 5276TIP3   OH240022   5.771   2.135  18.798 -0.2180  0.4511 -0.2254
 5276TIP3    H140023   5.776   2.065  18.732  1.7493  0.9954 -0.7149
 5276TIP3    H240024   5.718   2.097  18.868 -1.3435 -0.6012 -1.5556
 5277TIP3   OH240025   2.740   3.740  17.300  0.4840 -0.1897  0.0252
 5277TIP3    H140026   2.647   3.731  17.278 -0.1117 -0.4807  2.4128
 5277TIP3    H240027   2.784   3.680  17.240 -0.9018 -0.3675 -0.8664
 5278TIP3   OH240028   3.660   3.985  18.820 -0.0792  0.2945  0.2236
 5278TIP3    H140029   3.656   3.980  18.915 -1.1871 -1.3467  0.1246
 5278TIP3    H240030   3.705   3.905  18.793 -2.1250 -0.5904 -0.7381
 5279TIP3   OH240031   5.770   0.273  18.255 -0.2460 -0.2769 -0.2904
 5279TIP3    H140032   5.835   0.338  18.230  1.1539 -1.2414  0.6785
 5279TIP3    H240033   5.714   0.263  18.178 -0.6365  2.1750 -0.4071
 5280TIP3   OH240034   5.479   1.964  19.739 -0.5754  0.0218 -0.3896
 5280TIP3    H140035   5.510   1.932  19.654 -0.4012 -0.1870 -0.2459
 5280TIP3    H240036   5.428   1.892  19.775  0.8110 -0.5656  0.4783
 5281TIP3   OH240037   3.877   7.122  17.674  0.4292 -0.2123  0.3538
 5281TIP3    H140038   3.819   7.048  17.693 -0.3668 -0.1501 -1.5809
 5281TIP3    H240039   3.822   7.200  17.687  0.2809 -0.1210 -0.7059
 5282TIP3   OH240040   2.982   0.264  19.375 -0.1076 -0.9521  0.6919
 5282TIP3    H140041   3.014   0.175  19.389 -0.1384 -0.7632  2.1665
 5282TIP3    H240042   3.060   0.315  19.354 -0.2881 -1.5834 -1.7868
 5283TIP3   OH240043   5.704   5.565  19.144 -0.4966  0.8621 -0.0573
 5283TIP3    H140044   5.747   5.535  19.225 -1.3367 -1.0258 -0.2691
 5283TIP3    H240045   5.761   5.535  19.074 -0.5955  1.0713 -0.2287
 5284TIP3   OH240046   7.287   3.785  18.800  0.2060 -0.5985  0.6975
 5284TIP3    H140047   7.279   3.705  18.853 -1.0476 -0.1366  1.2606
 5284TIP3    H240048   7.223   3.773  18.730  1.5991 -1.0395 -0.5279
 5285TIP3   OH240049   1.231   5.888  18.355  0.0012 -0.5529 -0.0979
 5285TIP3    H140050   1.153   5.937  18.380  0.8862  0.4778  0.7063
 5285TIP3    H240051   1.197   5.810  18.311 -1.4451  1.0515 -2.0034
 5286TIP3   OH240052   6.249   7.004  18.620 -0.1577 -0.3790  0.5885
 5286TIP3    H140053   6.281   6.915  18.631  0.3187 -0.2468  0.2857
 5286TIP3    H240054   6.159   6.994  18.588 -0.0899 -0.7458  0.5175
 5287TIP3   OH240055   7.504   5.411  18.818 -0.3444  0.6943  0.3040
 5287TIP3    H140056   7.539   5.442  18.901  0.7677 -0.0982  0.1493
 5287TIP3    H240057   7.461   5.488  18.780 -0.7888  1.0872  1.5539
 5288TIP3   OH240058   2.250   2.179  18.668  0.5660 -0.4297 -0.0994
 5288TIP3    H140059   2.229   2.175  18.761 -2.7284 -1.7289 -0.7655
 5288TIP3    H240060   2.277   2.090  18.644  1.7322 -0.0285 -0.3691
 5289TIP3   OH240061   3.156   2.227  17.800 -0.2423 -0.5699 -0.0410
 5289TIP3    H140062   3.250   2.207  17.805 -0.2237 -0.4147  0.2320
 5289TIP3    H240063   3.145   2.304  17.855 -0.3040  0.2348 -1.1391
 5290TIP3   OH240064   7.135   3.668  18.585  0.3440 -0.1626 -0.1758
 5290TIP3    H140065   7.136   3.574  18.565  0.3369  0.1583 -1.7564
 5290TIP3    H240066   7.043   3.692  18.579  0.2936 -0.1194  0.6368
 5291TIP3   OH240067   3.798   2.652  18.282  0.1274 -0.4338 -0.5994
 5291TIP3    H140068   3.806   2.576  18.339 -0.6701 -0.9287 -1.1246
 5291TIP3    H240069   3.804   2.617  18.194  0.3078  0.1871 -0.8389
 5292TIP3   OH240070   3.547   3.198  18.517  0.1752 -0.1102  0.4634
 5292TIP3    H140071   3.576   3.109  18.538 -0.0817 -0.4175 -0.4708
 5292TIP3    H240072   3.629   3.247  18.508  0.3091 -0.0455  1.7700
 5293TIP3   OH240073   1.572   7.512  17.506 -0.5475  0.7893  0.1482
 5293TIP3    H140074   1.547   7.421  17.520 -0.6207  0.5087 -1.6394
 5293TIP3    H240075   1.636   7.530  17.575 -0.9157 -0.4495  0.8391
 5294TIP3   OH240076   4.081   2.957  19.017 -0.0933  0.0368  0.6578
 5294TIP3    H140077   4.002   2.982  19.065 -1.4562 -0.0699 -1.4016
 5294TIP3    H240078   4.154   2.989  19.071 -1.4860 -0.4241  2.9266
 5295TIP3   OH240079   2.477   5.427  18.233  0.1094 -0.2009 -0.0461
 5295TIP3    H140080   2.545   5.454  18.295  1.2455 -1.5338 -0.6350
 5295TIP3    H240081   2.508   5.461  18.148  0.8420 -2.0194 -0.5572
 5296TIP3   OH240082   7.189   0.086  18.823 -0.4178 -0.0048  0.2367
 5296TIP3    H140083   7.223   0.036  18.749 -0.9649 -0.9402  0.6039
 5296TIP3    H240084   7.262   0.090  18.885 -0.7978 -1.6496  0.8447
 5297TIP3   OH240085   6.224   4.244  17.872 -0.0543  0.1844  0.3261
 5297TIP3    H140086   6.167   4.299  17.926  0.2459 -1.0429  1.9848
 5297TIP3    H240087   6.167   4.208  17.805 -0.6343  1.0856  0.3205
 5298TIP3   OH240088   0.045   6.760  19.339  0.3528 -0.4588 -0.4382
 5298TIP3    H140089   0.034   6.669  19.309  0.5655 -0.4351 -0.5937
 5298TIP3    H240090   0.044   6.754  19.434  2.6840 -0.9515 -0.3687
 5299TIP3   OH240091   3.747   2.003  19.329  0.3133  0.3067 -0.2220
 5299TIP3    H140092   3.797   2.062  19.272  0.0522  0.7066 -0.0419
 5299TIP3    H240093   3.707   2.060  19.394 -0.4087  0.0014 -0.3852
 5300TIP3   OH240094   1.076   0.743  18.820  0.4856 -0.1770 -0.6050
 5300TIP3    H140095   1.146   0.807  18.815 -0.0653  0.3239 -3.0169
 5300TIP3    H240096   0.999   0.788  18.784 -0.6777 -1.2336  0.4506
 5301TIP3   OH240097   2.002   3.067  19.281 -0.0969 -0.1399  0.0116
 5301TIP3    H140098   2.064   2.995  19.266 -0.5129 -0.2528 -1.2795
 5301TIP3    H240099   2.042   3.143  19.240 -0.9254 -0.2759 -1.0813
 5302TIP3   OH240100   7.611   2.945  18.937 -0.4769 -0.2481 -0.2600
 5302TIP3    H140101   7.696   2.966  18.897 -1.5956 -0.0524 -2.7461
 5302TIP3    H240102   7.563   3.027  18.937 -1.1224 -0.6160 -0.1228
 5303TIP3   OH240103   7.129   3.087  19.109  0.4382  0.0867 -0.2328
 5303TIP3    H140104   7.124   2.991  19.110  0.1139  0.0524 -2.1234
 5303TIP3    H240105   7.075   3.114  19.183  1.1546 -1.1800  0.8122
 5304TIP3   OH240106   5.588   5.135  17.826  0.0863  0.1492 -0.0791
 5304TIP3    H140107   5.506   5.182  17.810  1.4119  2.8975  0.5311
 5304TIP3    H240108   5.599   5.137  17.921  0.6649 -0.5707 -0.1219
 5305TIP3   OH240109   4.210   2.306  17.904  0.1547 -0.5384  0.1990
 5305TIP3    H140110   4.130   2.357  17.914 -0.1961 -1.4352  2.7225
 5305TIP3    H240111   4.183   2.215  17.917  1.5673 -0.8267  1.4464
 5306TIP3   OH240112   2.771   4.386  18.179 -0.4023  0.0202  0.2684
 5306TIP3    H140113   2.694   4.407  18.127  0.4883  1.5505 -0.5069
 5306TIP3    H240114   2.742   4.395  18.270 -1.8376 -2.2029  0.0933
 5307TIP3   OH240115   6.632   6.053  18.284  0.1258 -0.1620 -0.3285
 5307TIP3    H140116   6.725   6.031  18.276 -0.0547 -0.2800 -2.7009
 5307TIP3    H240117   6.632   6.137  18.331  1.2847 -0.9967  1.2647
 5308TIP3   OH240118   5.874   7.551  16.713  0.6421 -0.7158  0.1501
 5308TIP3    H140119   5.870   7.623  16.775 -2.0564  0.1471 -0.8668
 5308TIP3    H240120   5.803   7.493  16.739 -1.2184  0.1481 -2.5283
 5309TIP3   OH240121   0.909   0.426  19.175 -0.3651  0.2343 -0.3639
 5309TIP3    H140122   0.972   0.497  19.162  0.6018 -0.2294  1.3636
 5309TIP3    H240123   0.958   0.359  19.223 -1.9362 -0.5395  0.2429
 5310TIP3   OH240124   7.206   0.991  17.065  0.1956 -0.3734 -0.5291
 5310TIP3    H140125   7.281   0.939  17.095 -2.6718 -5.0269 -0.3903
 5310TIP3    H240126   7.218   0.997  16.971  1.7303  0.9525 -0.3034
 5311TIP3   OH240127   5.930   7.106  18.860 -0.0836 -0.0783  0.1068
 5311TIP3    H140128   5.835   7.093  18.861 -0.3099  1.0405 -2.2702
 5311TIP3    H240129   5.960   7.060  18.782  0.7627  2.6140 -1.2809
 5312TIP3   OH240130   4.549   7.202  19.311  0.6117 -0.2664  0.3865
 5312TIP3    H140131   4.573   7.111  19.294 -1.0837 -0.2847 -2.4539
 5312TIP3    H240132   4.453   7.201  19.312  0.5650  1.2659  2.0692
 5313TIP3   OH240133   2.789   2.741  17.995  0.2495 -0.2065  0.5494
 5313TIP3    H140134   2.840   2.720  17.916  0.4280 -0.7013  0.7943
 5313TIP3    H240135   2.804   2.667  18.054 -3.0801 -1.9178 -0.4823
 5314TIP3   OH240136   2.557   7.633  18.915  0.4013  0.2637  0.2271
 5314TIP3    H140137   2.602   7.648  18.998 -0.2168  2.2272  0.2541
 5314TIP3    H240138   2.576   7.710  18.862 -0.7443 -0.0852 -0.7514
 5315TIP3   OH240139   4.745   4.665  19.426 -0.1320  0.2100  0.1699
 5315TIP3    H140140   4.790   4.589  19.392  0.3820  0.9081 -0.7625
 5315TIP3    H240141   4.814   4.726  19.451 -0.5339  0.4643  0.6965
 5316TIP3   OH240142   7.117   2.269  19.198 -0.2974 -0.2113 -0.2755
 5316TIP3    H140143   7.086   2.224  19.277  1.3675 -0.6439  0.1926
 5316TIP3    H240144   7.108   2.204  19.128  0.5202 -0.7075  0.0665
 5317TIP3   OH240145   0.496   3.489  17.225  0.3698 -0.0924 -0.0230
 5317TIP3    H140146   0.470   3.544  17.299 -0.1670  0.0634 -0.3187
 5317TIP3    H240147   0.425   3.499  17.162 -0.3802 -2.0994  0.4166
 5318TIP3   OH240148   3.163   1.432  17.914 -0.3010 -0.1276 -0.0189
 5318TIP3    H140149   3.136   1.352  17.868  0.0822 -0.9435  1.0988
 5318TIP3    H240150   3.085   1.459  17.962 -0.2443 -0.2232  0.1288
 5319TIP3   OH240151   1.486   5.881  18.550  0.1298  0.2993 -0.3288
 5319TIP3    H140152   1.411   5.848  18.501  0.2156 -1.5973  0.7469
 5319TIP3    H240153   1.502   5.968  18.514 -3.1822  1.1767  0.0623
 5320TIP3   OH240154   6.925   2.055  19.257  0.3460 -0.1142  0.1997
 5320TIP3    H140155   6.841   2.030  19.217 -0.2910  1.5267  0.4331
 5320TIP3    H240156   6.991   2.024  19.194 -0.4237 -1.2900 -0.0623
 5321TIP3   OH240157   2.950   6.520  18.618  0.1683  0.2666  0.2493
 5321TIP3    H140158   2.885   6.544  18.552 -0.1472 -0.5778  0.2445
 5321TIP3    H240159   3.021   6.479  18.567  0.1902  0.1562  0.3682
 5322TIP3   OH240160   1.212   6.532  17.943  0.4743 -0.1188  0.2666
 5322TIP3    H140161   1.210   6.544  17.848  1.6079  1.4836  0.4025
 5322TIP3    H240162   1.211   6.437  17.955 -2.8616 -0.4062 -1.1794
 5323TIP3   OH240163   5.965   4.336  17.416  0.6521 -0.0854 -0.2538
 5323TIP3    H140164   6.058   4.321  17.400  0.2587 -0.0935 -3.0128
 5323TIP3    H240165   5.949   4.426  17.387 -0.2726 -0.1614 -0.0453
 5324TIP3   OH240166   2.312   0.462  18.176  0.0572 -0.4514 -0.2903
 5324TIP3    H140167   2.236   0.479  18.120  0.2646 -0.7579 -0.6704
 5324TIP3    H240168   2.371   0.536  18.161 -0.9537  0.7732  1.4146
 5325TIP3   OH240169   0.409   1.094  19.074  0.1441 -0.1415 -0.5370
 5325TIP3    H140170   0.404   1.068  19.166 -1.2360  1.8372  0.0008
 5325TIP3    H240171   0.449   1.019  19.030  3.3426 -0.1719  2.0511
 5326TIP3   OH240172   3.373   1.023  19.054  0.3882  0.0984  0.0420
 5326TIP3    H140173   3.365   1.099  19.112  1.6406  1.3667 -1.3257
 5326TIP3    H240174   3.458   0.985  19.076  0.6172  0.2552 -0.5382
 5327TIP3   OH240175   5.546   5.677  17.012  0.5297 -0.5756 -0.8353
 5327TIP3    H140176   5.590   5.600  17.047  1.8987 -0.3502 -1.9749
 5327TIP3    H240177   5.481   5.642  16.951  1.1953 -0.8387 -1.4014
 5328TIP3   OH240178   6.308   4.740  16.323  0.4091  0.2152 -0.3521
 5328TIP3    H140179   6.305   4.670  16.257  0.5586 -0.4798  0.3637
 5328TIP3    H240180   6.364   4.808  16.283  0.1351  0.0014 -1.1182
 5329TIP3   OH240181   5.226   6.998  16.554 -0.5731  0.0046 -0.1550
 5329TIP3    H140182   5.292   7.044  16.606 -0.4506 -1.0249  0.6397
 5329TIP3    H240183   5.145   7.048  16.569 -0.4853 -0.1170  0.8457
 5330TIP3   OH240184   4.607   1.433  17.718  0.1429 -0.5386 -0.0354
 5330TIP3    H140185   4.639   1.430  17.808  0.4269 -1.0493 -0.1489
 5330TIP3    H240186   4.529   1.489  17.722 -1.5876 -2.8410  1.0775
 5331TIP3   OH240187   7.335   1.738  17.773 -0.4067  0.6943  0.5022
 5331TIP3    H140188   7.424   1.707  17.792  0.1576  0.8364 -1.6999
 5331TIP3    H240189   7.279   1.663  17.793  0.6311 -0.7892 -1.7997
 5332TIP3   OH240190   6.163   5.265  17.108  0.0186 -0.0062 -0.3281
 5332TIP3    H140191   6.085   5.261  17.054 -1.8162 -0.9458  2.2056
 5332TIP3    H240192   6.140   5.216  17.188  2.5161  1.2995  1.3427
 5333TIP3   OH240193   0.698   3.526  17.899  0.4226  0.7705 -0.5650
 5333TIP3    H140194   0.625   3.465  17.905  1.6096 -0.8340 -1.4218
 5333TIP3    H240195   0.716   3.552  17.989 -0.5061  0.3245 -0.2424
 5334TIP3   OH240196   6.781   5.991  18.612 -0.5385 -0.6088 -0.2795
 5334TIP3    H140197   6.836   5.947  18.548 -0.3143  0.0048 -0.5142
 5334TIP3    H240198   6.816   5.962  18.697 -0.0558 -0.4693 -0.4280
 5335TIP3   OH240199   4.126   4.964  19.231 -0.1230  0.3437  0.3116
 5335TIP3    H140200   4.036   4.988  19.255 -1.0956 -0.7411 -2.0108
 5335TIP3    H240201   4.146   5.018  19.155  0.6712 -0.4291 -0.0346
 5336TIP3   OH240202   4.888   4.070  18.081 -0.2605  0.1620 -0.0363
 5336TIP3    H140203   4.831   4.143  18.057 -2.3633 -0.6690  2.0338
 5336TIP3    H240204   4.940   4.103  18.154 -0.1429  0.0370 -0.0634
 5337TIP3   OH240205   1.485   4.937  18.624 -0.2095 -0.4961 -0.2322
 5337TIP3    H140206   1.562   4.925  18.680 -0.1589  0.0683 -0.1673
 5337TIP3    H240207   1.412   4.906  18.677  0.0792 -2.0419 -0.6935
 5338TIP3   OH240208   6.925   6.040  17.970 -0.3190  0.0746  0.9773
 5338TIP3    H140209   6.841   6.081  17.987 -1.4575 -0.8054 -2.0055
 5338TIP3    H240210   6.949   6.067  17.882  1.0597 -2.0193  0.6148
 5339TIP3   OH240211   7.262   4.305  17.432  0.7905 -0.3655  0.3243
 5339TIP3    H140212   7.339   4.343  17.392  1.4941  0.6538  2.4829
 5339TIP3    H240213   7.201   4.378  17.441  0.3161 -0.7551  0.3145
 5340TIP3   OH240214   7.119   1.932  17.337 -0.3758 -0.6446 -0.0430
 5340TIP3    H140215   7.080   1.845  17.322 -0.7668 -0.4928  0.0709
 5340TIP3    H240216   7.178   1.919  17.411  0.4892 -1.0848 -0.7957
 5341TIP3   OH240217   1.626   5.404  18.667 -0.0728  0.4821  0.2942
 5341TIP3    H140218   1.631   5.464  18.593  1.1668 -1.0189 -0.9042
 5341TIP3    H240219   1.660   5.454  18.741  1.7907  0.9959 -0.8667
 5342TIP3   OH240220   6.270   4.549  16.113 -0.2085 -0.0400 -0.0837
 5342TIP3    H140221   6.322   4.472  16.134 -0.8166 -0.1261  1.2080
 5342TIP3    H240222   6.313   4.587  16.037 -0.1204 -1.8541 -0.9996
 5343TIP3   OH240223   4.819   6.762  19.171  0.0309 -0.1194 -0.2026
 5343TIP3    H140224   4.829   6.673  19.204 -1.8577 -0.3677 -0.1704
 5343TIP3    H240225   4.900   6.780  19.123  2.0020 -0.5092  2.7241
 5344TIP3   OH240226   4.830   7.171  18.055 -0.1296 -0.6370  0.0560
 5344TIP3    H140227   4.826   7.107  18.127 -0.6738 -0.4184  0.2241
 5344TIP3    H240228   4.913   7.152  18.011 -0.5330 -1.8132 -0.2251
 5345TIP3   OH240229   5.563   3.603  17.437 -0.3277 -0.1803 -0.0876
 5345TIP3    H140230   5.508   3.667  17.392  0.8133  0.1322 -1.0850
 5345TIP3    H240231   5.574   3.638  17.526  2.7939  2.7434 -1.4076
 5346TIP3   OH240232   0.372   5.982  18.586 -0.1845 -0.1323  0.1940
 5346TIP3    H140233   0.386   5.946  18.499 -2.0558 -2.4629  0.7649
 5346TIP3    H240234   0.396   6.075  18.577  2.1043 -0.8270 -2.0832
 5347TIP3   OH240235   7.571   2.401  17.516 -0.5576  0.5889  0.7067
 5347TIP3    H140236   7.587   2.308  17.529 -0.3175  0.3718 -0.9418
 5347TIP3    H240237   7.545   2.434  17.602  0.2428 -0.8140  1.5049
 5348TIP3   OH240238   2.569   6.187  17.477  0.5018 -0.9233 -0.0942
 5348TIP3    H140239   2.549   6.095  17.462 -1.7110 -0.3926 -0.7861
 5348TIP3    H240240   2.505   6.215  17.543  0.4058  0.3765 -0.7045
 5349TIP3   OH240241   7.375   0.310  19.441 -0.2139  0.7080 -0.4022
 5349TIP3    H140242   7.426   0.261  19.376 -0.7182  0.5188 -0.6631
 5349TIP3    H240243   7.426   0.390  19.456  0.5499  0.1603 -0.0622
 5350TIP3   OH240244   4.512   4.143  17.719  0.7441  0.3634  0.0453
 5350TIP3    H140245   4.566   4.070  17.688  1.7455  1.4594 -0.9079
 5350TIP3    H240246   4.429   4.133  17.671  0.2043 -1.0777  1.1908
 5351TIP3   OH240247   6.612   7.540  18.130 -0.0881 -0.5383 -0.0064
 5351TIP3    H140248   6.528   7.580  18.151 -0.4277 -2.4043  2.5885
 5351TIP3    H240249   6.672   7.615  18.119 -1.5434  0.7517  0.5353
 5352TIP3   OH240250   1.255   2.582  18.800 -0.3131 -0.1484 -0.1378
 5352TIP3    H140251   1.276   2.548  18.887 -1.7469 -0.8777 -0.0404
 5352TIP3    H240252   1.338   2.617  18.767  0.2695  0.0882  1.4853
 5353TIP3   OH240253   7.170   5.781  18.700  0.2000  1.2115  0.3429
 5353TIP3    H140254   7.247   5.759  18.648 -0.3045  0.0065  0.0802
 5353TIP3    H240255   7.101   5.796  18.636  0.1938  2.2878  0.5761
 5354TIP3   OH240256   6.591   5.876  17.850 -0.7140  0.7802 -0.7472
 5354TIP3    H140257   6.496   5.864  17.854 -0.5827 -0.2877  2.1822
 5354TIP3    H240258   6.604   5.968  17.872 -1.0833  0.2750  1.9968
 5355TIP3   OH240259   6.558   1.238  18.742 -0.0715 -0.0142  0.1082
 5355TIP3    H140260   6.613   1.316  18.729 -0.4398  0.2436  0.0989
 5355TIP3    H240261   6.480   1.270  18.786  0.0361 -0.4765  0.6485
 5356TIP3   OH240262   1.761   0.104  19.280 -0.1762 -0.1560  0.1520
 5356TIP3    H140263   1.707   0.181  19.264 -1.4529 -1.1502 -0.5272
 5356TIP3    H240264   1.829   0.135  19.340 -2.2567  0.8661  2.1667
 5357TIP3   OH240265   5.026   3.838  18.290 -0.6141 -0.3141  0.5444
 5357TIP3    H140266   5.114   3.800  18.282 -1.3509 -1.9274 -0.2922
 5357TIP3    H240267   5.038   3.913  18.348  1.7233  0.8579 -1.2777
 5358TIP3   OH240268   3.661   7.010  18.732  0.0585  0.0367 -0.7411
 5358TIP3    H140269   3.690   6.928  18.693 -0.4141 -0.6613  0.3061
 5358TIP3    H240270   3.612   6.983  18.810  0.3677  1.3342 -0.0690
 5359TIP3   OH240271   1.495   3.613  18.766  0.2022  0.0407 -0.4848
 5359TIP3    H140272   1.502   3.528  18.722  0.5800 -0.4351  0.4667
 5359TIP3    H240273   1.584   3.631  18.797  0.0587  0.6373 -0.4084
 5360TIP3   OH240274   4.674   5.159  18.608 -0.7297  0.0776 -0.1630
 5360TIP3    H140275   4.698   5.166  18.700 -0.8593 -1.7479  0.0482
 5360TIP3    H240276   4.707   5.239  18.568 -0.2101  0.6554  1.3709
 5361TIP3   OH240277   2.292   6.609  17.294  0.0388 -0.6373  0.1388
 5361TIP3    H140278   2.202   6.577  17.293 -0.0636 -0.3777  0.5846
 5361TIP3    H240279   2.344   6.534  17.322  0.1612 -1.2392 -1.6080
 5362TIP3   OH240280   6.520   4.499  17.602  0.0184 -0.3656  0.0265
 5362TIP3    H140281   6.433   4.508  17.562 -0.1636  0.1251  0.5177
 5362TIP3    H240282   6.503   4.458  17.687  0.3378 -0.8458 -0.1392
 5363TIP3   OH240283   0.065   2.444  18.465 -0.4190 -0.1076  0.0718
 5363TIP3    H140284   0.067   2.350  18.481 -0.3825 -0.2935 -0.9400
 5363TIP3    H240285  -0.001   2.455  18.396 -1.6186  0.7954  1.3106
 5364TIP3   OH240286   0.627   2.651  18.338  0.0974  0.3587 -0.1052
 5364TIP3    H140287   0.670   2.573  18.373 -0.1879  0.4744  0.5045
 5364TIP3    H240288   0.622   2.635  18.243  2.6698  0.9134 -0.4013
 5365TIP3   OH240289   5.623   4.457  18.419  0.4567 -0.1144 -0.0632
 5365TIP3    H140290   5.583   4.415  18.495 -0.0609  2.6032  1.2867
 5365TIP3    H240291   5.558   4.447  18.349  0.5467 -1.8473  0.0578
 5366TIP3   OH240292   0.081   3.630  16.602  0.3042  0.0516  0.3301
 5366TIP3    H140293   0.124   3.613  16.686  0.6443 -1.4063 -0.1132
 5366TIP3    H240294   0.153   3.646  16.541  0.1498 -0.6696 -0.0527
 5367TIP3   OH240295   3.819   0.832  18.653 -0.4333 -0.0752  0.3599
 5367TIP3    H140296   3.816   0.912  18.599 -0.6078 -1.3130 -1.5832
 5367TIP3    H240297   3.757   0.773  18.609  1.4802 -2.1245  0.2841
 5368TIP3   OH240298   3.710   4.046  17.204  0.0210 -0.3547 -0.8088
 5368TIP3    H140299   3.671   4.132  17.219 -0.9924 -1.1533  1.6601
 5368TIP3    H240300   3.784   4.042  17.265 -0.2405 -1.3752 -0.5322
 5369TIP3   OH240301   3.722   1.717  17.284 -0.2977 -0.0541  0.7144
 5369TIP3    H140302   3.658   1.788  17.282 -0.1141  0.1002 -0.3613
 5369TIP3    H240303   3.774   1.729  17.205 -0.7433 -1.8316  0.1077
 5370TIP3   OH240304   5.230   6.687  17.771  0.4177  0.2777 -0.1571
 5370TIP3    H140305   5.218   6.688  17.866 -0.8968 -0.8778 -0.2818
 5370TIP3    H240306   5.324   6.700  17.759  0.4654  1.5360  1.2484
 5371TIP3   OH240307   1.055   5.203  18.794  0.3067  0.5301  0.5934
 5371TIP3    H140308   1.128   5.153  18.755  0.6392  0.7047  0.9829
 5371TIP3    H240309   1.061   5.289  18.751  0.6351  0.7025  0.9745
 5372TIP3   OH240310   2.339   4.823  19.547 -0.1221 -0.3905 -0.1064
 5372TIP3    H140311   2.372   4.801  19.634 -1.5471 -0.6718  0.4033
 5372TIP3    H240312   2.382   4.762  19.488  0.8289 -0.2319  0.3977
 5373TIP3   OH240313   4.367   0.225  17.801  0.3649  0.5215 -0.4217
 5373TIP3    H140314   4.340   0.239  17.892 -0.2116 -0.6798 -0.3877
 5373TIP3    H240315   4.317   0.289  17.751 -0.3479  0.2811 -0.0295
 5374TIP3   OH240316   4.578   2.120  18.748  0.6186 -0.6588 -0.0350
 5374TIP3    H140317   4.618   2.204  18.724 -1.0304  0.4232  0.8402
 5374TIP3    H240318   4.606   2.105  18.838 -2.0908  0.9201  1.1703
 5375TIP3   OH240319   7.235   4.160  17.169  0.3287 -0.0737  0.2517
 5375TIP3    H140320   7.212   4.213  17.245  0.7921 -0.2133  0.4922
 5375TIP3    H240321   7.169   4.182  17.103  0.4856  0.7754  0.3611
 5376TIP3   OH240322   6.129   0.039  18.630  0.2838  0.4615  0.3341
 5376TIP3    H140323   6.109   0.127  18.599  0.7141  0.2648 -0.5543
 5376TIP3    H240324   6.070  -0.018  18.582  1.0544  0.1348 -0.2563
 5377TIP3   OH240325   2.222   0.754  17.739 -0.0008  0.0490 -0.5593
 5377TIP3    H140326   2.265   0.837  17.722  2.2701 -1.2631 -1.7626
 5377TIP3    H240327   2.239   0.736  17.832  0.2635  0.5000 -0.5189
 5378TIP3   OH240328   0.737   7.381  18.523  0.2749 -0.1782 -0.1273
 5378TIP3    H140329   0.738   7.344  18.435 -2.2410 -0.7033 -0.0055
 5378TIP3    H240330   0.658   7.435  18.526 -0.2828 -0.9920  2.0988
 5379TIP3   OH240331   5.751   3.797  18.357  0.2957 -0.5480 -0.4966
 5379TIP3    H140332   5.675   3.738  18.355 -0.0905 -0.4181  3.2464
 5379TIP3    H240333   5.717   3.879  18.392  1.6457  0.4981 -1.5511
 5380TIP3   OH240334   2.385   3.713  19.141 -1.1503  0.2644 -0.0468
 5380TIP3    H140335   2.430   3.728  19.224  2.4158 -1.3714 -1.4835
 5380TIP3    H240336   2.416   3.783  19.084 -0.2140 -0.9580 -1.1076
 5381TIP3   OH240337   3.674   2.211  17.626  0.0327 -0.2567 -0.4896
 5381TIP3    H140338   3.766   2.236  17.633 -0.0684  0.1991 -0.7350
 5381TIP3    H240339   3.668   2.165  17.542  0.2305 -1.1664 -0.0128
 5382TIP3   OH240340   1.695   0.938  16.956 -0.9805 -0.2290  0.2377
 5382TIP3    H140341   1.693   0.896  16.870  0.3215 -0.1189  0.1343
 5382TIP3    H240342   1.606   0.928  16.990 -0.9875 -2.0960 -0.2471
 5383TIP3   OH240343   0.556   0.970  18.107  0.0653 -0.2349  0.6950
 5383TIP3    H140344   0.548   1.056  18.150  0.7953 -0.0754  0.5295
 5383TIP3    H240345   0.469   0.953  18.072 -0.5648 -0.3726  2.2465
 5384TIP3   OH240346   6.279   5.920  16.641 -0.0827 -0.5765  0.3870
 5384TIP3    H140347   6.365   5.913  16.600  0.4126 -1.7445  1.5296
 5384TIP3    H240348   6.246   5.830  16.642 -1.1535 -0.1976  0.3197
 5385TIP3   OH240349   4.543   7.371  18.621 -0.4697 -0.4835  0.1336
 5385TIP3    H140350   4.605   7.367  18.548 -0.8298 -2.3549 -0.1274
 5385TIP3    H240351   4.471   7.425  18.588 -0.0411 -0.2265 -0.4094
 5386TIP3   OH240352   5.620   7.559  17.381  0.3851 -0.1208  0.6539
 5386TIP3    H140353   5.711   7.577  17.405  0.3483 -0.5586  1.1378
 5386TIP3    H240354   5.615   7.464  17.374 -0.1824 -0.1465  1.2486
 5387TIP3   OH240355   3.752   5.810  17.496 -0.1215  0.0660  0.2157
 5387TIP3    H140356   3.661   5.781  17.491 -0.3126  0.7711 -0.4790
 5387TIP3    H240357   3.768   5.857  17.414  1.1624 -0.8727 -0.1127
 5388TIP3   OH240358   5.731   4.857  17.778  0.1542 -0.5285 -0.7619
 5388TIP3    H140359   5.792   4.877  17.849 -0.0085 -1.4251 -0.3566
 5388TIP3    H240360   5.665   4.926  17.784 -0.2072 -0.9419  0.3920
 5389TIP3   OH240361   2.448   1.420  17.822  0.5692 -0.7409 -0.5812
 5389TIP3    H140362   2.366   1.375  17.843  0.5569  0.1754  1.6638
 5389TIP3    H240363   2.437   1.507  17.860  2.2628 -0.3136 -0.9987
 5390TIP3   OH240364   6.226   0.539  17.193 -0.8595 -0.3440  0.3962
 5390TIP3    H140365   6.213   0.446  17.175 -2.5296 -0.0447 -0.0951
 5390TIP3    H240366   6.162   0.584  17.138  0.8675  1.2148 -0.4740
 5391TIP3   OH240367   5.106   0.845  12.901  0.0978 -0.1312  0.2972
 5391TIP3    H140368   5.070   0.885  12.822 -0.7158  1.6237  1.4846
 5391TIP3    H240369   5.184   0.898  12.921  1.3785 -1.6960 -0.2836
 5392TIP3   OH240370   0.739   4.603  12.270  0.0411 -0.2908  0.6715
 5392TIP3    H140371   0.655   4.560  12.260 -0.9462  1.2347  1.9466
 5392TIP3    H240372   0.728   4.689  12.229  0.9254 -0.0231  0.9615
 5393TIP3   OH240373   5.854   5.931  11.045  0.0508 -0.1818  0.1947
 5393TIP3    H140374   5.849   5.968  11.134 -1.2594 -1.5004  0.7197
 5393TIP3    H240375   5.938   5.961  11.012  1.2919 -0.8793  2.4700
 5394TIP3   OH240376   7.315   4.102  12.969 -0.1942  0.5018  0.0878
 5394TIP3    H140377   7.313   4.167  13.040 -0.6026  0.6031 -0.0129
 5394TIP3    H240378   7.371   4.142  12.902  2.3151 -0.6736  1.3645
 5395TIP3   OH240379   5.356   7.617  11.981  0.0930  0.0873  0.4530
 5395TIP3    H140380   5.425   7.641  12.044  0.0834  0.0992  0.4587
 5395TIP3    H240381   5.403   7.603  11.899  0.3252 -1.5711  0.8445
 5396TIP3   OH240382   6.690   4.186  10.607 -0.2046  0.3187 -0.4924
 5396TIP3    H140383   6.617   4.181  10.668 -0.6036  0.7516 -0.9313
 5396TIP3    H240384   6.658   4.145  10.526 -0.1216  0.9230 -0.8341
 5397TIP3   OH240385   3.464   3.009  12.290  0.2297 -0.2811 -0.1068
 5397TIP3    H140386   3.488   3.032  12.380  0.0843 -0.0187 -0.1325
 5397TIP3    H240387   3.370   2.990  12.295  0.1211  0.1806 -0.2843
 5398TIP3   OH240388   3.662   2.832  11.732 -0.0388 -0.6171 -0.6671
 5398TIP3    H140389   3.713   2.890  11.788  0.1393 -2.5681  1.3399
 5398TIP3    H240390   3.726   2.791  11.673  1.1772 -3.9147  2.5844
 5399TIP3   OH240391   7.391   2.133  11.774  0.0090  0.0566 -0.3183
 5399TIP3    H140392   7.303   2.170  11.761 -0.5971 -0.7090  1.3325
 5399TIP3    H240393   7.408   2.083  11.694 -0.8969  0.5060 -0.8134
 5400TIP3   OH240394   2.456   5.463  11.760 -0.2405  0.8408  0.0512
 5400TIP3    H140395   2.375   5.412  11.769  0.3295  0.0355  0.7395
 5400TIP3    H240396   2.437   5.526  11.690 -0.2286 -1.7338 -2.4267
 5401TIP3   OH240397   0.045   5.056  11.892 -0.1963 -0.1946 -0.3508
 5401TIP3    H140398   0.068   5.018  11.807 -0.0750 -1.9284  0.4269
 5401TIP3    H240399   0.129   5.068  11.936 -0.2757  0.5165 -0.3718
 5402TIP3   OH240400   1.516   0.567  12.366  0.0641  0.3014  0.2103
 5402TIP3    H140401   1.516   0.548  12.273  0.4589 -3.4162  0.8116
 5402TIP3    H240402   1.428   0.544  12.396  0.3808  0.0228  0.9706
 5403TIP3   OH240403   6.677   0.184  10.644  0.1001 -0.0927  0.3957
 5403TIP3    H140404   6.739   0.110  10.643  0.5889  0.2994  1.0578
 5403TIP3    H240405   6.730   0.260  10.621 -0.5543 -0.0372 -1.0435
 5404TIP3   OH240406   2.432   4.150  11.997 -0.1492  0.7256  0.0311
 5404TIP3    H140407   2.519   4.113  11.985 -0.2232  0.2423  0.9215
 5404TIP3    H240408   2.403   4.170  11.908 -0.2546 -1.7163 -0.5692
 5405TIP3   OH240409   2.008   0.007  11.145 -0.1634 -0.3843  0.1432
 5405TIP3    H140410   1.927  -0.031  11.112 -0.9325 -0.4620  2.0140
 5405TIP3    H240411   2.021  -0.035  11.230  1.1043  0.6519  0.4893
 5406TIP3   OH240412   1.123   2.340  10.824  0.2097  0.1993  0.7183
 5406TIP3    H140413   1.155   2.379  10.905  0.4163 -0.5828  1.0234
 5406TIP3    H240414   1.156   2.397  10.755 -0.7289  1.3975  1.2161
 5407TIP3   OH240415   3.374   7.363  10.621  0.0007 -0.1299  0.4055
 5407TIP3    H140416   3.447   7.321  10.576  1.9858  0.3740  2.9029
 5407TIP3    H240417   3.314   7.291  10.642 -0.6024 -0.4694 -2.2070
 5408TIP3   OH240418   4.171   5.954  11.142  0.1936 -0.0378  0.4830
 5408TIP3    H140419   4.205   5.988  11.059  1.3768  0.0235  0.9768
 5408TIP3    H240420   4.220   5.874  11.157 -1.2362 -0.9819  0.2904
 5409TIP3   OH240421   4.993   0.914  11.904  0.1006  0.1194  0.3706
 5409TIP3    H140422   5.034   0.996  11.931 -1.4600  1.2847 -0.6469
 5409TIP3    H240423   4.950   0.935  11.821  0.0875 -1.8734 -0.1707
 5410TIP3   OH240424   2.476   2.912  13.633  0.3728  0.1157  0.1555
 5410TIP3    H140425   2.562   2.920  13.675  0.4892 -1.2342  0.2278
 5410TIP3    H240426   2.473   2.984  13.571  0.4216  1.8325  2.0556
 5411TIP3   OH240427   4.424   3.845  11.153 -0.0545 -0.4264  0.4019
 5411TIP3    H140428   4.423   3.876  11.063  1.1582  1.0234  0.8288
 5411TIP3    H240429   4.360   3.774  11.156 -0.5191 -0.1243 -1.4479
 5412TIP3   OH240430   3.391   2.471  11.802 -0.3011  0.2765  0.2422
 5412TIP3    H140431   3.441   2.552  11.816 -0.2367  0.1163  0.9764
 5412TIP3    H240432   3.430   2.432  11.723  2.2954 -1.0007  2.0285
 5413TIP3   OH240433   7.435   1.504  11.398  0.5231 -0.5624  0.5993
 5413TIP3    H140434   7.454   1.472  11.310 -0.7358  0.0342  0.0864
 5413TIP3    H240435   7.353   1.461  11.423  0.0086  0.5055  0.8100
 5414TIP3   OH240436   0.161   6.734  11.455 -0.1540 -0.7296  0.4430
 5414TIP3    H140437   0.112   6.791  11.514 -0.5660 -0.2513 -0.3392
 5414TIP3    H240438   0.097   6.707  11.389  0.9508  1.1495 -1.4917
 5415TIP3   OH240439   3.692   4.572  10.523 -0.4658  0.3347 -0.8821
 5415TIP3    H140440   3.657   4.638  10.463  1.5802  0.2995 -2.1911
 5415TIP3    H240441   3.669   4.488  10.484  0.1738  0.3072 -1.2068
 5416TIP3   OH240442   2.964   1.989  11.367  0.1433  0.0063 -0.0684
 5416TIP3    H140443   2.925   1.946  11.443  1.0345  0.0621  0.4340
 5416TIP3    H240444   2.899   1.979  11.298 -0.1617 -1.1360  0.3580
 5417TIP3   OH240445   2.471   2.259  11.207 -0.9601  0.1164 -0.2948
 5417TIP3    H140446   2.543   2.316  11.181 -1.3089  0.6935 -0.0151
 5417TIP3    H240447   2.395   2.317  11.214 -1.8485 -0.7312 -2.1649
 5418TIP3   OH240448   0.680   4.181  13.490  0.2895  0.0821 -0.0184
 5418TIP3    H140449   0.613   4.174  13.558  0.6927 -2.6800  0.2291
 5418TIP3    H240450   0.697   4.274  13.483 -0.1200  0.5657  3.3503
 5419TIP3   OH240451   4.715   0.453  10.626 -0.7041 -0.1428 -0.7563
 5419TIP3    H140452   4.698   0.526  10.567 -0.2144  0.7392  0.1595
 5419TIP3    H240453   4.809   0.457  10.642 -0.9334  0.1205  0.6731
 5420TIP3   OH240454   1.982   6.335  10.956 -0.0409  0.1404  0.1068
 5420TIP3    H140455   1.981   6.419  11.002  1.7630 -0.0057  0.4989
 5420TIP3    H240456   1.890   6.313  10.944 -0.5518  1.6602  0.9315
 5421TIP3   OH240457   0.247   6.289  12.502  0.0773 -0.6300  0.4643
 5421TIP3    H140458   0.173   6.275  12.561 -0.0627 -0.4909  0.3237
 5421TIP3    H240459   0.232   6.376  12.465 -0.3575 -1.1041 -0.5111
 5422TIP3   OH240460   3.810   4.638  12.610 -0.2616  0.2581 -0.4015
 5422TIP3    H140461   3.785   4.655  12.701  1.1472 -1.1482  0.2955
 5422TIP3    H240462   3.905   4.625  12.613 -0.2818 -0.5059 -1.9672
 5423TIP3   OH240463   0.205   1.000  10.772 -0.1090 -0.1616  0.1961
 5423TIP3    H140464   0.121   0.967  10.740  0.5566 -0.6998 -1.0755
 5423TIP3    H240465   0.203   0.983  10.866 -1.1338 -0.8160  0.0727
 5424TIP3   OH240466   6.490   2.348  12.688 -0.1795  0.9094  0.0368
 5424TIP3    H140467   6.550   2.375  12.618  0.3532  2.8999  1.1622
 5424TIP3    H240468   6.414   2.405  12.678 -0.8740  0.0148  0.0542
 5425TIP3   OH240469   1.747   6.593  10.875 -0.0527 -0.5474  0.6397
 5425TIP3    H140470   1.821   6.547  10.834  0.5518  0.0586  1.0137
 5425TIP3    H240471   1.769   6.686  10.866 -1.1136 -0.3375  0.1528
 5426TIP3   OH240472   7.140   3.641  10.986 -0.2390 -0.7884  0.0206
 5426TIP3    H140473   7.091   3.633  10.904 -1.9482 -3.3757  1.1617
 5426TIP3    H240474   7.230   3.617  10.963 -0.6592 -1.3084 -1.1476
 5427TIP3   OH240475   0.646   3.571  10.296  0.5104  0.0138 -0.4324
 5427TIP3    H140476   0.659   3.543  10.206 -0.6144  0.5834 -0.7954
 5427TIP3    H240477   0.717   3.633  10.312  0.1260  0.6954 -1.2883
 5428TIP3   OH240478   2.158   0.106  10.530 -0.0747 -0.2034 -0.2548
 5428TIP3    H140479   2.220   0.179  10.531  0.0902 -0.3211 -1.0933
 5428TIP3    H240480   2.213   0.028  10.543 -0.0069 -0.3233 -1.1788
 5429TIP3   OH240481   4.987   0.647  11.382  0.6348 -0.6075  0.0373
 5429TIP3    H140482   4.924   0.673  11.450 -0.3664 -1.4819 -0.5266
 5429TIP3    H240483   5.064   0.619  11.431  0.3896 -0.0432  0.7690
 5430TIP3   OH240484   3.454   6.822  12.657 -0.4085  0.2712 -0.3537
 5430TIP3    H140485   3.398   6.767  12.603 -0.6145  0.5435 -0.4186
 5430TIP3    H240486   3.534   6.834  12.605  0.5429 -1.7145  0.5268
 5431TIP3   OH240487   6.720   3.340  13.251 -0.4610  0.1435 -0.3924
 5431TIP3    H140488   6.789   3.325  13.316 -0.7873 -1.7976 -0.4193
 5431TIP3    H240489   6.725   3.433  13.232 -0.7982  0.9724  2.9136
 5432TIP3   OH240490   0.393   5.198  11.702 -0.0045  0.4167 -0.4123
 5432TIP3    H140491   0.360   5.286  11.688 -2.7155 -0.3360  0.6269
 5432TIP3    H240492   0.486   5.210  11.721 -0.7873  3.3852  2.4910
 5433TIP3   OH240493   5.575   0.302  12.391 -0.2133 -0.4305 -0.4567
 5433TIP3    H140494   5.651   0.305  12.449  0.6961  0.1136 -1.6322
 5433TIP3    H240495   5.593   0.369  12.325 -1.0158 -1.3088 -1.5920
 5434TIP3   OH240496   4.019   2.913  11.957 -0.2865 -0.2930 -0.0431
 5434TIP3    H140497   4.103   2.869  11.963 -0.0944  0.0851  0.1188
 5434TIP3    H240498   4.033   2.984  11.894  0.2086  1.2493  1.7036
 5435TIP3   OH240499   1.927   6.152  12.508 -0.1385 -0.5508  0.0262
 5435TIP3    H140500   1.895   6.241  12.493 -2.9142 -1.1562  1.5676
 5435TIP3    H240501   1.938   6.114  12.421 -0.9336  0.6632 -0.6200
 5436TIP3   OH240502   4.447   3.110  10.922  0.1624 -0.1126  0.1446
 5436TIP3    H140503   4.488   3.102  11.008 -0.2818  2.0917  0.6278
 5436TIP3    H240504   4.521   3.111  10.861  0.5029 -1.2523  0.5036
 5437TIP3   OH240505   6.005   4.556  11.703  0.6503  0.0158  0.0308
 5437TIP3    H140506   6.093   4.519  11.700  0.2368 -1.3664  2.3332
 5437TIP3    H240507   5.982   4.571  11.611  2.9285 -0.3925 -0.6718
 5438TIP3   OH240508   6.697   6.099  10.585  0.4268  0.0013 -0.1139
 5438TIP3    H140509   6.627   6.129  10.643  1.3148 -0.1031  1.0557
 5438TIP3    H240510   6.653   6.078  10.503 -1.0118 -0.7211  0.8024
 5439TIP3   OH240511   4.474   5.766  12.315  0.1446 -0.0752  0.4460
 5439TIP3    H140512   4.509   5.735  12.398  0.8867 -0.4573  0.0120
 5439TIP3    H240513   4.380   5.753  12.321  0.2749 -0.8384  0.9301
 5440TIP3   OH240514   0.809   3.697  12.093 -0.2360 -0.1191  0.5915
 5440TIP3    H140515   0.866   3.636  12.046 -0.2989  0.2763 -0.0043
 5440TIP3    H240516   0.792   3.654  12.177  0.0949 -0.7104  0.3609
 5441TIP3   OH240517   4.911   5.694  12.385  0.2240 -0.1479  0.2516
 5441TIP3    H140518   4.843   5.638  12.347  0.8036  1.1385 -2.9099
 5441TIP3    H240519   4.880   5.783  12.372  1.6524  0.4133  0.4767
 5442TIP3   OH240520   7.194   6.222  12.084 -0.1157 -0.0328 -0.0936
 5442TIP3    H140521   7.165   6.302  12.040  0.7231 -0.0814 -0.7633
 5442TIP3    H240522   7.142   6.219  12.164  0.3684  1.5962  0.3279
 5443TIP3   OH240523   3.825   2.436  10.815 -0.5509  0.1973  0.2737
 5443TIP3    H140524   3.903   2.451  10.760 -1.5694  0.6408 -1.0969
 5443TIP3    H240525   3.820   2.341  10.823  0.9517  0.1851  1.6373
 5444TIP3   OH240526   4.233   3.614  12.442 -1.1333 -0.0781  0.1010
 5444TIP3    H140527   4.189   3.696  12.424  1.5137  1.0702 -1.8719
 5444TIP3    H240528   4.268   3.625  12.531 -1.1525  0.7837  0.0133
 5445TIP3   OH240529   6.116   1.193  12.618  0.0087  0.1383 -0.5330
 5445TIP3    H140530   6.196   1.156  12.656 -0.3845 -1.8089 -1.4561
 5445TIP3    H240531   6.047   1.168  12.679  0.1368  2.5578  0.7134
 5446TIP3   OH240532   4.788   3.468  11.350 -0.4061  0.1072  0.2530
 5446TIP3    H140533   4.721   3.535  11.363  0.0209  0.6532 -0.2893
 5446TIP3    H240534   4.848   3.506  11.286 -0.4802 -1.0299 -0.5175
 5447TIP3   OH240535   5.019   5.466  12.485 -0.2436 -0.2673 -0.9582
 5447TIP3    H140536   4.997   5.435  12.573 -1.5511  1.0726 -0.7710
 5447TIP3    H240537   4.967   5.546  12.474  1.2301  0.5710 -2.2777
 5448TIP3   OH240538   6.097   0.853  12.657  0.1061 -0.2857 -0.4410
 5448TIP3    H140539   6.054   0.909  12.722  0.2092  0.4208 -0.9674
 5448TIP3    H240540   6.130   0.779  12.707  0.1046  0.2067  0.3054
 5449TIP3   OH240541   7.595   6.429  12.432  0.0640  1.2751  0.5423
 5449TIP3    H140542   7.551   6.449  12.514 -1.5634 -1.5099  0.4980
 5449TIP3    H240543   7.540   6.469  12.365  0.1352  1.6477  0.7063
 5450TIP3   OH240544   4.619   3.539  12.541  0.6746 -0.3191 -0.3908
 5450TIP3    H140545   4.673   3.497  12.608 -0.6406  0.9342  1.5536
 5450TIP3    H240546   4.661   3.624  12.526  0.6919 -0.4004 -0.8255
 5451TIP3   OH240547   3.623   4.753  11.770 -0.6650 -0.3560  0.1784
 5451TIP3    H140548   3.546   4.761  11.714 -0.8985 -1.6937  0.2777
 5451TIP3    H240549   3.627   4.661  11.793  0.0049 -0.0129  1.5714
 5452TIP3   OH240550   2.707   3.937  12.087 -0.3956  0.4110 -0.3454
 5452TIP3    H140551   2.691   4.014  12.142 -1.7545 -0.3486  0.3783
 5452TIP3    H240552   2.737   3.870  12.149  0.2650  0.1967 -0.8894
 5453TIP3   OH240553   6.317   2.075  12.722  0.2713  0.3358 -0.0472
 5453TIP3    H140554   6.298   2.166  12.745  0.8355  0.4680 -0.0744
 5453TIP3    H240555   6.320   2.029  12.806 -3.1431 -0.3430 -0.1573
 5454TIP3   OH240556   3.686   1.323  10.781 -0.1085 -0.2457  0.2094
 5454TIP3    H140557   3.664   1.414  10.760  1.8832  0.3931  0.6650
 5454TIP3    H240558   3.603   1.276  10.775 -0.9295  1.3133 -1.4910
 5455TIP3   OH240559   5.057   5.371  10.806 -0.4220 -0.4797  0.5120
 5455TIP3    H140560   4.968   5.360  10.773 -0.1211  1.6588 -1.1891
 5455TIP3    H240561   5.045   5.398  10.897 -1.3759 -2.6243  1.1025
 5456TIP3   OH240562   1.376   6.909  10.352  0.2438 -0.1526 -0.2446
 5456TIP3    H140563   1.399   6.886  10.442 -1.2311  1.0766  0.4972
 5456TIP3    H240564   1.442   6.974  10.326  1.2639 -1.2391 -0.4428
 5457TIP3   OH240565   6.125   6.707  12.373 -0.0658 -0.4019 -0.1831
 5457TIP3    H140566   6.194   6.650  12.406  0.4141  0.5477  0.5098
 5457TIP3    H240567   6.147   6.722  12.281  0.3526 -0.5395 -0.1040
 5458TIP3   OH240568   6.697   1.006  11.433  0.0592  0.2157  0.1073
 5458TIP3    H140569   6.707   1.087  11.383 -1.9114  0.7246  0.4524
 5458TIP3    H240570   6.688   0.938  11.367  0.6294  0.4203 -0.1909
 5459TIP3   OH240571   7.680   5.633  12.584 -0.3538 -0.0562  0.2356
 5459TIP3    H140572   7.722   5.663  12.665 -1.8755 -0.0453  1.0595
 5459TIP3    H240573   7.636   5.711  12.550  1.1008  0.1986 -1.1887
 5460TIP3   OH240574   5.347   3.100  11.129  0.1124 -0.0721 -0.5166
 5460TIP3    H140575   5.389   3.030  11.079  1.5021 -0.0556  0.5658
 5460TIP3    H240576   5.346   3.175  11.069  0.3452 -0.4819 -1.0403
 5461TIP3   OH240577   7.323   6.523  12.515  0.4036 -0.1828 -0.7229
 5461TIP3    H140578   7.306   6.475  12.434  1.1893 -0.3005 -0.8325
 5461TIP3    H240579   7.281   6.471  12.583  0.9725 -0.8762 -0.8823
 5462TIP3   OH240580   2.732   3.708  12.978 -0.1085  0.3997  0.3384
 5462TIP3    H140581   2.651   3.754  12.953  0.1072  0.0022 -1.1223
 5462TIP3    H240582   2.707   3.616  12.980  0.1048  0.3489  0.7463
 5463TIP3   OH240583   0.688   6.011  11.471  0.2330  0.4061 -0.0065
 5463TIP3    H140584   0.639   6.082  11.512 -0.6542 -1.1972  1.8976
 5463TIP3    H240585   0.645   5.997  11.387 -2.0698 -0.3092  1.1925
 5464TIP3   OH240586   3.786   4.124  12.001 -0.6988  0.0781 -0.0600
 5464TIP3    H140587   3.712   4.148  12.057 -0.8220 -1.1251  0.3272
 5464TIP3    H240588   3.860   4.173  12.036 -1.0849  0.4424  0.2470
 5465TIP3   OH240589   0.692   2.910  11.054  0.3131 -0.1056 -0.4578
 5465TIP3    H140590   0.601   2.937  11.038  0.3578 -0.3619 -1.1684
 5465TIP3    H240591   0.718   2.959  11.132 -0.9189 -1.1519  0.6549
 5466TIP3   OH240592   2.590   5.794  12.941 -0.3561 -0.5613 -0.2122
 5466TIP3    H140593   2.614   5.887  12.937 -1.2744 -0.3221 -0.4243
 5466TIP3    H240594   2.520   5.790  13.006 -0.3022 -1.1157 -0.1838
 5467TIP3   OH240595   3.091   1.737  11.132 -0.4121 -0.1081  0.5335
 5467TIP3    H140596   3.042   1.674  11.185 -1.6171  0.8957  0.6684
 5467TIP3    H240597   3.138   1.791  11.196 -0.4972  0.0175  0.4900
 5468TIP3   OH240598   1.632   6.123  11.420  0.4384  0.3564  0.5294
 5468TIP3    H140599   1.544   6.107  11.455  1.5634 -1.0922  3.0482
 5468TIP3    H240600   1.632   6.081  11.335 -1.2918  0.3755  0.4774
 5469TIP3   OH240601   5.872   5.907  12.945 -0.2919 -0.0230  0.4680
 5469TIP3    H140602   5.832   5.825  12.976 -2.5333  0.3771 -1.1595
 5469TIP3    H240603   5.838   5.974  13.004  0.4865 -0.0649  0.9795
 5470TIP3   OH240604   5.728   3.533  13.515  0.0060  0.1774  0.2987
 5470TIP3    H140605   5.701   3.486  13.436 -0.4081  1.2436 -0.2177
 5470TIP3    H240606   5.735   3.625  13.487 -0.0839  0.5641  1.4860
 5471TIP3   OH240607   5.890   4.832  10.900 -0.3618 -0.0320  0.5154
 5471TIP3    H140608   5.873   4.925  10.914 -1.1618  0.2147 -1.7271
 5471TIP3    H240609   5.808   4.789  10.925 -0.3264 -0.0366  0.6251
 5472TIP3   OH240610   2.169   5.517  11.482  0.4930  0.2977 -0.8066
 5472TIP3    H140611   2.244   5.569  11.452  1.7781 -0.1824  1.3970
 5472TIP3    H240612   2.207   5.433  11.506 -0.5660  0.3576  1.2554
 5473TIP3   OH240613   7.131   3.345  11.253 -0.9255 -0.2937 -0.1101
 5473TIP3    H140614   7.212   3.393  11.269 -0.5114 -0.0985 -2.4861
 5473TIP3    H240615   7.154   3.253  11.267  0.0879 -0.3603 -1.9294
 5474TIP3   OH240616   4.678   5.091  13.053 -0.0631  0.4001 -0.1948
 5474TIP3    H140617   4.644   5.085  12.964  0.2089 -1.2483 -0.2215
 5474TIP3    H240618   4.771   5.112  13.042 -0.1254  0.6470 -0.2690
 5475TIP3   OH240619   2.845   4.703  11.290 -0.1092 -0.1591 -0.4093
 5475TIP3    H140620   2.821   4.616  11.259 -1.7950  0.6011 -1.3551
 5475TIP3    H240621   2.940   4.708  11.276  0.1642 -2.1236  0.4604
 5476TIP3   OH240622   6.252   1.093  11.054  0.4528 -0.7243 -0.1819
 5476TIP3    H140623   6.290   1.060  11.135  2.7877  0.5794 -0.6422
 5476TIP3    H240624   6.321   1.148  11.016 -2.0706  2.3045 -0.8641
 5477TIP3   OH240625   3.149   0.866  10.751 -0.4142  0.0946 -0.4094
 5477TIP3    H140626   3.102   0.938  10.709 -1.1151 -0.7288 -1.0791
 5477TIP3    H240627   3.149   0.796  10.686  1.0271 -0.2236 -0.0989
 5478TIP3   OH240628   5.979   7.235  10.911 -0.0649 -0.1456 -0.1118
 5478TIP3    H140629   5.974   7.281  10.995  0.9457  1.7703 -1.0390
 5478TIP3    H240630   5.887   7.227  10.883 -0.2911  1.0244  0.2428
 5479TIP3   OH240631   2.599   6.272  11.073 -0.1882  0.1386 -0.0622
 5479TIP3    H140632   2.649   6.191  11.083 -1.3132 -0.4213  1.4892
 5479TIP3    H240633   2.665   6.340  11.061  0.7967 -0.9360 -0.9308
 5480TIP3   OH240634   3.092   4.419  12.326  0.5783  0.6981 -0.5198
 5480TIP3    H140635   3.128   4.360  12.392 -0.2557  0.2931 -0.4199
 5480TIP3    H240636   3.145   4.402  12.248  1.6057  1.2225  0.0436
 5481TIP3   OH240637   2.890   6.105  13.202  0.0394  0.1984 -0.0309
 5481TIP3    H140638   2.955   6.174  13.186 -0.1358  0.4711  0.4098
 5481TIP3    H240639   2.808   6.152  13.213 -0.0479 -0.0677  0.4676
 5482TIP3   OH240640   3.416   4.206  11.980  0.0782 -0.3981  0.5225
 5482TIP3    H140641   3.426   4.241  11.891  2.4318  0.3268  1.0011
 5482TIP3    H240642   3.343   4.255  12.017 -1.4927 -1.2747 -1.2319
 5483TIP3   OH240643   2.478   5.416  13.262  0.1042  0.3695  0.7132
 5483TIP3    H140644   2.496   5.428  13.168 -0.2744  1.0832  0.7263
 5483TIP3    H240645   2.542   5.350  13.290 -1.4797 -1.8339 -0.5947
 5484TIP3   OH240646   4.249   6.239  10.722  0.2394 -0.2214 -0.0522
 5484TIP3    H140647   4.265   6.311  10.660  0.2274  0.0352  0.2419
 5484TIP3    H240648   4.158   6.216  10.709 -0.3993  1.2773  1.3677
 5485TIP3   OH240649   4.196   5.934  12.416 -0.1426 -0.2126 -0.2722
 5485TIP3    H140650   4.211   5.846  12.382  0.5100  0.1600 -0.9922
 5485TIP3    H240651   4.250   5.939  12.496  0.1071 -0.3500 -0.4317
 5486TIP3   OH240652   4.774   4.915  10.963  0.3792 -0.0066  0.4709
 5486TIP3    H140653   4.705   4.883  11.022  0.5762 -0.6993  0.3374
 5486TIP3    H240654   4.798   5.001  10.998 -2.1692  1.3373 -0.7972
 5487TIP3   OH240655   6.426   1.784  11.043 -0.2997 -0.5364  0.1076
 5487TIP3    H140656   6.489   1.810  11.110 -0.2920  0.5696 -0.3115
 5487TIP3    H240657   6.341   1.793  11.085 -0.2523 -0.7286  0.2475
 5488TIP3   OH240658   1.478   7.228  10.498  0.1846 -0.0295  0.0725
 5488TIP3    H140659   1.489   7.224  10.593  2.1565 -0.9713 -0.1360
 5488TIP3    H240660   1.496   7.319  10.476 -0.7514  0.3049  0.6224
 5489TIP3   OH240661   6.220   4.842  12.938  0.1152 -0.8584  0.6948
 5489TIP3    H140662   6.244   4.880  13.023 -0.1220  2.2355 -0.4854
 5489TIP3    H240663   6.126   4.859  12.930  0.1604 -0.9979 -0.2335
 5490TIP3   OH240664   4.346   5.073  12.776  0.0556 -0.4273  0.4167
 5490TIP3    H140665   4.333   4.980  12.790 -1.0200 -0.5413 -1.0545
 5490TIP3    H240666   4.278   5.115  12.828  0.1440 -0.4993  0.5896
 5491TIP3   OH240667   6.482   3.730  12.829 -0.3214  0.3111  0.1395
 5491TIP3    H140668   6.476   3.821  12.800 -1.6569  0.3829  0.5791
 5491TIP3    H240669   6.422   3.724  12.903  0.8708 -0.5705  1.0920
 5492TIP3   OH240670   1.336   3.823  10.437 -0.2164  0.0631 -0.4417
 5492TIP3    H140671   1.318   3.737  10.401 -1.9409  0.3267 -0.3122
 5492TIP3    H240672   1.431   3.829  10.439 -0.0690 -1.4776 -1.2732
 5493TIP3   OH240673   6.027   2.559  11.371  0.4008 -0.3743  0.0908
 5493TIP3    H140674   6.091   2.629  11.387  0.8937 -0.7156 -0.3312
 5493TIP3    H240675   5.999   2.573  11.281 -1.8637  1.1480  0.9441
 5494TIP3   OH240676   5.389   3.628  12.146  0.2787  0.9667  0.4464
 5494TIP3    H140677   5.312   3.601  12.196  0.1889 -1.7146 -0.9816
 5494TIP3    H240678   5.385   3.577  12.065  1.9824  2.9944 -1.0261
 5495TIP3   OH240679   6.795   5.407  12.410 -0.0517  0.0050 -0.0536
 5495TIP3    H140680   6.701   5.416  12.398 -0.0367  1.5561  0.6753
 5495TIP3    H240681   6.812   5.314  12.400 -1.7635 -0.3977  0.4465
 5496TIP3   OH240682   6.127   5.841  12.270  0.8366  0.1398  0.0862
 5496TIP3    H140683   6.189   5.915  12.271  0.6329  0.3011  1.2361
 5496TIP3    H240684   6.063   5.861  12.338 -0.0136 -0.4456 -0.5139
 5497TIP3   OH240685   4.433   7.296  12.834 -1.0769 -0.3884  0.0250
 5497TIP3    H140686   4.403   7.268  12.921 -0.8699  0.7809  0.5052
 5497TIP3    H240687   4.497   7.365  12.853 -1.9737  0.7905 -1.0631
 5498TIP3   OH240688   3.641   0.617  12.019  0.0525 -0.1667 -0.0247
 5498TIP3    H140689   3.584   0.555  12.063  0.1773 -0.8478 -0.7966
 5498TIP3    H240690   3.589   0.651  11.946  0.3840 -0.2596 -0.3106
 5499TIP3   OH240691   4.520   5.043  12.411 -0.1925  0.0191  0.3771
 5499TIP3    H140692   4.572   5.124  12.416 -1.4074  0.7821  1.1964
 5499TIP3    H240693   4.572   4.979  12.459  0.9886  0.1788 -0.6367
 5500TIP3   OH240694   5.808   3.521  10.759 -0.0320  0.1060  0.1504
 5500TIP3    H140695   5.864   3.519  10.682 -0.3074 -1.6142 -0.0366
 5500TIP3    H240696   5.833   3.601  10.805  1.8049 -0.0646 -0.4893
 5501TIP3   OH240697   0.779   1.028  12.145 -0.0919 -0.7926  0.0598
 5501TIP3    H140698   0.752   0.958  12.205 -0.5884 -0.4059  0.2980
 5501TIP3    H240699   0.703   1.087  12.142  1.0082  0.7817  1.4102
 5502TIP3   OH240700   2.161   1.510  12.372 -0.3850  0.2408 -0.6745
 5502TIP3    H140701   2.226   1.447  12.340 -0.3993 -0.3607  0.4250
 5502TIP3    H240702   2.210   1.593  12.379 -0.0768  0.0974 -1.0669
 5503TIP3   OH240703   5.550   6.058  11.022  0.3407  0.2366 -0.3038
 5503TIP3    H140704   5.614   5.989  11.038 -0.5323 -0.6596 -0.5898
 5503TIP3    H240705   5.505   6.031  10.942 -2.0880 -0.4576  1.2025
 5504TIP3   OH240706   3.387   6.017  10.672  0.0445  0.2378 -0.2337
 5504TIP3    H140707   3.308   5.963  10.665 -0.1661  0.6938 -1.8937
 5504TIP3    H240708   3.386   6.050  10.761 -0.9670 -0.7716  0.1524
 5505TIP3   OH240709   3.476   2.486  12.183  0.3527  0.5937 -0.3834
 5505TIP3    H140710   3.469   2.522  12.271 -0.5929 -0.0658 -0.1781
 5505TIP3    H240711   3.442   2.397  12.190  0.6670  0.3815 -1.3300
 5506TIP3   OH240712   6.144   2.054  11.169 -0.4260  0.4129  0.2369
 5506TIP3    H140713   6.145   1.959  11.182 -0.5365  0.3466 -0.2522
 5506TIP3    H240714   6.095   2.087  11.245  1.8717  0.3099  1.8559
 5507TIP3   OH240715   3.141   3.736  10.929  0.2670  0.2426  0.3646
 5507TIP3    H140716   3.175   3.658  10.885 -1.4646 -0.4502  0.2138
 5507TIP3    H240717   3.051   3.744  10.899  0.5167  2.5822  0.0222
 5508TIP3   OH240718   6.656   0.537  11.703 -0.1737  0.9141  0.5143
 5508TIP3    H140719   6.746   0.515  11.678 -0.3342  2.2171 -1.3710
 5508TIP3    H240720   6.604   0.519  11.625 -1.2877  1.7336  1.0416
 5509TIP3   OH240721   0.676   0.389  12.211  0.2137 -0.3741 -0.6854
 5509TIP3    H140722   0.587   0.408  12.241 -0.1599 -1.1516 -1.2562
 5509TIP3    H240723   0.731   0.455  12.253 -1.0736  2.4465 -3.1008
 5510TIP3   OH240724   1.202   3.103  12.621 -0.2620  0.0378  0.2063
 5510TIP3    H140725   1.239   3.109  12.709 -2.0559 -0.2620  1.0401
 5510TIP3    H240726   1.277   3.085  12.564  0.9587  0.3642  1.6456
 5511TIP3   OH240727   1.685   3.789  10.693  0.1548  0.3584 -0.6756
 5511TIP3    H140728   1.641   3.727  10.751  0.5957  0.4162 -0.2830
 5511TIP3    H240729   1.637   3.871  10.704 -0.8587 -0.0624 -1.6970
 5512TIP3   OH240730   5.037   3.908  12.521 -0.4079  0.1248 -0.4693
 5512TIP3    H140731   5.127   3.903  12.553 -0.6688  0.6383  0.3757
 5512TIP3    H240732   5.024   4.001  12.500 -1.4399  0.5119  1.5970
 5513TIP3   OH240733   6.264   6.198  11.147 -0.0777  0.3816  0.0485
 5513TIP3    H140734   6.323   6.129  11.178  0.7468  0.7607 -0.6226
 5513TIP3    H240735   6.206   6.216  11.221  0.1080 -0.5823  0.4433
 5514TIP3   OH240736   0.499   5.543  12.843  0.6897  0.3617 -0.7871
 5514TIP3    H140737   0.583   5.584  12.823  0.5237  1.8608  1.2127
 5514TIP3    H240738   0.491   5.550  12.938 -0.8421 -1.5059 -0.7164
 5515TIP3   OH240739   5.862   2.688  11.561  0.1433  0.0391  0.5195
 5515TIP3    H140740   5.901   2.640  11.488  0.6763  0.3013  0.6292
 5515TIP3    H240741   5.817   2.621  11.612 -1.0746 -0.0134 -0.5759
 5516TIP3   OH240742   0.613   3.815  12.582  0.2365  0.0352 -0.0579
 5516TIP3    H140743   0.635   3.836  12.672 -0.1988 -0.4463  0.1648
 5516TIP3    H240744   0.697   3.792  12.541  0.3673 -0.2312  0.3569
 5517TIP3   OH240745   5.206   0.122  19.557 -0.0533  0.1536 -0.2058
 5517TIP3    H140746   5.284   0.167  19.525  0.1656 -1.0296 -1.4078
 5517TIP3    H240747   5.161   0.187  19.610  1.6094  0.9420  0.2893
 5518TIP3   OH240748   1.565   6.934  12.889 -0.2821 -0.0517 -0.4983
 5518TIP3    H140749   1.577   7.004  12.825 -0.6132  1.6696  1.2556
 5518TIP3    H240750   1.653   6.898  12.902  0.5553  2.3340  1.0522
 5519TIP3   OH240751   4.362   0.798  10.441  0.1283 -0.1767  0.1808
 5519TIP3    H140752   4.307   0.841  10.375 -0.3464 -2.3209 -0.9101
 5519TIP3    H240753   4.300   0.759  10.502  0.5594  0.6532  1.1940
 5520TIP3   OH240754   4.904   6.426  11.335 -0.3805  0.2405 -0.1846
 5520TIP3    H140755   4.941   6.352  11.384  0.6688 -0.5501 -2.0377
 5520TIP3    H240756   4.813   6.400  11.319  0.3661 -1.5375 -2.1904
 5521TIP3   OH240757   2.931   4.292  11.394 -0.3550  0.1332  0.1506
 5521TIP3    H140758   2.856   4.322  11.343  0.0624  0.9823  0.0176
 5521TIP3    H240759   3.000   4.354  11.374  0.1078 -0.0908  0.9952
 5522TIP3   OH240760   5.273   7.637  10.797 -0.0676 -0.6193 -0.6463
 5522TIP3    H140761   5.210   7.707  10.779  0.0517 -0.3125  0.0702
 5522TIP3    H240762   5.260   7.618  10.891 -1.0964 -2.5348 -1.1036
 5523TIP3   OH240763   1.014   6.839  13.486  0.2926  0.4265  0.5363
 5523TIP3    H140764   1.109   6.837  13.499  0.5486 -0.3178 -1.1252
 5523TIP3    H240765   1.001   6.902  13.415 -0.2967 -0.4580 -0.1705
 5524TIP3   OH240766   0.423   6.984  11.820 -0.0719  0.0956  0.0366
 5524TIP3    H140767   0.370   6.953  11.746  0.4209  0.5005 -0.4905
 5524TIP3    H240768   0.362   7.036  11.873  0.2727  2.5554 -1.7909
 5525TIP3   OH240769   5.451   4.282  12.104  0.2935  0.1473  0.1951
 5525TIP3    H140770   5.469   4.202  12.055 -1.2194 -0.0264 -0.1243
 5525TIP3    H240771   5.537   4.314  12.131  1.0738 -0.4035 -1.5334
 5526TIP3   OH240772   1.880   3.115  13.637  0.3469  0.0385  0.6239
 5526TIP3    H140773   1.934   3.086  13.563 -0.1754 -1.3602  0.7681
 5526TIP3    H240774   1.874   3.039  13.694  1.0404  1.2005  2.3291
 5527TIP3   OH240775   6.215   5.941  12.042 -0.2031 -0.1607 -0.7805
 5527TIP3    H140776   6.144   5.899  12.092 -0.6443  0.4360 -0.8917
 5527TIP3    H240777   6.207   5.905  11.954 -0.2843 -0.1987 -0.7581
 5528TIP3   OH240778   3.832   3.460  13.011  0.1023 -0.0078 -0.3800
 5528TIP3    H140779   3.908   3.449  13.068 -1.1183 -0.2777  1.2939
 5528TIP3    H240780   3.758   3.467  13.072 -1.4493 -1.6116 -1.9512
 5529TIP3   OH240781   5.608   0.409  18.470 -0.4311 -0.0389 -0.0269
 5529TIP3    H140782   5.693   0.400  18.514  0.1798  2.3721 -0.5494
 5529TIP3    H240783   5.629   0.417  18.377 -1.0876  1.7434 -0.0588
 5530TIP3   OH240784   3.079   6.335  13.109  0.6835  0.5463 -0.4804
 5530TIP3    H140785   3.067   6.337  13.014  0.9925 -0.3570 -0.5484
 5530TIP3    H240786   3.149   6.272  13.123  0.9329  0.9909  0.3260
 5531TIP3   OH240787   4.796   2.802  12.572  0.4105 -0.3649 -0.0096
 5531TIP3    H140788   4.841   2.801  12.656  0.1615  0.7050  0.1531
 5531TIP3    H240789   4.864   2.827  12.509  0.1353  0.9374  0.1907
 5532TIP3   OH240790   2.364   0.750  12.161 -0.4348  0.2764  0.1998
 5532TIP3    H140791   2.436   0.806  12.132 -0.0372  0.4805  1.5440
 5532TIP3    H240792   2.327   0.795  12.237 -0.1086 -1.2540  1.3171
 5533TIP3   OH240793   1.268   4.531  10.885  0.2018  0.3939 -0.0941
 5533TIP3    H140794   1.334   4.599  10.868 -0.0952  0.5344 -0.6862
 5533TIP3    H240795   1.224   4.561  10.965  0.4290  0.6281 -0.0547
 5534TIP3   OH240796   0.150   2.387  10.875  0.2090  0.0165 -0.4030
 5534TIP3    H140797   0.146   2.478  10.903 -0.2279  0.4616 -1.8337
 5534TIP3    H240798   0.242   2.373  10.850  0.6296 -0.4229  1.2940
 5535TIP3   OH240799   5.941   0.969  13.446 -0.1159  0.3879  0.9515
 5535TIP3    H140800   5.906   0.983  13.358  1.2411 -1.4591  0.0677
 5535TIP3    H240801   5.863   0.960  13.501 -1.0120  2.9175  0.2670
 5536TIP3   OH240802   3.003   1.971  10.707  0.1281  0.4532  0.1398
 5536TIP3    H140803   2.909   1.984  10.705  0.3194  2.3953  1.2154
 5536TIP3    H240804   3.036   2.022  10.632  0.3413 -0.1052 -0.1528
 5537TIP3   OH240805   1.734   3.015  11.850  0.1566  0.0826  0.3478
 5537TIP3    H140806   1.760   2.990  11.939  1.3307  0.2232  0.0652
 5537TIP3    H240807   1.683   3.095  11.861 -1.1719 -0.8208  1.0244
 5538TIP3   OH240808   1.692   6.820  10.411 -0.2275 -0.0837 -0.5082
 5538TIP3    H140809   1.670   6.737  10.368  0.5227 -0.0725 -0.9419
 5538TIP3    H240810   1.776   6.802  10.455  0.0771  0.5192 -0.8293
 5539TIP3   OH240811   0.035   6.249  12.669  0.2455  0.2486  0.0719
 5539TIP3    H140812  -0.046   6.199  12.676 -0.0443  0.4419 -1.5936
 5539TIP3    H240813   0.010   6.339  12.687  0.5097  0.0443  1.6428
 5540TIP3   OH240814   5.626   6.080  11.717  0.3334  0.2252  0.3147
 5540TIP3    H140815   5.534   6.105  11.714  0.0412 -0.2812  2.8133
 5540TIP3    H240816   5.669   6.135  11.651 -1.0005  3.9573  2.2683
 5541TIP3   OH240817   7.204   1.021  11.806 -0.7291 -0.0340 -0.0453
 5541TIP3    H140818   7.157   1.103  11.793  0.0187 -0.0312 -3.8265
 5541TIP3    H240819   7.154   0.956  11.758  1.6890 -0.4907 -2.1841
 5542TIP3   OH240820   0.741   5.905  10.854  0.4247 -0.0886 -0.0400
 5542TIP3    H140821   0.750   5.904  10.949  0.2050 -1.2751 -0.0202
 5542TIP3    H240822   0.650   5.878  10.838  0.6368 -0.5026 -0.5985
 5543TIP3   OH240823   3.878   1.558  12.578 -0.0213 -0.0028  0.2057
 5543TIP3    H140824   3.885   1.645  12.617 -1.0812 -0.1956  0.8676
 5543TIP3    H240825   3.967   1.522  12.584  0.5909  1.2727 -0.7229
 5544TIP3   OH240826   5.383   1.621  12.247 -0.3652  0.1690 -0.2673
 5544TIP3    H140827   5.392   1.713  12.221 -0.1343 -0.1350 -1.3099
 5544TIP3    H240828   5.289   1.605  12.247 -0.3751  0.2134 -0.7997
 5545TIP3   OH240829   3.048   5.340  10.573  0.0121  0.5127  0.5858
 5545TIP3    H140830   3.059   5.257  10.620  1.3447  2.0370  3.2066
 5545TIP3    H240831   3.134   5.382  10.578  0.2468  0.8811 -3.2924
 5546TIP3   OH240832   4.952   5.804  10.954 -0.2315 -0.1632 -0.1563
 5546TIP3    H140833   5.004   5.729  10.982  1.4483  0.9494 -0.1824
 5546TIP3    H240834   4.861   5.776  10.966  0.2945 -2.6150 -1.2414
 5547TIP3   OH240835   1.376   1.052  12.537 -0.2287 -0.5432  0.1597
 5547TIP3    H140836   1.400   1.133  12.492  2.6904  1.0382  3.9280
 5547TIP3    H240837   1.282   1.061  12.554 -0.6726  0.3659 -2.3860
 5548TIP3   OH240838   6.232   6.696  11.703 -0.5812 -0.3556  0.4073
 5548TIP3    H140839   6.161   6.747  11.742  0.8817  1.5473  0.7797
 5548TIP3    H240840   6.302   6.701  11.768  1.3131  1.3796 -1.6028
 5549TIP3   OH240841   0.206   1.332  11.507  0.0199 -0.2428  0.0176
 5549TIP3    H140842   0.144   1.386  11.556 -0.6649 -0.2242 -0.8331
 5549TIP3    H240843   0.152   1.263  11.469  0.0245  1.0929 -2.7042
 5550TIP3   OH240844   3.044   5.659  10.635  0.0463  0.1347 -0.2355
 5550TIP3    H140845   2.993   5.631  10.559  0.5379 -1.6427  0.0341
 5550TIP3    H240846   3.036   5.586  10.697 -0.1273  1.4379  1.3194
 5551TIP3   OH240847   7.137   7.516  11.019  0.2248 -0.0975 -0.0003
 5551TIP3    H140848   7.062   7.566  11.051  0.4435 -0.3303  0.8949
 5551TIP3    H240849   7.101   7.431  10.995  0.3577 -0.5788  1.4279
 5552TIP3   OH240850   4.347   2.020  11.396  0.6096 -0.3922 -0.2891
 5552TIP3    H140851   4.323   1.967  11.473 -1.5072  0.1062 -0.5230
 5552TIP3    H240852   4.264   2.062  11.370  0.9764 -1.4299 -3.5383
 5553TIP3   OH240853   7.190   6.782  11.577  0.0304  0.0743 -0.2957
 5553TIP3    H140854   7.117   6.752  11.630 -0.3402  2.1698  0.4861
 5553TIP3    H240855   7.153   6.796  11.490 -0.0896 -0.4405 -0.3303
 5554TIP3   OH240856   5.324   4.910  12.105 -0.2564 -0.3642 -0.1021
 5554TIP3    H140857   5.396   4.973  12.110 -0.9658  0.5209 -0.6876
 5554TIP3    H240858   5.356   4.833  12.152  0.2929  0.7695  1.4880
 5555TIP3   OH240859   1.221   2.697  13.212  0.1981  0.6687  0.0597
 5555TIP3    H140860   1.234   2.645  13.291 -0.5884 -2.7607 -1.8655
 5555TIP3    H240861   1.297   2.679  13.158 -0.8804  0.1370 -1.3402
 5556TIP3   OH240862   2.686   1.466  12.128  0.3647 -0.3978  0.1075
 5556TIP3    H140863   2.724   1.546  12.093 -1.3797 -0.1105 -1.2620
 5556TIP3    H240864   2.694   1.476  12.223  0.0991  1.4459 -0.0253
 5557TIP3   OH240865   3.822   1.287  12.103 -0.3393  0.4007  0.1041
 5557TIP3    H140866   3.833   1.203  12.148  1.0000  0.7022  0.3784
 5557TIP3    H240867   3.899   1.338  12.128 -1.1500  1.7349 -0.0322
 5558TIP3   OH240868   4.145   6.990  12.638  0.3670  0.0919 -0.2016
 5558TIP3    H140869   4.132   6.948  12.723  0.3948 -0.0677 -0.2758
 5558TIP3    H240870   4.095   7.071  12.643 -4.5930 -2.4345 -2.0537
 5559TIP3   OH240871   5.105   7.110  12.019  0.2480 -0.2233  0.1474
 5559TIP3    H140872   5.182   7.123  11.964  0.5425  2.4694  1.0243
 5559TIP3    H240873   5.139   7.109  12.109 -0.5026 -1.7683  0.4494
 5560TIP3   OH240874   5.497   6.913  12.858  0.2059  0.2229 -0.5474
 5560TIP3    H140875   5.431   6.907  12.927  0.9758  0.3214  0.2244
 5560TIP3    H240876   5.519   6.822  12.837 -0.2308  0.1901 -0.8656
 5561TIP3   OH240877   7.008   5.750  12.399  0.3062  0.5289 -0.0729
 5561TIP3    H140878   7.081   5.794  12.355  0.6812 -0.5462 -0.5579
 5561TIP3    H240879   7.022   5.657  12.382 -1.2454  0.3053 -0.2540
 5562TIP3   OH240880   0.832   1.819  12.226 -0.9103  0.6932 -0.1032
 5562TIP3    H140881   0.865   1.837  12.138 -0.8042 -1.1995 -0.4998
 5562TIP3    H240882   0.908   1.826  12.283 -0.7725  0.9249 -0.3164
 5563TIP3   OH240883   6.194   2.342  12.776 -0.0673 -0.0270 -0.1781
 5563TIP3    H140884   6.220   2.371  12.689  1.0974 -1.1074 -0.2167
 5563TIP3    H240885   6.163   2.421  12.820  0.4608  0.7460 -1.1785
 5564TIP3   OH240886   2.016   4.805  11.827 -0.2983  0.1268  0.0658
 5564TIP3    H140887   2.052   4.754  11.900 -0.8908  0.1558  0.3795
 5564TIP3    H240888   2.091   4.857  11.796  0.2417 -0.7091 -0.0773
 5565TIP3   OH240889   5.886   5.767  12.690  0.3250  0.2828  0.1382
 5565TIP3    H140890   5.862   5.686  12.734 -0.0851 -0.0336 -0.6363
 5565TIP3    H240891   5.905   5.829  12.760 -0.9403 -0.0095  0.7709
 5566TIP3   OH240892   6.671   3.027  13.289  0.1089 -0.3916  0.3804
 5566TIP3    H140893   6.750   2.988  13.252  0.5231 -1.4168  2.1983
 5566TIP3    H240894   6.688   3.121  13.288  1.8160 -0.6272  1.6066
 5567TIP3   OH240895   5.628   3.110  13.458  0.2539  0.8210  0.8480
 5567TIP3    H140896   5.669   3.079  13.538  2.8604  1.2835 -0.1972
 5567TIP3    H240897   5.587   3.193  13.482 -0.5099  0.1317  2.0356
 5568TIP3   OH240898   3.845   4.270  10.585 -0.3179  0.9198  0.0727
 5568TIP3    H140899   3.775   4.244  10.645 -0.6245  0.6162 -0.4077
 5568TIP3    H240900   3.802   4.273  10.499  0.3859  0.1855 -0.3097
 5569TIP3   OH240901   5.881   2.201  11.253  0.0875  0.2829 -0.1383
 5569TIP3    H140902   5.899   2.217  11.160 -1.2670  0.2743 -0.4248
 5569TIP3    H240903   5.886   2.287  11.294 -1.2879  0.6077 -0.6021
 5570TIP3   OH240904   4.451   2.810  11.227 -0.5005 -0.9771  0.0458
 5570TIP3    H140905   4.489   2.897  11.233  1.3597 -1.8391  1.5256
 5570TIP3    H240906   4.518   2.758  11.182 -1.6106 -1.6507 -0.8739
 5571TIP3   OH240907   6.775   4.027  12.263  0.3023 -0.3205 -0.3357
 5571TIP3    H140908   6.845   3.998  12.322  0.1121  1.2809  0.7259
 5571TIP3    H240909   6.820   4.046  12.181  0.9760 -0.1578  0.0593
 5572TIP3   OH240910   3.647   1.313  12.720  0.1456 -0.1548  0.1686
 5572TIP3    H140911   3.705   1.261  12.664  0.3825 -0.5764  0.8004
 5572TIP3    H240912   3.705   1.356  12.782 -0.0407  0.9259 -0.3798
 5573TIP3   OH240913   1.088   5.367  12.591  0.0637 -0.4183  0.8163
 5573TIP3    H140914   1.124   5.280  12.606  0.2409 -0.5558 -0.3304
 5573TIP3    H240915   1.128   5.395  12.509  0.5497  1.0347  1.5123
 5574TIP3   OH240916   7.255   2.614  11.055  0.4183  0.2959  0.1992
 5574TIP3    H140917   7.215   2.604  10.969  1.5910 -1.6616 -0.1696
 5574TIP3    H240918   7.316   2.688  11.045  0.5440  0.0812 -0.6628
 5575TIP3   OH240919   6.114   7.313  11.749  0.2097 -0.2097  0.4822
 5575TIP3    H140920   6.032   7.273  11.720 -0.7524 -0.3259  3.1195
 5575TIP3    H240921   6.153   7.250  11.808  1.5097  0.4566  0.3838
 5576TIP3   OH240922   0.652   2.572  12.018 -0.4579 -0.3305 -0.1868
 5576TIP3    H140923   0.643   2.496  11.960 -1.4784  0.2370 -0.8183
 5576TIP3    H240924   0.674   2.535  12.103  0.2639 -1.2461 -0.7477
 5577TIP3   OH240925   6.175   6.478  11.142 -0.4290  0.3168  0.1914
 5577TIP3    H140926   6.119   6.407  11.111 -1.2359  1.0194  0.0029
 5577TIP3    H240927   6.264   6.441  11.140 -0.6601 -0.2384 -1.2205
 5578TIP3   OH240928   1.893   4.401  11.536  0.1293  0.8702  0.1581
 5578TIP3    H140929   1.924   4.328  11.590  1.9010  0.0473 -1.8272
 5578TIP3    H240930   1.804   4.378  11.513  1.1551 -1.5569 -1.7409
 5579TIP3   OH240931   7.235   4.392  10.926  0.6215 -0.5999  0.3637
 5579TIP3    H140932   7.322   4.382  10.963  0.8205 -1.4736 -0.2868
 5579TIP3    H240933   7.182   4.325  10.970 -0.2755  1.2689  2.2666
 5580TIP3   OH240934   6.503   4.071  10.787 -0.2319  0.1024 -0.0754
 5580TIP3    H140935   6.469   4.160  10.794  0.4629  0.3432  0.2772
 5580TIP3    H240936   6.426   4.015  10.803 -0.1740  0.6288  2.4807
 5581TIP3   OH240937   4.839   0.413  13.014  0.3238  0.5963 -0.2350
 5581TIP3    H140938   4.929   0.397  13.042  0.0220 -0.4700  0.1708
 5581TIP3    H240939   4.847   0.469  12.937  1.2846  1.3569  0.4036
 5582TIP3   OH240940   0.313   7.667  13.678  0.2195  0.3185  0.0120
 5582TIP3    H140941   0.296   7.576  13.700  0.6941  0.5149  1.3285
 5582TIP3    H240942   0.233   7.698  13.635 -0.7170 -0.1821  1.3341
 5583TIP3   OH240943   2.269   0.892  11.948 -1.0224 -0.5821  0.3152
 5583TIP3    H140944   2.243   0.976  11.985  1.4378  0.4447 -0.1245
 5583TIP3    H240945   2.310   0.845  12.021 -1.1495 -0.8321  0.2273
 5584TIP3   OH240946   6.537   1.097  11.877 -0.3624  0.0153 -0.1579
 5584TIP3    H140947   6.583   1.167  11.831 -0.7373  1.2287  1.2266
 5584TIP3    H240948   6.510   1.037  11.808  1.1921  0.4933 -1.2459
 5585TIP3   OH240949   3.824   2.820  11.164  0.4050  0.0164 -0.1278
 5585TIP3    H140950   3.734   2.801  11.191 -0.5980  0.4715 -2.8234
 5585TIP3    H240951   3.826   2.916  11.154  1.6300  0.1558  1.2045
 5586TIP3   OH240952   6.196   7.349  10.719 -0.3827  0.1115 -0.0373
 5586TIP3    H140953   6.155   7.414  10.664  0.8382 -0.5257 -1.7812
 5586TIP3    H240954   6.131   7.330  10.787 -1.3151  2.0367 -0.3395
 5587TIP3   OH240955   0.607   6.810  11.705 -0.3774 -0.1588  0.0669
 5587TIP3    H140956   0.556   6.872  11.757 -2.3875 -0.7354 -1.1168
 5587TIP3    H240957   0.542   6.752  11.666  1.3082 -1.8850 -0.3431
 5588TIP3   OH240958   2.281   7.144  12.716 -0.3708  0.7721 -0.1400
 5588TIP3    H140959   2.323   7.084  12.656 -0.0221  0.2729  0.5873
 5588TIP3    H240960   2.234   7.088  12.777  1.2746  1.0965  1.5377
 5589TIP3   OH240961   4.635   6.511  10.881 -0.3877 -0.0595 -0.4169
 5589TIP3    H140962   4.572   6.489  10.813 -1.3487 -3.0014  1.2602
 5589TIP3    H240963   4.687   6.431  10.892  0.9212  0.9415  1.0743
 5590TIP3   OH240964   5.492   2.553  11.120  0.4909  0.3677  0.3004
 5590TIP3    H140965   5.444   2.636  11.116 -1.3160 -0.6946 -1.6118
 5590TIP3    H240966   5.440   2.497  11.177  0.4360 -0.2158 -0.3170
 5591TIP3   OH240967   3.478   2.426  11.521  0.0342 -0.0669 -0.8435
 5591TIP3    H140968   3.477   2.521  11.517 -0.5595 -0.0550 -0.4099
 5591TIP3    H240969   3.562   2.405  11.562 -0.4329  0.3172  0.3335
 5592TIP3   OH240970   4.133   0.616  13.235  0.4522 -0.1941  0.0537
 5592TIP3    H140971   4.112   0.619  13.142  1.3105  1.9476 -0.1216
 5592TIP3    H240972   4.220   0.577  13.239  0.0467 -1.1218  0.0577
 5593TIP3   OH240973   1.476   4.738  10.914  0.1618  0.2573  0.5436
 5593TIP3    H140974   1.569   4.759  10.910  0.4505 -0.9864  0.1162
 5593TIP3    H240975   1.432   4.818  10.888  1.1242  0.7955  0.5219
 5594TIP3   OH240976   2.011   0.995  12.342  0.3745  0.2473  0.0501
 5594TIP3    H140977   2.079   0.936  12.376  1.8313  0.6708 -1.9455
 5594TIP3    H240978   1.972   0.946  12.270  1.3313  1.4883 -1.3718
 5595TIP3   OH240979   2.099   3.411  10.637 -0.0906  0.3912  0.0930
 5595TIP3    H140980   2.170   3.450  10.585  0.5180 -0.0353  0.5889
 5595TIP3    H240981   2.107   3.453  10.722  1.5481 -1.8585  1.1325
 5596TIP3   OH240982   3.089   0.667  10.548 -0.1311  0.0404 -0.3572
 5596TIP3    H140983   3.158   0.640  10.488  1.4574  1.2598  0.8298
 5596TIP3    H240984   3.022   0.599  10.539  0.5123 -0.3770 -2.6671
 5597TIP3   OH240985   2.754   2.443  13.021 -0.1612  0.8471 -0.5067
 5597TIP3    H140986   2.711   2.426  12.937  0.4154  1.3806 -0.9183
 5597TIP3    H240987   2.715   2.380  13.081 -1.5351  1.3058 -0.8644
 5598TIP3   OH240988   3.831   5.960  11.681  0.8397  0.6002  0.1365
 5598TIP3    H140989   3.771   6.031  11.702 -0.7321 -0.8280  0.7282
 5598TIP3    H240990   3.784   5.907  11.616  2.4698  0.7331 -1.2091
 5599TIP3   OH240991   1.137   1.878  12.468  0.1071 -0.2266  0.0925
 5599TIP3    H140992   1.190   1.918  12.537 -0.9723  0.8637  0.3295
 5599TIP3    H240993   1.188   1.890  12.388  0.4315  0.3797  0.3852
 5600TIP3   OH240994   4.668   5.066  10.590 -0.5603 -0.1216 -0.1115
 5600TIP3    H140995   4.608   5.023  10.652  0.0274 -0.6608  0.0956
 5600TIP3    H240996   4.644   5.029  10.505 -0.1257 -0.7974  0.0521
 5601TIP3   OH240997   2.136   1.623  11.298  0.3756  0.1836  0.2860
 5601TIP3    H140998   2.126   1.699  11.354  1.6678  0.0413  0.7429
 5601TIP3    H240999   2.051   1.579  11.301 -0.0535  1.0386  0.8494
 5602TIP3   OH241000   0.164   6.542  12.426  0.2323 -0.2152 -0.3941
 5602TIP3    H141001   0.078   6.511  12.398 -0.4428  0.5745  0.7837
 5602TIP3    H241002   0.172   6.629  12.388 -2.0179  2.2611  4.0891
 5603TIP3   OH241003   0.178   5.734  11.892 -0.0599  0.3681  0.1608
 5603TIP3    H141004   0.152   5.680  11.818  0.8833  0.8763 -0.5581
 5603TIP3    H241005   0.105   5.795  11.904 -0.6232 -0.3067  0.2541
 5604TIP3   OH241006   6.673   3.488  12.465  0.4354  0.2313  0.3930
 5604TIP3    H141007   6.609   3.485  12.536  1.6776 -0.1482  1.5517
 5604TIP3    H241008   6.683   3.581  12.446  0.2067  0.3481  0.8320
 5605TIP3   OH241009   5.238   3.220  12.612  0.3769  0.4989 -0.3761
 5605TIP3    H141010   5.235   3.138  12.563 -3.0006  1.5526 -2.2485
 5605TIP3    H241011   5.259   3.287  12.547  0.8924  1.3810  0.6601
 5606TIP3   OH241012   3.336   2.472  12.610  0.1455  0.4699  0.1895
 5606TIP3    H141013   3.264   2.520  12.650 -0.6628 -1.2092  0.8180
 5606TIP3    H241014   3.406   2.475  12.676  0.0199  0.5631  0.3182
 5607TIP3   OH241015   0.761   6.368  12.399  0.1392  0.0265  0.4137
 5607TIP3    H141016   0.701   6.430  12.440  1.3064 -0.3977  2.9556
 5607TIP3    H241017   0.783   6.408  12.315 -1.2895  1.6757  0.7717
 5608TIP3   OH241018   7.584   5.088  12.138  0.3113  0.1522  0.3983
 5608TIP3    H141019   7.632   5.069  12.057 -0.9483 -1.1965 -0.0787
 5608TIP3    H241020   7.525   5.159  12.114 -0.1022 -0.2852  0.1005
 5609TIP3   OH241021   5.889   2.285  12.333  0.9493 -0.1265 -0.0241
 5609TIP3    H141022   5.944   2.361  12.313  0.3503  0.3079 -0.0644
 5609TIP3    H241023   5.846   2.308  12.416  0.6265 -0.3408 -0.1300
 5610TIP3   OH241024   0.848   3.755  11.478 -0.0568  0.3128  0.0121
 5610TIP3    H141025   0.936   3.748  11.441 -0.1585 -0.9920 -0.0003
 5610TIP3    H241026   0.818   3.665  11.489 -0.4373  0.6450  2.3041
 5611TIP3   OH241027   5.570   6.443  12.957  0.4124 -0.4577 -0.5410
 5611TIP3    H141028   5.554   6.350  12.943 -0.8322 -0.0680 -1.9284
 5611TIP3    H241029   5.517   6.465  13.034 -0.1156 -0.6664 -0.8467
 5612TIP3   OH241030   0.839   4.893  11.974  0.0618  0.4671  0.2947
 5612TIP3    H141031   0.894   4.965  12.004 -0.8674  1.4398 -0.2472
 5612TIP3    H241032   0.788   4.869  12.052 -0.5901  1.3325  0.1609
 5613TIP3   OH241033   4.488   0.340  13.718 -0.4393  0.1974  0.2264
 5613TIP3    H141034   4.404   0.380  13.695 -0.8350 -0.2079  0.9072
 5613TIP3    H241035   4.537   0.337  13.636 -0.4851  1.8276  0.1131
 5614TIP3   OH241036   3.857   5.426  11.351  0.5481 -0.2615  0.6669
 5614TIP3    H141037   3.768   5.459  11.365 -0.1543 -1.4635 -0.6319
 5614TIP3    H241038   3.913   5.504  11.355 -0.7378  0.7192  0.1392
 5615TIP3   OH241039   5.198   1.190  11.756 -0.1141  0.1980  0.1439
 5615TIP3    H141040   5.127   1.166  11.815  0.9623  0.8231  1.7368
 5615TIP3    H241041   5.177   1.278  11.727  0.7036  0.9594  1.7655
 5616TIP3   OH241042   3.744   7.673  11.708  0.4053  0.3204 -0.3839
 5616TIP3    H141043   3.738   7.760  11.668 -1.1725  0.5075  0.2014
 5616TIP3    H241044   3.752   7.613  11.634  0.5368  0.8821 -0.8353
 5617TIP3   OH241045   7.672   4.551  12.228 -0.1955 -0.3355 -0.0969
 5617TIP3    H141046   7.664   4.638  12.266  0.5506  0.0010 -0.6954
 5617TIP3    H241047   7.596   4.542  12.171 -0.3409 -0.1320  0.0610
 5618TIP3   OH241048   7.253   1.826  11.663  0.4742 -0.0366  0.1846
 5618TIP3    H141049   7.249   1.896  11.597 -0.7492 -1.4317 -1.3021
 5618TIP3    H241050   7.182   1.767  11.639  1.9044 -2.1797  0.9510
 5619TIP3   OH241051   1.906   2.483  12.072  0.5925 -0.1695  0.1902
 5619TIP3    H141052   1.821   2.462  12.033  0.8877 -0.4597 -0.3076
 5619TIP3    H241053   1.954   2.400  12.071  1.3826  0.2760 -0.7881
 5620TIP3   OH241054   0.584   5.697  12.272 -0.0667 -0.2509 -0.3533
 5620TIP3    H141055   0.653   5.686  12.338  1.3148 -1.4709 -1.9279
 5620TIP3    H241056   0.561   5.608  12.246 -1.2445  0.1936 -0.8902
 5621TIP3   OH241057   2.969   4.811  13.035  0.2596  0.5491  0.1947
 5621TIP3    H141058   3.061   4.786  13.024  0.0175 -1.2065  1.6395
 5621TIP3    H241059   2.958   4.821  13.130 -1.1108  0.3660  0.0839
 5622TIP3   OH241060   1.117   6.815  10.213  0.2191 -0.1519  0.3284
 5622TIP3    H141061   1.037   6.839  10.261 -0.0031 -2.0325  0.9808
 5622TIP3    H241062   1.187   6.859  10.261 -0.2434 -0.0068  0.8858
 5623TIP3   OH241063   6.247   4.135  12.906  0.2619  0.4332  0.2203
 5623TIP3    H141064   6.240   4.192  12.982 -0.4080  0.4199  0.1745
 5623TIP3    H241065   6.242   4.046  12.942  1.4230  0.3800  0.3045
 5624TIP3   OH241066   2.797   4.811  12.494 -0.2712 -0.0020 -0.2917
 5624TIP3    H141067   2.857   4.766  12.554 -1.3755 -0.9879  0.1221
 5624TIP3    H241068   2.792   4.901  12.527 -0.9404 -0.5513  1.1977
 5625TIP3   OH241069   0.920   2.631  11.827 -0.9717  0.3628  0.3765
 5625TIP3    H141070   0.871   2.565  11.778 -0.1123 -0.0404  0.0415
 5625TIP3    H241071   0.952   2.585  11.904 -0.4411  0.3988  0.1844
 5626TIP3   OH241072   7.484   2.372  11.373  0.0301 -0.2641  0.4284
 5626TIP3    H141073   7.527   2.289  11.394  1.6323  0.3089 -0.4740
 5626TIP3    H241074   7.513   2.432  11.442  0.6282  0.1039 -0.1399
 5627TIP3   OH241075   6.586   4.198  13.477 -0.1318 -0.2327 -0.4546
 5627TIP3    H141076   6.600   4.129  13.412  0.0602 -1.3448  0.7464
 5627TIP3    H241077   6.506   4.174  13.522 -0.8660  1.1210 -0.9791
 5628TIP3   OH241078   1.135   4.101  11.301  0.2459 -0.2484 -0.1095
 5628TIP3    H141079   1.045   4.133  11.313  0.4588  0.3306 -0.0151
 5628TIP3    H241080   1.138   4.070  11.211 -0.0037 -0.1193 -0.1643
 5629TIP3   OH241081   6.199   2.504  10.874  0.0643  0.4286 -0.0983
 5629TIP3    H141082   6.275   2.478  10.822  0.6385  0.9473  0.4687
 5629TIP3    H241083   6.196   2.600  10.865 -1.3810  0.3198 -1.2855
 5630TIP3   OH241084   7.144   6.417  11.608  0.2154  0.4479 -0.4280
 5630TIP3    H141085   7.159   6.322  11.610 -0.2418  0.3774 -0.1591
 5630TIP3    H241086   7.101   6.432  11.523 -1.6364  0.0990  0.3900
 5631TIP3   OH241087   0.968   4.966  11.146 -0.0962 -0.5631  0.5769
 5631TIP3    H141088   1.037   4.964  11.213  0.8348  1.0366 -0.2603
 5631TIP3    H241089   1.002   4.911  11.076 -0.3289 -0.9104  0.7317
 5632TIP3   OH241090   4.806   3.231  11.476 -0.3506 -0.1559  0.4236
 5632TIP3    H141091   4.892   3.211  11.438 -0.6017 -1.2538  0.4202
 5632TIP3    H241092   4.778   3.311  11.430 -0.3639 -1.0931 -1.2889
 5633TIP3   OH241093   2.552   1.222  12.143  0.3582 -0.3322 -0.3357
 5633TIP3    H141094   2.503   1.229  12.061  0.6186 -1.5267 -0.6199
 5633TIP3    H241095   2.601   1.304  12.149  0.4305 -0.2779 -1.4464
 5634TIP3   OH241096   0.526   3.375  10.441  0.0681  0.2917  0.0018
 5634TIP3    H141097   0.609   3.350  10.484  0.9719 -1.4628 -2.5370
 5634TIP3    H241098   0.551   3.445  10.381 -0.4623  0.3217 -0.1820
 5635TIP3   OH241099   2.607   5.814  11.761  0.5225  0.2045  0.4269
 5635TIP3    H141100   2.654   5.863  11.693  0.1279  0.1988  0.1468
 5635TIP3    H241101   2.675   5.788  11.823  1.1719 -1.2053 -0.7892
 5636TIP3   OH241102   0.015   5.883  11.377 -0.0324  0.5311 -0.3586
 5636TIP3    H141103   0.024   5.868  11.283  0.2524 -1.1043 -0.0973
 5636TIP3    H241104  -0.031   5.806  11.410  2.1406 -0.2268  1.2121
 5637TIP3   OH241105   2.823   2.674  11.730 -0.0887 -0.3015  0.6838
 5637TIP3    H141106   2.869   2.754  11.704  1.2974 -0.1829  3.1920
 5637TIP3    H241107   2.741   2.705  11.770 -0.6383 -0.2995 -0.4163
 5638TIP3   OH241108   0.326   0.315  11.885 -0.1975  0.0707 -0.1480
 5638TIP3    H141109   0.421   0.314  11.899  0.1371 -0.8150 -2.0989
 5638TIP3    H241110   0.289   0.317  11.973  1.6186  1.2153  0.6553
 5639TIP3   OH241111   0.825   7.294  12.085 -0.0645  0.4455  0.5980
 5639TIP3    H141112   0.808   7.209  12.045 -0.7558  1.3633 -1.1512
 5639TIP3    H241113   0.840   7.353  12.012 -1.0714  2.1521  1.6868
 5640TIP3   OH241114   2.095   2.543  12.357 -0.1374  0.9080 -0.2620
 5640TIP3    H141115   2.128   2.586  12.436 -1.6927  1.0001  0.3907
 5640TIP3    H241116   2.000   2.555  12.362 -0.5033 -1.3446 -0.8111
 5641TIP3   OH241117   0.563   0.471  11.500  0.2978 -0.4662  0.0103
 5641TIP3    H141118   0.623   0.525  11.449  1.1793 -1.1227  0.3333
 5641TIP3    H241119   0.545   0.523  11.579 -1.2390  0.6448 -1.0081
 5642TIP3   OH241120   0.750   1.968  11.839  0.5907 -0.0890 -0.0290
 5642TIP3    H141121   0.688   1.940  11.772 -0.0807 -0.8861  0.9071
 5642TIP3    H241122   0.787   1.887  11.874 -0.5482  0.1848  1.9363
 5643TIP3   OH241123   2.832   7.498  11.134 -0.4357 -0.0653 -0.1584
 5643TIP3    H141124   2.839   7.403  11.128 -0.8774 -0.1521  0.5590
 5643TIP3    H241125   2.743   7.514  11.164 -0.2008  0.5465  0.2337
 5644TIP3   OH241126   6.755   7.336  11.856  0.4676  1.0153 -0.0030
 5644TIP3    H141127   6.833   7.310  11.904  0.9946  0.5589 -1.0742
 5644TIP3    H241128   6.787   7.382  11.778 -0.4154  3.4023  0.9487
 5645TIP3   OH241129   1.900   3.750  11.402  0.3750  0.6871  0.2716
 5645TIP3    H141130   1.910   3.686  11.473  0.7730 -1.7767 -1.8623
 5645TIP3    H241131   1.979   3.741  11.350 -1.6534 -0.8093 -2.8662
 5646TIP3   OH241132   6.152   0.236  12.964 -0.7655 -0.0166 -0.2405
 5646TIP3    H141133   6.213   0.164  12.947  0.6360  0.9759  0.4404
 5646TIP3    H241134   6.207   0.314  12.970 -2.2783  1.2274 -1.4437
 5647TIP3   OH241135   0.463   4.690  10.475 -0.0879  0.2383  0.4396
 5647TIP3    H141136   0.451   4.774  10.430  0.5723 -0.4049 -0.9690
 5647TIP3    H241137   0.554   4.666  10.456 -0.7059 -1.5163 -0.4338
 5648TIP3   OH241138   6.239   6.325  12.306  0.1205  0.7940 -0.1435
 5648TIP3    H141139   6.301   6.392  12.336 -1.3013  1.1717  2.2594
 5648TIP3    H241140   6.182   6.372  12.245  1.8680  0.5303 -2.1001
 5649TIP3   OH241141   5.601   5.616  10.413  0.4618 -0.0515 -0.3138
 5649TIP3    H141142   5.519   5.593  10.367 -0.2217  0.4579  0.6233
 5649TIP3    H241143   5.659   5.541  10.397  0.6827  0.5887 -2.9817
 5650TIP3   OH241144   0.246   0.096  12.973  0.4431 -0.7165 -0.3636
 5650TIP3    H141145   0.188   0.083  13.048  2.2243  0.0593  1.2284
 5650TIP3    H241146   0.248   0.011  12.929 -2.2956 -0.6209 -0.8431
 5651TIP3   OH241147   4.019   4.351  11.363  0.1927 -0.0977 -0.5028
 5651TIP3    H141148   4.104   4.320  11.393  0.3625 -0.3124 -1.1821
 5651TIP3    H241149   4.017   4.443  11.390 -0.3947 -0.7011  1.6828
 5652TIP3   OH241150   5.153   2.381  11.506  0.1005  0.3480 -0.4976
 5652TIP3    H141151   5.174   2.293  11.537  1.2069  0.9220  0.4646
 5652TIP3    H241152   5.058   2.384  11.502  0.0530 -0.9272 -0.6771
 5653TIP3   OH241153   0.617   2.104  11.554  0.1570  0.0702 -0.2942
 5653TIP3    H141154   0.570   2.083  11.473 -1.0779  0.9566  0.1646
 5653TIP3    H241155   0.552   2.093  11.623  0.6469  1.1790  0.3722
 5654TIP3   OH241156   6.356   3.833  13.323  0.2922 -0.3387 -0.4623
 5654TIP3    H141157   6.411   3.770  13.370 -0.0637 -0.2430  0.0925
 5654TIP3    H241158   6.278   3.784  13.300  0.4006 -0.3423 -0.8237
 5655TIP3   OH241159   0.070   0.341  11.756 -0.0384 -0.1488  0.6938
 5655TIP3    H141160   0.159   0.326  11.787 -0.2612  0.8268  1.8645
 5655TIP3    H241161   0.016   0.345  11.835 -0.7968  1.2980  0.1584
 5656TIP3   OH241162   1.537   3.376  11.062 -0.1759  0.1579 -0.0108
 5656TIP3    H141163   1.594   3.324  11.005 -0.4295  1.4868 -1.5748
 5656TIP3    H241164   1.592   3.398  11.137  0.0647 -1.9201  0.4690
 5657TIP3   OH241165   3.764   7.408  13.577 -0.5766 -0.2477 -0.7183
 5657TIP3    H141166   3.673   7.437  13.576  0.0468  1.8564 -0.4610
 5657TIP3    H241167   3.815   7.485  13.550  1.2273 -0.9419  0.4845
 5658TIP3   OH241168   1.450   6.574  11.964  0.0737 -0.2763  0.4342
 5658TIP3    H141169   1.509   6.504  11.990  1.6497  0.8237 -0.0607
 5658TIP3    H241170   1.390   6.584  12.038  0.9792 -0.9062  1.2669
 5659TIP3   OH241171   1.052   4.534  11.333  0.1784  0.3029  0.0483
 5659TIP3    H141172   0.964   4.497  11.330  0.4706 -0.4033 -2.1842
 5659TIP3    H241173   1.057   4.578  11.418 -2.0161 -0.3412  0.5844
 5660TIP3   OH241174   6.764   6.646  10.298  0.1691  0.0200  0.0797
 5660TIP3    H141175   6.729   6.648  10.209  2.0892 -1.0232 -0.7551
 5660TIP3    H241176   6.749   6.557  10.328  1.5016 -0.2539 -0.0486
 5661TIP3   OH241177   2.702   3.821  11.560 -0.0856  0.4485 -0.6125
 5661TIP3    H141178   2.645   3.896  11.547  0.3199  0.5850 -1.7389
 5661TIP3    H241179   2.686   3.793  11.650 -0.1195  1.9744 -0.1224
 5662TIP3   OH241180   4.925   0.644  13.376  0.0973 -0.0948 -0.2023
 5662TIP3    H141181   4.872   0.565  13.359 -1.3006  0.7958 -0.1744
 5662TIP3    H241182   4.991   0.644  13.307  0.0272 -1.2152 -0.2878
 5663TIP3   OH241183   3.032   5.319  11.805  0.1746  0.4747 -0.4055
 5663TIP3    H141184   3.110   5.266  11.819 -1.2615 -1.7986 -0.4547
 5663TIP3    H241185   2.977   5.302  11.881 -0.4247  1.7398 -0.5409
 5664TIP3   OH241186   5.604   1.042  11.214  0.2613 -0.0589 -0.6125
 5664TIP3    H141187   5.583   1.044  11.308  0.0886 -0.9965 -0.6234
 5664TIP3    H241188   5.668   0.971  11.205 -3.1341 -3.3241 -1.8131
 5665TIP3   OH241189   0.317   6.097  11.095  0.3403 -0.2980  0.5968
 5665TIP3    H141190   0.263   6.175  11.081 -1.2993 -1.1913  1.6107
 5665TIP3    H241191   0.350   6.074  11.008 -1.0035  0.2328 -0.0801
 5666TIP3   OH241192   0.193   4.180  10.832  0.3490 -0.5692 -0.0801
 5666TIP3    H141193   0.267   4.138  10.875  0.4209  0.6798  1.1104
 5666TIP3    H241194   0.120   4.171  10.894  0.2429  0.5616 -0.0062
 5667TIP3   OH241195   3.165   7.131  10.690 -0.4254  0.2942  0.2770
 5667TIP3    H141196   3.082   7.157  10.729 -0.7515 -1.1805  0.6440
 5667TIP3    H241197   3.140   7.077  10.614  0.2060  1.4073 -0.7659
 5668TIP3   OH241198   3.238   1.420  11.162 -0.2014 -0.0473 -0.0605
 5668TIP3    H141199   3.239   1.499  11.217  0.2348 -0.1749  0.1202
 5668TIP3    H241200   3.314   1.370  11.191  0.6427  0.3478 -1.4699
 5669TIP3   OH241201   3.345   3.429  10.892  0.0163 -0.1180 -0.2553
 5669TIP3    H141202   3.348   3.381  10.810 -0.1626 -2.2564  0.9317
 5669TIP3    H241203   3.432   3.469  10.899  0.0545  0.0425 -1.4108
 5670TIP3   OH241204   5.548   2.198  12.728  0.3467 -0.8016  0.1595
 5670TIP3    H141205   5.517   2.289  12.728  0.1498 -0.8683 -0.2885
 5670TIP3    H241206   5.534   2.168  12.639  0.8956 -1.1124  0.1760
 5671TIP3   OH241207   4.411   5.157  13.155  0.0723  0.2898  0.5306
 5671TIP3    H141208   4.503   5.131  13.163 -0.1445 -0.0811  2.2578
 5671TIP3    H241209   4.414   5.251  13.134  0.8404  0.0981 -0.2442
 5672TIP3   OH241210   2.061   6.558  11.502 -0.5286 -0.3273  0.7578
 5672TIP3    H141211   2.087   6.632  11.556 -1.5242  0.6853 -0.0819
 5672TIP3    H241212   1.992   6.594  11.445 -0.1852 -1.5892 -0.4978
 5673TIP3   OH241213   1.095   0.114  11.198  0.1183 -0.1969  0.2946
 5673TIP3    H141214   1.170   0.137  11.252 -0.1519  2.4514 -0.3460
 5673TIP3    H241215   1.018   0.135  11.252 -0.1745 -0.6941  0.0832
 5674TIP3   OH241216   3.344   3.843  12.377  0.3379  0.0734  0.0100
 5674TIP3    H141217   3.301   3.905  12.436  1.9507  0.5683  0.6923
 5674TIP3    H241218   3.426   3.821  12.420  0.8986 -0.6716 -1.3828
 5675TIP3   OH241219   7.604   0.660  13.092  0.3771  0.6432 -0.5758
 5675TIP3    H141220   7.596   0.565  13.089 -0.5808  0.6928 -0.0744
 5675TIP3    H241221   7.518   0.691  13.123  0.9038  1.6154 -0.0084
 5676TIP3   OH241222   0.223   1.655  10.822  0.1145  1.0379 -0.4318
 5676TIP3    H141223   0.129   1.665  10.832 -0.1483  1.3124 -2.6916
 5676TIP3    H241224   0.260   1.735  10.859 -0.3130  0.0883  2.2940
 5677TIP3   OH241225   3.926   4.905  10.850  0.2441 -0.0982 -0.4055
 5677TIP3    H141226   3.888   4.990  10.829 -0.9236 -0.0996  1.4653
 5677TIP3    H241227   4.020   4.922  10.860  0.0472  0.9546 -0.2220
 5678TIP3   OH241228   5.902   7.062  11.190 -0.2271  0.2160  0.0667
 5678TIP3    H141229   5.830   7.083  11.130 -0.5459 -2.5863 -0.7171
 5678TIP3    H241230   5.923   6.971  11.169  3.1410  0.7317  0.7479
 5679TIP3   OH241231   3.107   6.909  12.741  0.0885 -0.0324  0.5273
 5679TIP3    H141232   3.114   6.996  12.779 -0.8311  0.2814 -0.0063
 5679TIP3    H241233   3.132   6.920  12.649  0.1381 -0.3670  0.4969
 5680TIP3   OH241234   7.232   5.494  11.786  0.6607 -0.4267  0.3167
 5680TIP3    H141235   7.137   5.478  11.789  0.4511  0.8414  1.6955
 5680TIP3    H241236   7.242   5.566  11.724  0.6201 -0.0516  0.7374
 5681TIP3   OH241237   0.197   7.271  12.663 -0.4609 -0.4469 -0.8788
 5681TIP3    H141238   0.132   7.233  12.722  2.2447 -2.5060  0.9995
 5681TIP3    H241239   0.182   7.229  12.579 -1.8193 -0.5215 -0.6144
 5682TIP3   OH241240   5.980   5.336  12.879  0.1557 -0.3647  0.4270
 5682TIP3    H141241   5.980   5.244  12.903 -1.2542 -1.3011 -2.6827
 5682TIP3    H241242   5.896   5.370  12.911  0.2548 -0.3840  0.7132
 5683TIP3   OH241243   0.874   6.881  11.986 -0.1131  0.2834 -0.0264
 5683TIP3    H141244   0.813   6.818  11.948  0.0275  1.1457 -1.7349
 5683TIP3    H241245   0.845   6.889  12.077 -0.3176 -2.0006  0.1702
 5684TIP3   OH241246   4.527   4.703  12.022 -0.3797  0.0348  0.2382
 5684TIP3    H141247   4.554   4.738  12.106 -0.3745 -2.5565  1.4215
 5684TIP3    H241248   4.580   4.623  12.011 -0.3517  0.3125 -2.2521
 5685TIP3   OH241249   5.933   4.507  10.894  0.0209 -0.0735  0.5097
 5685TIP3    H141250   5.863   4.565  10.925  0.5474  1.5931 -1.2522
 5685TIP3    H241251   5.888   4.425  10.871 -1.5494  1.2115 -1.3240
 5686TIP3   OH241252   3.730   6.144  12.646  0.0226  0.4618  0.6052
 5686TIP3    H141253   3.746   6.204  12.719  0.8053 -0.0981  0.9034
 5686TIP3    H241254   3.817   6.120  12.615 -0.2968  0.1030 -0.0302
 5687TIP3   OH241255   2.033   0.711  10.680  0.3586 -0.2703 -0.3803
 5687TIP3    H141256   1.987   0.629  10.692  2.7339 -1.5524  0.7476
 5687TIP3    H241257   2.059   0.737  10.768  0.3689  1.2828 -0.8029
 5688TIP3   OH241258   5.360   7.337  11.510 -0.0579 -0.6796 -0.0076
 5688TIP3    H141259   5.377   7.308  11.600  2.7295 -0.8654 -0.4966
 5688TIP3    H241260   5.428   7.293  11.458  1.2852  2.8203 -1.5024
 5689TIP3   OH241261   1.808   6.132  10.888 -0.1351  0.5220  0.1551
 5689TIP3    H141262   1.773   6.107  10.803  1.3225  0.1801 -0.3716
 5689TIP3    H241263   1.898   6.099  10.888 -0.0786  0.5881  1.7959
 5690TIP3   OH241264   3.724   5.652  12.592 -0.3438 -0.0446  0.1673
 5690TIP3    H141265   3.634   5.622  12.583 -0.2153 -1.0739  1.8516
 5690TIP3    H241266   3.742   5.700  12.511 -2.4198  0.2737 -0.1424
 5691TIP3   OH241267   7.379   6.629  11.199  0.1006  0.6059 -0.3581
 5691TIP3    H141268   7.314   6.564  11.172  0.6347  0.3096 -0.9794
 5691TIP3    H241269   7.366   6.703  11.140 -0.7107  1.2094  0.5479
 5692TIP3   OH241270   0.877   2.137  11.671  0.3346 -0.2666 -0.3323
 5692TIP3    H141271   0.872   2.065  11.733 -1.6544 -0.0713 -0.1998
 5692TIP3    H241272   0.790   2.139  11.630  0.7159  1.3423 -1.1271
 5693TIP3   OH241273   5.148   2.696  11.829  0.1243  0.3707 -0.6134
 5693TIP3    H141274   5.091   2.677  11.755  0.4805 -0.2223 -0.7359
 5693TIP3    H241275   5.105   2.770  11.873  0.7397  1.8045 -2.3187
 5694TIP3   OH241276   4.039   4.729  13.068 -0.2134 -0.1245 -0.7764
 5694TIP3    H141277   3.975   4.800  13.059 -0.2044  0.8391  3.9729
 5694TIP3    H241278   4.122   4.775  13.082  0.7291 -1.2775 -2.3463
 5695TIP3   OH241279   0.325   0.331  11.589  0.0173  1.1228 -0.5212
 5695TIP3    H141280   0.404   0.375  11.559  0.1773  0.9791 -0.3108
 5695TIP3    H241281   0.345   0.304  11.679  0.4128 -0.5817 -1.0791
 5696TIP3   OH241282   2.406   6.751  11.143  0.5429  0.3719  0.0861
 5696TIP3    H141283   2.419   6.804  11.064 -0.0534 -0.2168 -0.4365
 5696TIP3    H241284   2.465   6.676  11.131  0.0072 -0.0283 -0.1135
 5697TIP3   OH241285   2.196   5.223  12.736  0.5803  1.2904 -0.2377
 5697TIP3    H141286   2.116   5.224  12.789  1.3116  0.7083  0.9302
 5697TIP3    H241287   2.225   5.132  12.740  2.6313  1.9390  1.4870
 5698TIP3   OH241288   7.488   0.925  11.716  0.1545  0.4988  0.1630
 5698TIP3    H141289   7.407   0.942  11.763 -0.1861 -0.9774  0.1558
 5698TIP3    H241290   7.478   0.972  11.633 -0.6969  0.3147  0.1524
 5699TIP3   OH241291   4.376   7.220  11.014  0.1232  0.0574  0.4197
 5699TIP3    H141292   4.386   7.307  11.054  1.2728  0.2939 -0.3141
 5699TIP3    H241293   4.425   7.162  11.072  3.2902  0.6725 -1.4012
 5700TIP3   OH241294   4.355   7.254  11.933  0.2295 -0.5256  0.1648
 5700TIP3    H141295   4.315   7.341  11.942  0.7170 -0.2130 -0.6464
 5700TIP3    H241296   4.398   7.239  12.018  0.2430  0.0732  0.2685
 5701TIP3   OH241297   4.372   4.970  11.295 -0.7621 -0.6492 -0.0475
 5701TIP3    H141298   4.370   5.066  11.291  1.5471 -0.4826  0.9039
 5701TIP3    H241299   4.329   4.949  11.377 -1.9119 -0.4993 -0.5966
 5702TIP3   OH241300   6.437   7.595  10.954 -0.2639 -0.2820 -0.0485
 5702TIP3    H141301   6.400   7.644  10.881 -2.2557 -0.3341  0.8706
 5702TIP3    H241302   6.447   7.506  10.921  0.9190  0.1326 -0.9015
 5703TIP3   OH241303   7.072   5.772  12.665  0.7336  0.3422 -0.3655
 5703TIP3    H141304   7.055   5.804  12.577 -0.3719  1.2607  0.1528
 5703TIP3    H241305   7.145   5.826  12.696  1.4086 -0.2692 -0.8429
 5704TIP3   OH241306   0.512   2.516  10.664  0.7802  0.1144  0.2376
 5704TIP3    H141307   0.491   2.444  10.724  0.8023  0.7448  1.0192
 5704TIP3    H241308   0.458   2.499  10.587  1.4565 -1.2419  0.0133
 5705TIP3   OH241309   5.129   3.927  10.579  0.0036 -0.2866 -0.2733
 5705TIP3    H141310   5.064   3.986  10.616  0.0910  1.2295 -2.3627
 5705TIP3    H241311   5.102   3.840  10.608  0.2045  0.7080  3.4351
 5706TIP3   OH241312   1.295   5.774  12.096 -0.1677 -0.4468 -0.3133
 5706TIP3    H141313   1.359   5.703  12.108  0.4707  0.0880 -0.5275
 5706TIP3    H241314   1.219   5.731  12.056 -0.6681 -1.4449  1.5821
 5707TIP3   OH241315   6.227   6.505  12.925  0.0116  0.4026 -0.6398
 5707TIP3    H141316   6.156   6.488  12.986 -0.3880 -0.8875 -1.4380
 5707TIP3    H241317   6.192   6.481  12.839  1.2878  0.0995 -1.0971
 5708TIP3   OH241318   2.726   3.764  11.268 -0.1885 -0.3591 -0.4523
 5708TIP3    H141319   2.690   3.837  11.217 -0.7371 -1.3208 -1.4845
 5708TIP3    H241320   2.707   3.787  11.359  0.0820  1.0091 -0.7182
 5709TIP3   OH241321   6.009   6.344  10.536  0.3370  0.2028  0.4276
 5709TIP3    H141322   6.087   6.303  10.574  0.5647  0.0828 -0.1702
 5709TIP3    H241323   5.943   6.338  10.605  1.1350  1.1754  1.3171
 5710TIP3   OH241324   5.706   6.580  11.643  0.4005  0.5404 -0.0650
 5710TIP3    H141325   5.641   6.650  11.649 -1.2716 -1.0098  1.4418
 5710TIP3    H241326   5.777   6.607  11.701 -1.2354  0.0681  2.2909
 5711TIP3   OH241327   1.743   0.612  10.473  0.5590  0.2055 -0.2446
 5711TIP3    H141328   1.681   0.620  10.401  2.1546 -1.7490 -1.9514
 5711TIP3    H241329   1.689   0.589  10.549 -0.9937  0.7562 -1.1507
 5712TIP3   OH241330   2.692   7.378  11.479 -0.1355 -0.1946  0.4576
 5712TIP3    H141331   2.734   7.428  11.550 -0.8138 -0.8457  1.3482
 5712TIP3    H241332   2.669   7.444  11.413  1.2769  0.3181  0.4419
 5713TIP3   OH241333   2.519   6.179  12.371  0.1704 -0.4870  0.1799
 5713TIP3    H141334   2.439   6.163  12.322 -1.2302  0.9844  1.8470
 5713TIP3    H241335   2.527   6.104  12.430 -0.0637 -0.5579  0.1211
 5714TIP3   OH241336   6.724   6.391  11.122 -0.2122  0.2336  0.0855
 5714TIP3    H141337   6.769   6.469  11.155 -1.4255  0.1423  2.0696
 5714TIP3    H241338   6.737   6.395  11.027  0.7588  2.2103  0.2502
 5715TIP3   OH241339   4.224   7.675  12.687 -0.0198 -0.5458  0.1247
 5715TIP3    H141340   4.155   7.706  12.628  2.3375  0.9265 -2.0838
 5715TIP3    H241341   4.204   7.717  12.771 -2.9839 -1.9837  0.2538
 5716TIP3   OH241342   3.591   3.509  13.156 -0.4641 -0.2123  0.3921
 5716TIP3    H141343   3.506   3.489  13.196 -1.1903  0.7321 -0.5834
 5716TIP3    H241344   3.620   3.589  13.201  0.0161 -0.6496  0.8662
 5717TIP3   OH241345   2.380   1.863  12.090  0.3145  0.0135 -0.0800
 5717TIP3    H141346   2.396   1.809  12.013 -0.5885 -1.3221  0.6326
 5717TIP3    H241347   2.288   1.886  12.084  0.5798  1.1027 -0.1220
 5718TIP3   OH241348   1.684   2.444  11.764  0.0289 -0.6103  0.7023
 5718TIP3    H141349   1.694   2.475  11.674  1.8044  1.0095  1.4008
 5718TIP3    H241350   1.740   2.368  11.770  1.5626  0.4927  0.9413
 5719TIP3   OH241351   6.038   5.604  11.497 -0.0232 -0.0206 -0.0823
 5719TIP3    H141352   6.019   5.538  11.563 -0.5546 -0.6980 -0.8862
 5719TIP3    H241353   6.107   5.566  11.442  1.3465  1.0693  0.8258
 5720TIP3   OH241354   4.227   5.334  10.835  0.3146 -0.3286 -0.5853
 5720TIP3    H141355   4.181   5.273  10.892 -0.0759  1.1464  0.7799
 5720TIP3    H241356   4.311   5.349  10.880 -0.2976  1.4293  0.1032
 5721TIP3   OH241357   1.578   3.747  11.309 -0.2259 -0.1345  0.1350
 5721TIP3    H141358   1.640   3.766  11.238 -1.0950 -0.1266 -0.6454
 5721TIP3    H241359   1.631   3.707  11.378  0.7833  0.6137 -0.1870
 5722TIP3   OH241360   0.084   0.051  11.721 -0.0887 -0.7513  0.5894
 5722TIP3    H141361   0.037  -0.005  11.783 -0.0410  0.3065  1.6034
 5722TIP3    H241362   0.052   0.139  11.739 -0.2155 -0.4413 -1.0409
 5723TIP3   OH241363   0.456   4.320  12.737 -0.4060  0.3432 -0.0380
 5723TIP3    H141364   0.447   4.326  12.832 -1.2465  0.5622 -0.1262
 5723TIP3    H241365   0.424   4.404  12.705  3.5599  2.0007 -0.3254
 5724TIP3   OH241366   5.702   2.106  12.246 -0.2890  0.5062  0.1232
 5724TIP3    H141367   5.647   2.103  12.324 -1.4749  1.9350 -0.6071
 5724TIP3    H241368   5.762   2.179  12.262 -0.4702  0.7412 -0.2330
 5725TIP3   OH241369   0.886   2.741  12.752  0.2154  0.5421  0.4023
 5725TIP3    H141370   0.798   2.729  12.717  0.0819 -0.2858  0.9866
 5725TIP3    H241371   0.912   2.828  12.722 -0.4219  0.4112 -0.5856
 5726TIP3   OH241372   6.217   0.925  11.801 -0.1993 -0.0477 -0.2208
 5726TIP3    H141373   6.287   0.918  11.865 -0.9929 -0.9466  0.5592
 5726TIP3    H241374   6.155   0.987  11.839  1.1623  2.5787 -1.8982
 5727TIP3   OH241375   2.442   5.082  12.077 -0.1768 -0.4968  0.1241
 5727TIP3    H141376   2.449   5.002  12.129  1.9124 -0.5172 -0.0833
 5727TIP3    H241377   2.427   5.052  11.988 -1.0476 -0.5780  0.2946
 5728TIP3   OH241378   0.206   5.316  10.903 -0.2013  0.0464 -0.2400
 5728TIP3    H141379   0.284   5.263  10.888  0.6577  1.1663  0.0982
 5728TIP3    H241380   0.136   5.270  10.857  0.5939 -1.1321 -0.3127
 5729TIP3   OH241381   1.084   5.344  10.462  0.5357 -0.4560 -0.0790
 5729TIP3    H141382   1.101   5.263  10.413  1.8950 -0.7258  0.7868
 5729TIP3    H241383   1.095   5.414  10.397  1.1608 -0.8791 -0.4440
 5730TIP3   OH241384   6.880   4.649  11.765 -0.2944 -0.0220 -0.3106
 5730TIP3    H141385   6.962   4.608  11.793 -1.2378 -0.4709  2.0864
 5730TIP3    H241386   6.871   4.627  11.673  1.5731 -1.1722 -0.2482
 5731TIP3   OH241387   2.152   0.062  12.699 -0.1463  1.2657  0.0316
 5731TIP3    H141388   2.068   0.107  12.708 -1.0421 -0.1370 -0.9750
 5731TIP3    H241389   2.161   0.014  12.781 -1.1015  0.2090 -0.4560
 5732TIP3   OH241390   5.453   3.888  11.472  0.6658  0.1554  0.1157
 5732TIP3    H141391   5.390   3.953  11.504  0.9155  0.3909  0.1307
 5732TIP3    H241392   5.490   3.927  11.394 -0.9741 -1.0139 -1.3143
 5733TIP3   OH241393   6.906   6.827  11.900 -0.4655  0.4929 -0.5472
 5733TIP3    H141394   6.841   6.773  11.946  1.0893 -0.7800  0.2747
 5733TIP3    H241395   6.947   6.767  11.837  1.5561  0.5454  0.6334
 5734TIP3   OH241396   0.829   4.687  11.128 -0.4513 -0.0025 -0.1927
 5734TIP3    H141397   0.865   4.773  11.150  1.1784 -0.1970 -1.8685
 5734TIP3    H241398   0.770   4.703  11.055  2.1666 -0.5381 -2.6298
 5735TIP3   OH241399   7.091   5.081  11.106  0.4349  0.2614 -0.9697
 5735TIP3    H141400   7.157   5.109  11.043  1.5678  0.1087  0.1124
 5735TIP3    H241401   7.069   4.992  11.080  0.9676  0.1638 -1.0850
 5736TIP3   OH241402   6.937   7.456  10.704 -0.4280  0.2846 -0.3142
 5736TIP3    H141403   6.929   7.551  10.713  1.3028  0.4337  0.0073
 5736TIP3    H241404   7.026   7.443  10.672 -0.7262 -1.2315 -0.5989
 5737TIP3   OH241405   1.803   3.450  13.258  0.3529 -0.5367 -0.1891
 5737TIP3    H141406   1.833   3.423  13.345  1.5047  3.2516  0.8052
 5737TIP3    H241407   1.739   3.384  13.232 -0.0735 -1.8182  3.5747
 5738TIP3   OH241408   4.218   6.825  12.027 -0.0534  0.5319 -0.1594
 5738TIP3    H141409   4.193   6.914  12.002 -0.9985 -0.0912 -1.5523
 5738TIP3    H241410   4.140   6.789  12.067  0.0987  0.1009 -0.2448
 5739TIP3   OH241411   2.894   5.308  12.815  0.0808  0.3022 -0.2668
 5739TIP3    H141412   2.907   5.334  12.906 -2.2788  0.6327  0.0374
 5739TIP3    H241413   2.935   5.378  12.764  0.4730  0.6762  0.5458
 5740TIP3   OH241414   1.992   6.541  11.119  0.3015  0.1089  0.2423
 5740TIP3    H141415   2.065   6.601  11.102  2.2167 -2.1603 -0.0790
 5740TIP3    H241416   1.961   6.566  11.207  2.6142  0.0743  1.1430
 5741TIP3   OH241417   2.246   1.406  10.670 -0.5504  0.3331  0.0873
 5741TIP3    H141418   2.160   1.378  10.638 -0.1940 -2.4635  1.2313
 5741TIP3    H241419   2.306   1.341  10.634  1.0411  1.9244 -0.2439
 5742TIP3   OH241420   1.280   1.458  12.837 -0.2369 -0.2762 -0.1289
 5742TIP3    H141421   1.250   1.413  12.917  0.4202 -0.0360  0.2544
 5742TIP3    H241422   1.223   1.535  12.831 -1.2050 -1.0053 -0.6530
 5743TIP3   OH241423   3.616   5.604  18.704  0.0612  0.1849 -0.1289
 5743TIP3    H141424   3.543   5.660  18.677  1.3704  2.0579  0.0071
 5743TIP3    H241425   3.682   5.616  18.635  0.6959 -0.5519  0.3369
 5744TIP3   OH241426   6.064   0.619  12.811  0.7196  0.2636  0.1403
 5744TIP3    H141427   6.122   0.551  12.778  0.0441 -1.5110  2.3860
 5744TIP3    H241428   6.050   0.597  12.903 -3.1186  0.8414 -0.1299
 5745TIP3   OH241429   4.717   2.291  12.083 -0.3010 -0.5049  0.1772
 5745TIP3    H141430   4.624   2.309  12.074  0.0052  0.2591 -1.8451
 5745TIP3    H241431   4.755   2.375  12.110  0.0072 -0.3456 -0.7231
 5746TIP3   OH241432   3.111   6.637  11.084 -0.5482 -0.2834  0.1510
 5746TIP3    H141433   3.112   6.716  11.029  1.3218 -0.5555 -0.2928
 5746TIP3    H241434   3.064   6.572  11.032 -1.1601  0.2317  0.0485
 5747TIP3   OH241435   5.126   0.169  10.672  0.1507  0.4426 -0.2089
 5747TIP3    H141436   5.074   0.159  10.591  0.2191  0.0340 -0.2050
 5747TIP3    H241437   5.065   0.210  10.734 -0.8316 -1.7652  0.4059
 5748TIP3   OH241438   1.887   1.957  10.666 -0.6554  0.4308 -0.3535
 5748TIP3    H141439   1.862   1.974  10.757 -0.8776  1.9095 -0.6638
 5748TIP3    H241440   1.958   2.019  10.649  0.0041 -0.4475 -0.9409
 5749TIP3   OH241441   2.138   4.700  10.608  0.4842  0.2152 -0.1138
 5749TIP3    H141442   2.097   4.634  10.663 -0.4214  0.8654  0.0100
 5749TIP3    H241443   2.231   4.696  10.631  0.3350 -0.5212  0.3919
 5750TIP3   OH241444   2.842   0.999  11.018  0.4873  0.1518 -0.1435
 5750TIP3    H141445   2.774   1.018  10.953 -0.8875  1.6400  1.6178
 5750TIP3    H241446   2.919   1.048  10.987 -0.5804  2.0295  0.0446
 5751TIP3   OH241447   0.098   3.694  11.870  0.1209 -0.3327  0.2419
 5751TIP3    H141448   0.017   3.722  11.912 -0.7880 -0.2930 -1.4363
 5751TIP3    H241449   0.154   3.665  11.942 -0.2312  2.3712  1.7624
 5752TIP3   OH241450   3.294   6.480  12.850 -0.1105  0.4616  0.2281
 5752TIP3    H141451   3.367   6.507  12.795 -0.2347  1.0134  0.3317
 5752TIP3    H241452   3.269   6.558  12.898 -1.8020  0.7516 -0.9847
 5753TIP3   OH241453   0.551   3.087  11.508  0.5749  0.0867 -0.2554
 5753TIP3    H141454   0.607   3.079  11.585  1.5866 -0.7897 -1.0596
 5753TIP3    H241455   0.467   3.048  11.535  0.3676  1.2548  0.9007
 5754TIP3   OH241456   5.357   6.095  11.642  0.3652 -0.8526  0.1988
 5754TIP3    H141457   5.348   6.009  11.601 -1.1694 -0.9701  0.7284
 5754TIP3    H241458   5.386   6.152  11.571 -1.5033 -1.2136 -0.9215
 5755TIP3   OH241459   0.588   2.448  11.143  0.0486  0.1601 -0.1283
 5755TIP3    H141460   0.677   2.469  11.172  0.0907 -0.3900  0.1429
 5755TIP3    H241461   0.536   2.524  11.169  0.4110  0.4311 -0.1756
 5756TIP3   OH241462   4.594   5.909  11.712 -0.3668 -0.2459  0.1715
 5756TIP3    H141463   4.521   5.916  11.651 -0.2942 -2.3763 -0.2310
 5756TIP3    H241464   4.561   5.855  11.783  0.9234 -1.6844 -0.2652
 5757TIP3   OH241465   5.926   2.212  10.954 -0.3208  0.2067 -0.0366
 5757TIP3    H141466   5.921   2.116  10.954  0.3854  0.1425  1.2990
 5757TIP3    H241467   6.015   2.231  10.926 -0.6042  0.5051 -0.7626
 5758TIP3   OH241468   1.114   2.559  10.679  0.2862 -0.4752 -0.6128
 5758TIP3    H141469   1.027   2.597  10.670 -0.0504 -1.1154 -0.0876
 5758TIP3    H241470   1.162   2.622  10.734 -1.0236 -1.9334  2.4404
 5759TIP3   OH241471   6.892   2.841  11.675  0.0507  0.5472 -0.3503
 5759TIP3    H141472   6.898   2.837  11.770 -1.4201 -0.6939 -0.2653
 5759TIP3    H241473   6.842   2.921  11.657 -0.4246  0.3228 -0.0285
 5760TIP3   OH241474   1.575   1.675  12.867 -0.2230 -0.5421 -0.9982
 5760TIP3    H141475   1.573   1.748  12.805  1.3043  0.1836 -0.2592
 5760TIP3    H241476   1.488   1.676  12.907 -0.2125  0.9365 -0.9566
 5761TIP3   OH241477   7.578   3.761  11.373  0.3240  0.6372 -0.0802
 5761TIP3    H141478   7.597   3.851  11.401 -0.2652  1.1449 -1.2473
 5761TIP3    H241479   7.492   3.743  11.411  1.3430 -0.2686  1.9815
 5762TIP3   OH241480   0.586   6.862  13.212  0.4346 -0.1019 -0.0027
 5762TIP3    H141481   0.667   6.893  13.169 -0.5851  1.0491 -1.1875
 5762TIP3    H241482   0.549   6.941  13.251  0.1334 -0.7250  1.0070
 5763TIP3   OH241483   6.247   2.730  11.412 -0.0343 -0.4559  0.0982
 5763TIP3    H141484   6.307   2.656  11.421  1.5725  0.6812 -0.7334
 5763TIP3    H241485   6.240   2.767  11.500 -0.3094 -1.1653  0.3842
 5764TIP3   OH241486   4.397   1.884  11.966  0.0351 -0.1490  0.3308
 5764TIP3    H141487   4.317   1.906  11.918 -0.4691  0.0537  1.2366
 5764TIP3    H241488   4.368   1.873  12.057  0.8206 -1.4140  0.4461
 5765TIP3   OH241489   5.651   2.750  12.232 -0.5618 -0.1660  0.4404
 5765TIP3    H141490   5.678   2.838  12.208 -0.6016 -0.1622  0.4099
 5765TIP3    H241491   5.723   2.694  12.204  0.5555  0.0919  2.5450
 5766TIP3   OH241492   1.829   2.573  12.423  0.2556 -0.0420 -0.0668
 5766TIP3    H141493   1.803   2.585  12.514  1.3460 -0.2290  0.2754
 5766TIP3    H241494   1.761   2.618  12.373 -1.3400 -1.4384  0.7363
 5767TIP3   OH241495   7.319   3.688  11.454 -0.0029 -0.5727 -0.2359
 5767TIP3    H141496   7.243   3.720  11.405 -0.3849 -0.9577  0.1004
 5767TIP3    H241497   7.292   3.693  11.546  1.0048  0.9734  0.0280
 5768TIP3   OH241498   7.488   1.274  12.160  0.9460 -0.1031  0.1935
 5768TIP3    H141499   7.520   1.353  12.115 -1.1600  1.3044  0.9952
 5768TIP3    H241500   7.448   1.222  12.090  1.6817 -0.1294 -0.2232
 5769TIP3   OH241501   1.925   4.823  10.307 -0.3532 -0.5051 -0.0835
 5769TIP3    H141502   1.892   4.857  10.390 -0.9700  2.0023 -1.2333
 5769TIP3    H241503   1.895   4.733  10.304 -1.8530 -0.1214  1.6277
 5770TIP3   OH241504   0.479   7.398  11.203  0.2909  0.0541  0.2492
 5770TIP3    H141505   0.423   7.346  11.260 -1.6408 -0.1112 -1.6447
 5770TIP3    H241506   0.448   7.488  11.214 -0.1012  0.0224 -0.4701
 5771TIP3   OH241507   4.139   0.557  10.852  0.3397 -0.1492 -0.5227
 5771TIP3    H141508   4.167   0.542  10.761 -0.2371  0.2493 -0.7764
 5771TIP3    H241509   4.052   0.518  10.857  0.7251 -0.9514  0.1169
 5772TIP3   OH241510   3.021   4.703  11.535  0.3733  0.7596  0.3726
 5772TIP3    H141511   2.935   4.670  11.508  1.4748 -1.5865 -0.4809
 5772TIP3    H241512   3.019   4.796  11.511 -1.9407  0.8147  0.5012
 5773TIP3   OH241513   6.040   4.697  11.919  0.2970 -0.2863 -0.4843
 5773TIP3    H141514   5.995   4.656  11.845  0.7271 -0.8181 -0.4581
 5773TIP3    H241515   6.129   4.664  11.914  0.2193 -0.6865  0.5457
 5774TIP3   OH241516   1.225   6.058  11.191 -0.0322 -0.0946  0.2314
 5774TIP3    H141517   1.141   6.102  11.207  0.1550 -0.4567  2.6154
 5774TIP3    H241518   1.262   6.103  11.116 -2.1937  0.2968 -0.6916
 5775TIP3   OH241519   6.348   0.423  11.671  0.0863  0.6447 -0.1634
 5775TIP3    H141520   6.288   0.375  11.728  1.6511 -1.7586 -0.4028
 5775TIP3    H241521   6.296   0.443  11.593 -0.6508 -0.6607 -0.0383
 5776TIP3   OH241522   1.924   3.053  11.643  0.0566 -0.2387  0.2124
 5776TIP3    H141523   1.880   3.021  11.722 -0.7635 -0.1253 -0.1855
 5776TIP3    H241524   1.959   2.974  11.602 -0.0614 -0.3754  0.3723
 5777TIP3   OH241525   0.037   4.201  12.631  0.5349  0.2428 -0.6841
 5777TIP3    H141526  -0.050   4.235  12.654  0.1064 -0.6597 -0.8982
 5777TIP3    H241527   0.073   4.266  12.571  0.2955  0.9768 -0.0442
 5778TIP3   OH241528   6.809   1.523  11.514 -0.3795  0.2982 -0.2685
 5778TIP3    H141529   6.818   1.552  11.423  1.6673  0.2077 -0.1293
 5778TIP3    H241530   6.806   1.428  11.510 -1.7290  0.3156 -0.3097
 5779TIP3   OH241531   7.150   7.481  11.365 -0.1751 -0.0152 -0.5119
 5779TIP3    H141532   7.082   7.466  11.299  0.0136 -2.8711 -0.1967
 5779TIP3    H241533   7.227   7.506  11.315 -0.6688  0.2832 -1.1381
 5780TIP3   OH241534   0.772   0.715  11.624 -0.1573  0.8170 -0.7762
 5780TIP3    H141535   0.726   0.756  11.698 -1.5235  0.2449 -1.2835
 5780TIP3    H241536   0.807   0.634  11.660 -0.0102  0.9927 -0.5187
 5781TIP3   OH241537   2.224   4.119  11.145  0.0122  0.1658 -0.9255
 5781TIP3    H141538   2.204   4.135  11.237  1.0444  0.6823 -0.7762
 5781TIP3    H241539   2.141   4.135  11.099 -0.3242  0.6443 -0.1663
 5782TIP3   OH241540   1.918   4.760  11.330 -0.6230  0.1251 -0.1289
 5782TIP3    H141541   1.906   4.769  11.424  1.8595  1.8775  0.1085
 5782TIP3    H241542   1.991   4.699  11.321 -1.1890 -0.4542 -0.9715
 5783TIP3   OH241543   5.724   1.169  10.738  0.2599 -0.4730 -0.6629
 5783TIP3    H141544   5.804   1.216  10.714 -0.6793  1.0266 -0.9999
 5783TIP3    H241545   5.654   1.216  10.693 -0.7175 -2.4800 -1.3692
 5784TIP3   OH241546   2.666   4.436  12.601 -0.1231 -0.2808 -0.2920
 5784TIP3    H141547   2.588   4.395  12.639 -0.6917 -0.0621 -1.1914
 5784TIP3    H241548   2.698   4.371  12.538  0.6384 -0.5162  0.3165
 5785TIP3   OH241549   3.635   7.176  10.609  0.3478 -0.0132 -0.0365
 5785TIP3    H141550   3.626   7.150  10.701  0.2100  1.1263  0.2942
 5785TIP3    H241551   3.635   7.094  10.560 -0.0795 -0.6112  0.9424
 5786TIP3   OH241552   6.562   3.051  11.231 -0.4250  0.3090 -0.1646
 5786TIP3    H141553   6.510   2.974  11.255 -0.1586  0.2933  0.3844
 5786TIP3    H241554   6.538   3.070  11.140 -1.9172  0.7223  0.2849
 5787TIP3   OH241555   6.749   0.757  10.800 -0.6363 -0.8529  0.1295
 5787TIP3    H141556   6.697   0.826  10.758  0.3055 -0.5733 -0.6223
 5787TIP3    H241557   6.699   0.734  10.878 -2.5893 -1.5482 -1.2225
 5788TIP3   OH241558   1.361   6.203  10.681 -0.1200  0.0525  0.1529
 5788TIP3    H141559   1.334   6.295  10.688 -0.7842 -0.2227  1.3465
 5788TIP3    H241560   1.346   6.182  10.589  1.3659  1.5304 -0.4777
 5789TIP3   OH241561   6.583   6.165  11.050  0.5283  0.5080  0.6882
 5789TIP3    H141562   6.594   6.238  11.112  2.4867  0.5444  0.3472
 5789TIP3    H241563   6.643   6.185  10.979 -0.0631 -0.6727 -0.1746
 5790TIP3   OH241564   5.513   1.381  11.258  0.1553 -0.2087  0.4483
 5790TIP3    H141565   5.470   1.309  11.304  2.4097 -1.4895  0.6567
 5790TIP3    H241566   5.505   1.358  11.165 -2.4258  1.2542  0.2191
 5791TIP3   OH241567   0.502   4.198  10.527 -0.1955 -0.0672 -0.5933
 5791TIP3    H141568   0.421   4.217  10.480 -3.0496 -4.0910  2.0032
 5791TIP3    H241569   0.546   4.132  10.473  0.0313  0.2276 -0.7718
 5792TIP3   OH241570   3.102   6.340  11.282  0.7212 -0.1906  0.2942
 5792TIP3    H141571   3.083   6.279  11.353 -1.0377 -0.6798 -0.5183
 5792TIP3    H241572   3.055   6.420  11.307 -0.9138 -0.7471 -0.7972
 5793TIP3   OH241573   1.107   5.062  11.759 -0.6313 -0.2420 -0.1712
 5793TIP3    H141574   1.188   5.049  11.710  0.0388 -0.0801  0.8749
 5793TIP3    H241575   1.127   5.032  11.848 -1.3348  0.9396  0.4088
 5794TIP3   OH241576   3.990   1.896  10.935  0.1086  0.0391 -1.0092
 5794TIP3    H141577   3.997   1.893  11.030  0.5327 -0.8620 -1.0590
 5794TIP3    H241578   4.013   1.986  10.912  1.3788 -0.1052 -0.3615
 5795TIP3   OH241579   4.034   3.013  11.706 -0.2797  0.1381  0.4030
 5795TIP3    H141580   3.959   3.037  11.652 -1.1227  0.4423  1.6696
 5795TIP3    H241581   4.057   2.925  11.678 -1.5103 -0.2032  0.4329
 5796TIP3   OH241582   6.015   6.126  11.902  0.4018  0.0754  0.0260
 5796TIP3    H141583   5.950   6.064  11.936  0.1082  1.6983  2.7196
 5796TIP3    H241584   6.097   6.101  11.945  0.8765 -0.0255 -0.9139
 5797TIP3   OH241585   0.394   1.218  11.161  0.4602  0.1845 -0.0857
 5797TIP3    H141586   0.456   1.224  11.089 -0.4371  0.3125 -0.8555
 5797TIP3    H241587   0.328   1.285  11.142 -0.1481 -0.2352  0.4984
 5798TIP3   OH241588   3.051   2.175  12.442 -0.2164 -0.3379  0.7544
 5798TIP3    H141589   2.995   2.252  12.435 -2.2101 -1.8700 -1.6789
 5798TIP3    H241590   2.995   2.107  12.477  0.7362 -1.3844  0.3067
 5799TIP3   OH241591   4.637   4.478  12.133 -0.2374 -0.6629  0.3074
 5799TIP3    H141592   4.615   4.388  12.160  1.5362 -1.0904  0.4716
 5799TIP3    H241593   4.618   4.531  12.210 -0.0882 -1.0931  0.6474
 5800TIP3   OH241594   6.728   3.953  11.546 -0.3647  0.6093 -0.1289
 5800TIP3    H141595   6.707   3.979  11.456 -0.7061  1.0238  0.0671
 5800TIP3    H241596   6.816   3.986  11.561 -1.2621  2.8837  0.5658
 5801TIP3   OH241597   7.195   3.319  12.746 -0.2943 -0.3040 -0.2423
 5801TIP3    H141598   7.130   3.372  12.792  1.2080  3.2571 -1.8284
 5801TIP3    H241599   7.266   3.307  12.810  1.3004  3.6591 -1.0196
 5802TIP3   OH241600   6.969   6.365  12.588 -0.1749  0.8212  0.3055
 5802TIP3    H141601   6.965   6.397  12.498  0.5025  1.8894  0.6351
 5802TIP3    H241602   6.914   6.427  12.637  0.9267  1.3515  0.9129
 5803TIP3   OH241603   0.950   2.345  13.306  0.1583 -0.0783  0.1611
 5803TIP3    H141604   0.932   2.437  13.290 -0.5940  0.3376  2.8512
 5803TIP3    H241605   1.036   2.330  13.266 -0.1444  1.4909 -1.1809
 5804TIP3   OH241606   0.163   4.890  12.532  0.3779 -0.1767  0.4885
 5804TIP3    H141607   0.258   4.897  12.532  0.4528 -0.7564 -0.9591
 5804TIP3    H241608   0.132   4.969  12.576  1.5116  0.4768  0.1448
 5805TIP3   OH241609   6.165   2.339  11.367  0.4140 -0.1828  0.3463
 5805TIP3    H141610   6.213   2.347  11.285  0.2952  0.1507  0.3046
 5805TIP3    H241611   6.130   2.427  11.382 -2.4146 -0.9403 -0.9893
 5806TIP3   OH241612   2.616   2.020  10.949  0.6179  0.0210 -0.1296
 5806TIP3    H141613   2.528   2.049  10.925 -0.0310 -0.0532  1.9762
 5806TIP3    H241614   2.667   2.031  10.869 -1.4731 -0.6881 -1.6519
 5807TIP3   OH241615   6.421   3.174  12.579  0.0739 -0.1596 -0.4718
 5807TIP3    H141616   6.477   3.153  12.504 -0.5033 -1.6245 -0.5267
 5807TIP3    H241617   6.370   3.250  12.551 -0.9911 -1.3887 -2.0731
 5808TIP3   OH241618   4.782   4.844  12.189 -0.5851 -0.1277  0.2192
 5808TIP3    H141619   4.753   4.823  12.278  0.6565  2.0616  1.2464
 5808TIP3    H241620   4.876   4.864  12.199 -0.8708  2.2671 -1.1196
 5809TIP3   OH241621   3.232   1.334  11.641 -0.1372  0.5535 -0.3976
 5809TIP3    H141622   3.192   1.374  11.717 -1.6983  0.4043 -1.1070
 5809TIP3    H241623   3.164   1.277  11.605  1.3475 -1.2089 -0.5631
 5810TIP3   OH241624   0.281   7.373  13.713  0.3407 -0.0736  0.1460
 5810TIP3    H141625   0.376   7.363  13.717  0.0568 -3.3244  3.0671
 5810TIP3    H241626   0.252   7.306  13.650 -0.0784  0.8405 -0.6660
 5811TIP3   OH241627   4.438   5.884  11.089 -0.0260  0.3884  0.1586
 5811TIP3    H141628   4.454   5.871  11.182  0.9587  1.6359  0.1912
 5811TIP3    H241629   4.514   5.933  11.058 -1.3749  1.9856 -0.8120
 5812TIP3   OH241630   2.127   3.705  10.865 -0.3301  0.2307 -0.3289
 5812TIP3    H141631   2.057   3.644  10.888  0.1164 -0.2736 -0.3091
 5812TIP3    H241632   2.106   3.785  10.913 -0.1710 -0.3472  0.7188
 5813TIP3   OH241633   2.006   4.416  12.046 -0.2440  0.3284  0.2904
 5813TIP3    H141634   2.064   4.346  12.077 -0.2529  0.4390  0.5560
 5813TIP3    H241635   1.918   4.379  12.054 -0.1805 -0.0620 -0.6836
 5814TIP3   OH241636   3.881   6.850  11.695 -1.1429  0.1322 -0.4866
 5814TIP3    H141637   3.796   6.855  11.739 -0.3769 -1.1576  1.2473
 5814TIP3    H241638   3.916   6.939  11.700 -1.3164  0.1270  1.0641
 5815TIP3   OH241639   2.741   2.125  11.567  0.4984 -0.2612 -0.4792
 5815TIP3    H141640   2.719   2.032  11.573  1.8067 -0.6097 -0.8097
 5815TIP3    H241641   2.834   2.129  11.589  1.7529  0.3168 -5.0243
 5816TIP3   OH241642   2.408   4.365  12.363  0.0633 -0.4446 -0.1660
 5816TIP3    H141643   2.449   4.279  12.355  0.2503 -0.2983 -0.8497
 5816TIP3    H241644   2.399   4.379  12.457  3.0299  0.1860  0.1118
 5817TIP3   OH241645   0.070   1.144  11.356 -0.6443  0.2430 -0.2365
 5817TIP3    H141646   0.041   1.173  11.269 -0.6468  0.7635 -0.0645
 5817TIP3    H241647   0.123   1.067  11.339  0.4673  1.1135 -0.8161
 5818TIP3   OH241648   3.325   5.733  10.606 -0.2404 -0.0058  0.1813
 5818TIP3    H141649   3.294   5.763  10.692  0.8537  1.9169 -0.0274
 5818TIP3    H241650   3.405   5.784  10.591  0.0397 -0.9126 -1.6189
 5819TIP3   OH241651   0.011   3.638  13.722  0.1242 -0.2715 -0.4054
 5819TIP3    H141652   0.037   3.576  13.654 -1.4881 -0.4565 -0.8902
 5819TIP3    H241653   0.093   3.681  13.747  0.6653  0.5476 -3.1821
 5820TIP3   OH241654   5.021   3.482  11.545  0.1876  0.3513 -0.2216
 5820TIP3    H141655   5.052   3.565  11.581  0.2062  0.8580 -1.3427
 5820TIP3    H241656   4.941   3.505  11.498 -0.8097 -0.5904  0.9415
 5821TIP3   OH241657   6.992   7.563  11.581 -0.1049 -0.0746 -0.2733
 5821TIP3    H141658   6.976   7.502  11.509 -0.1717  0.5502 -0.7930
 5821TIP3    H241659   7.061   7.620  11.549 -0.9164  0.9288 -0.2964
 5822TIP3   OH241660   4.539   0.144  10.274 -0.3157  0.5289 -0.0923
 5822TIP3    H141661   4.613   0.083  10.280 -2.4138 -2.1430  0.7154
 5822TIP3    H241662   4.531   0.180  10.362  1.4474  2.7812 -0.7702
 5823TIP3   OH241663   2.545   1.725  10.849 -0.1870 -0.3240  0.3872
 5823TIP3    H141664   2.623   1.726  10.905 -0.0302  1.5740  0.1891
 5823TIP3    H241665   2.500   1.807  10.869 -1.1123 -0.4942 -0.9063
 5824TIP3   OH241666   6.416   1.531  11.475  0.4159  0.0874 -0.0775
 5824TIP3    H141667   6.474   1.607  11.479 -0.9743  1.1647  0.8432
 5824TIP3    H241668   6.428   1.487  11.559 -0.4340  0.6066  0.3314
 5825TIP3   OH241669   7.240   5.902  12.376  0.2854 -0.8504 -0.3501
 5825TIP3    H141670   7.259   5.921  12.467  1.1407 -0.7168 -0.5444
 5825TIP3    H241671   7.299   5.830  12.354 -1.1724 -2.1068 -0.3080
 5826TIP3   OH241672   2.702   0.484  11.619 -0.0302  0.3639  1.3266
 5826TIP3    H141673   2.656   0.544  11.677  0.5872  1.2580  0.9194
 5826TIP3    H241674   2.728   0.538  11.544 -2.2705 -1.0541 -0.6596
 5827TIP3   OH241675   6.456   5.060  10.519 -0.1207 -0.1348 -0.5247
 5827TIP3    H141676   6.525   5.087  10.458  1.0094 -0.2287  0.6656
 5827TIP3    H241677   6.501   5.010  10.586 -1.2727  0.2390  0.5771
 5828TIP3   OH241678   2.856   7.230  11.224 -0.0965  0.2773 -0.3940
 5828TIP3    H141679   2.929   7.236  11.286  0.7393 -0.6416 -1.2503
 5828TIP3    H241680   2.852   7.137  11.201  0.1267  0.7059 -2.2913
 5829TIP3   OH241681   2.733   2.920  12.411 -0.7945 -0.3810 -0.1032
 5829TIP3    H141682   2.644   2.945  12.390 -1.2086 -0.9478  0.8943
 5829TIP3    H241683   2.757   2.975  12.486 -0.3644 -0.3340 -0.2727
 5830TIP3   OH241684   1.431   2.331  11.881 -0.2585  0.2344  0.3012
 5830TIP3    H141685   1.492   2.273  11.835 -2.5076 -0.9369 -1.3707
 5830TIP3    H241686   1.346   2.314  11.840 -1.7188  1.8876  2.4427
 5831TIP3   OH241687   5.473   2.427  11.860  0.7133  0.1193 -0.4541
 5831TIP3    H141688   5.484   2.509  11.908 -0.2051  0.3255 -0.5588
 5831TIP3    H241689   5.434   2.453  11.777 -1.9493 -0.5744  0.4527
 5832TIP3   OH241690   2.395   1.239  11.926  0.4400 -0.7238 -0.0714
 5832TIP3    H141691   2.427   1.280  11.845 -0.0219  0.7924  0.4805
 5832TIP3    H241692   2.324   1.181  11.896  0.8877 -0.8908 -0.8471
 5833TIP3   OH241693   5.088   1.358  11.166  0.3927 -0.3850 -0.1529
 5833TIP3    H141694   5.118   1.321  11.083  0.7474 -1.3901  0.4084
 5833TIP3    H241695   4.992   1.351  11.161  0.4471 -1.5212 -0.0163
 5834TIP3   OH241696   6.754   3.179  12.672 -0.6506 -0.1780 -0.0569
 5834TIP3    H141697   6.843   3.168  12.640 -0.8481 -3.0586  0.1805
 5834TIP3    H241698   6.701   3.189  12.593 -0.3536 -0.4866 -0.2977
 5835TIP3   OH241699   7.530   7.678  10.976 -0.0076 -0.7950 -0.5212
 5835TIP3    H141700   7.541   7.610  10.909  1.0281 -0.6959 -0.4743
 5835TIP3    H241701   7.523   7.759  10.926  0.0136 -0.8043 -0.5394
 5836TIP3   OH241702   2.688   2.798  12.078 -0.3256 -0.0307  0.7098
 5836TIP3    H141703   2.627   2.726  12.065 -1.4930  1.0722 -0.1933
 5836TIP3    H241704   2.774   2.762  12.055 -0.9911 -0.9122 -0.4673
 5837TIP3   OH241705   2.058   6.899  13.146 -0.4203  0.0016  0.1882
 5837TIP3    H141706   2.114   6.824  13.164 -2.4850 -1.3931  1.0975
 5837TIP3    H241707   2.023   6.923  13.232 -1.8491  0.3021 -0.4608
 5838TIP3   OH241708   0.102   2.346  11.662  0.2912  0.0779  0.3912
 5838TIP3    H141709   0.092   2.432  11.621 -0.3352  0.2663  0.9306
 5838TIP3    H241710   0.176   2.358  11.722 -1.8734  1.2778  3.0337
 5839TIP3   OH241711   2.989   6.795  12.292 -0.1223  0.5665  0.2973
 5839TIP3    H141712   2.954   6.716  12.250  0.4301 -0.5457  1.8521
 5839TIP3    H241713   3.059   6.824  12.232  0.7608 -1.0745  0.4799
 5840TIP3   OH241714   6.314   3.422  12.416  0.2449  0.0179 -0.3079
 5840TIP3    H141715   6.353   3.491  12.362  0.7952 -0.0772 -0.0413
 5840TIP3    H241716   6.231   3.403  12.373  0.8571 -0.3498 -1.3901
 5841TIP3   OH241717   3.207   7.649  11.967 -0.0888 -0.6266 -0.1140
 5841TIP3    H141718   3.273   7.673  11.902 -1.6926 -1.4666 -2.1258
 5841TIP3    H241719   3.135   7.711  11.953 -0.2222 -0.4012  1.3345
 5842TIP3   OH241720   1.036   6.323  11.450  0.1049 -0.0636 -0.0803
 5842TIP3    H141721   1.008   6.290  11.536  1.0077  0.1241  0.2897
 5842TIP3    H241722   1.041   6.245  11.395  0.1582 -0.2685  0.2123
 5843TIP3   OH241723   6.703   0.082  10.906 -0.3859  0.4880 -0.3322
 5843TIP3    H141724   6.676   0.115  10.820 -0.4488 -1.9541 -1.3342
 5843TIP3    H241725   6.640   0.012  10.925 -0.4552  1.0719  1.7930
 5844TIP3   OH241726   4.765   6.784  12.062 -0.5064 -0.2417  0.3285
 5844TIP3    H141727   4.676   6.780  12.028  0.0137 -2.0562 -0.9540
 5844TIP3    H241728   4.794   6.874  12.043 -2.1238  0.5033  1.1081
 5845TIP3   OH241729   1.783   4.380  10.924 -0.3367 -0.0005 -0.3335
 5845TIP3    H141730   1.814   4.305  10.873 -0.0088  0.8529 -1.4337
 5845TIP3    H241731   1.849   4.448  10.910 -0.7634  0.5898  0.4192
 5846TIP3   OH241732   1.759   3.194  12.460  0.1028  0.1030  0.3027
 5846TIP3    H141733   1.686   3.239  12.502  0.5905  0.0595  1.2289
 5846TIP3    H241734   1.797   3.139  12.529  0.5416 -0.4634 -0.3664
 5847TIP3   OH241735   5.300   1.166  11.311 -0.1775  0.2738  0.2043
 5847TIP3    H141736   5.289   1.088  11.257  2.3780  0.6473 -1.0138
 5847TIP3    H241737   5.251   1.234  11.264 -2.0489 -0.4120  1.0434
 5848TIP3   OH241738   4.140   4.532  12.092  0.0871  0.1522 -0.4286
 5848TIP3    H141739   4.195   4.594  12.046  0.9859  0.1669  0.6311
 5848TIP3    H241740   4.052   4.569  12.088  0.4968  1.1308 -0.4280
 5849TIP3   OH241741   1.775   3.347  10.772  0.0469 -0.5414 -0.4944
 5849TIP3    H141742   1.744   3.282  10.835 -1.2993 -0.4481 -1.0182
 5849TIP3    H241743   1.863   3.319  10.748  0.6109 -0.5486  1.4520
 5850TIP3   OH241744   0.187   1.781  12.054  0.0791 -0.3884  0.4048
 5850TIP3    H141745   0.135   1.801  11.976  0.8515 -1.6714 -0.5010
 5850TIP3    H241746   0.227   1.864  12.079 -1.3329  0.3331  0.3148
 5851TIP3   OH241747   6.604   6.138  12.546 -0.2301  0.2971 -0.0468
 5851TIP3    H141748   6.644   6.175  12.625 -0.3430  1.5698 -0.5590
 5851TIP3    H241749   6.596   6.213  12.486  0.3537 -0.7319 -1.4762
 5852TIP3   OH241750   2.047   6.289  11.508 -0.0155 -0.3081 -0.5290
 5852TIP3    H141751   2.057   6.384  11.500  0.1457 -0.3375 -0.6753
 5852TIP3    H241752   2.074   6.254  11.423  1.0725 -0.5710 -0.0833
 5853TIP3   OH241753   3.392   2.056  10.853 -0.2983 -0.9480 -0.0578
 5853TIP3    H141754   3.429   2.132  10.809  0.8391 -2.1390 -1.2417
 5853TIP3    H241755   3.304   2.084  10.877 -0.1493  0.5273 -1.0403
 5854TIP3   OH241756   2.037   5.774  12.060  0.6458  0.0461 -0.5739
 5854TIP3    H141757   2.069   5.720  11.986  1.8173 -1.2714  0.8149
 5854TIP3    H241758   1.942   5.768  12.054  0.7198 -2.1297 -0.5736
 5855TIP3   OH241759   7.643   5.204  12.901  0.1105 -0.0755 -0.0274
 5855TIP3    H141760   7.553   5.186  12.928  0.8194 -1.4816  1.5466
 5855TIP3    H241761   7.692   5.215  12.982  1.1377  2.1235 -0.8554
 5856TIP3   OH241762   3.969   1.587  11.081  0.2826 -0.3236  0.1867
 5856TIP3    H141763   3.889   1.589  11.029  0.9436 -0.0198 -0.8345
 5856TIP3    H241764   3.956   1.656  11.146  0.4161  0.9343 -1.0681
 5857TIP3   OH241765   4.942   5.144  11.971  0.4144  0.3829  0.5856
 5857TIP3    H141766   5.019   5.174  12.020  0.6447  1.3458 -0.3334
 5857TIP3    H241767   4.962   5.053  11.950  1.1133  0.4932  0.7262
 5858TIP3   OH241768   1.275   7.598  10.599  0.0399 -0.3817 -0.2665
 5858TIP3    H141769   1.338   7.634  10.537 -0.8207  0.5156 -0.6423
 5858TIP3    H241770   1.229   7.530  10.550  0.0104 -0.3315 -0.3078
 5859TIP3   OH241771   6.994   3.651  13.071 -0.0851  0.8134  0.0436
 5859TIP3    H141772   6.902   3.654  13.097  0.1637  2.7294  0.8882
 5859TIP3    H241773   7.037   3.714  13.129  2.0571 -1.1506  0.7523
 5860TIP3   OH241774   2.005   1.016  11.500  0.0008 -0.1291 -0.3361
 5860TIP3    H141775   1.915   0.983  11.500 -0.3100  0.6571  0.8097
 5860TIP3    H241776   2.025   1.031  11.593  1.6534 -1.1697 -0.4670
 5861TIP3   OH241777   4.507   0.572  13.109  0.3048 -0.0136  0.1596
 5861TIP3    H141778   4.451   0.521  13.051  0.7125 -0.8113  0.4476
 5861TIP3    H241779   4.492   0.663  13.084  0.1774 -0.3185 -0.9200
 5862TIP3   OH241780   4.560   5.375  11.387 -0.0645 -0.3502 -0.4449
 5862TIP3    H141781   4.477   5.330  11.369 -0.4899  0.2375 -0.0172
 5862TIP3    H241782   4.594   5.332  11.466  0.2848 -0.9109 -0.8942
 5863TIP3   OH241783   1.695   3.292  10.378 -0.4004 -0.5602 -0.3156
 5863TIP3    H141784   1.752   3.349  10.430 -0.0158 -0.8647 -0.3971
 5863TIP3    H241785   1.658   3.350  10.311 -1.1832 -0.0875  0.5027
 5864TIP3   OH241786   1.041   2.490  12.077  0.1198  0.2783  0.6783
 5864TIP3    H141787   1.016   2.424  12.013  0.3586  1.0728 -0.2612
 5864TIP3    H241788   1.102   2.445  12.135  0.7123 -0.1886 -0.2753
 5865TIP3   OH241789   0.004   3.043  11.027  0.4384 -0.4499 -0.0202
 5865TIP3    H141790   0.035   3.058  11.116 -0.2286 -0.5769  0.2418
 5865TIP3    H241791   0.066   3.090  10.971  0.2975  0.4561  0.5738
 5866TIP3   OH241792   7.640   4.250  12.149 -0.2746  0.0347  0.4914
 5866TIP3    H141793   7.637   4.232  12.055  2.5676 -0.3582  0.4005
 5866TIP3    H241794   7.565   4.202  12.185  0.1200 -2.0336 -1.2615
 5867TIP3   OH241795   2.057   4.909  11.087 -0.6111  0.2676 -0.3924
 5867TIP3    H141796   2.016   4.962  11.156 -2.0618 -0.8583 -0.3246
 5867TIP3    H241797   1.990   4.903  11.019  0.5396  0.7581 -1.6144
 5868TIP3   OH241798   7.106   6.752  11.328  0.7153  0.1845 -0.4113
 5868TIP3    H141799   7.084   6.787  11.242 -1.1085 -0.8319 -0.4070
 5868TIP3    H241800   7.142   6.665  11.311  3.3320  1.1715 -0.2980
 5869TIP3   OH241801   3.567   3.903  12.584  0.1444  0.1971 -0.0218
 5869TIP3    H141802   3.473   3.922  12.594 -0.2206 -1.1888 -0.5627
 5869TIP3    H241803   3.598   3.969  12.522 -0.1027  1.6349  1.3271
 5870TIP3   OH241804   0.589   1.462  11.604 -0.5676  0.6323  0.1553
 5870TIP3    H141805   0.598   1.529  11.536  2.7006 -0.1614 -0.3297
 5870TIP3    H241806   0.540   1.392  11.561  0.9320  0.3965 -1.2625
 5871TIP3   OH241807   7.139   1.009  11.110 -0.7986 -0.1093  0.4746
 5871TIP3    H141808   7.191   1.000  11.190 -0.7121  0.5566  0.4938
 5871TIP3    H241809   7.081   1.083  11.127 -0.6724  0.1358 -0.1482
 5872TIP3   OH241810   2.755   5.965  11.535  0.2532 -0.3265  0.0386
 5872TIP3    H141811   2.727   6.056  11.546 -1.3955 -1.0512  3.1451
 5872TIP3    H241812   2.848   5.966  11.559  0.4529  0.6419 -0.7071
 5873TIP3   OH241813   5.334   0.983  10.964  0.0311  0.1124 -0.1780
 5873TIP3    H141814   5.418   0.955  10.927 -0.7355 -1.8172 -0.5527
 5873TIP3    H241815   5.268   0.932  10.916 -1.4394  2.1271 -0.4354
 5874TIP3   OH241816   2.129   3.409  11.129 -0.9022  0.2079  0.1411
 5874TIP3    H141817   2.213   3.370  11.156 -0.7103 -0.2482 -1.0716
 5874TIP3    H241818   2.080   3.336  11.092 -1.7786  0.5167  0.6688
 5875TIP3   OH241819   1.897   5.464  11.709 -0.5986 -0.0621  0.1929
 5875TIP3    H141820   1.937   5.384  11.742  1.4916  0.2662 -1.3331
 5875TIP3    H241821   1.812   5.468  11.752 -0.8542 -3.1847  0.1643
 5876TIP3   OH241822   7.102   1.046  12.178  0.2293 -0.3244 -0.2869
 5876TIP3    H141823   7.078   1.077  12.265  2.6752  0.3656  0.2121
 5876TIP3    H241824   7.021   1.055  12.127 -0.6882  1.4311  1.3205
 5877TIP3   OH241825   6.245   5.499  11.696  0.2951 -0.3616  0.2080
 5877TIP3    H141826   6.242   5.593  11.712  0.4417 -0.1497 -0.9505
 5877TIP3    H241827   6.158   5.468  11.722 -0.0010  0.2077 -0.0932
 5878TIP3   OH241828   0.489   7.189  12.541  0.0852  0.0547 -0.0177
 5878TIP3    H141829   0.447   7.148  12.616  0.6584  0.1016  0.3382
 5878TIP3    H241830   0.559   7.242  12.578  0.0682  0.4647 -0.5542
 5879TIP3   OH241831   6.758   1.179  13.182 -0.5783 -0.5584  0.3293
 5879TIP3    H141832   6.778   1.273  13.178  0.3500 -0.7822 -1.4593
 5879TIP3    H241833   6.669   1.175  13.216 -1.0162  1.0385 -0.5174
 5880TIP3   OH241834   0.249   4.483  10.477 -0.3200 -0.2935 -0.9458
 5880TIP3    H141835   0.322   4.544  10.482 -0.1965 -0.5656  1.1606
 5880TIP3    H241836   0.194   4.518  10.406 -0.0379  2.0408 -0.1108
 5881TIP3   OH241837   5.991   6.957  12.191  0.4446 -0.4902  0.2515
 5881TIP3    H141838   6.038   6.987  12.270  1.6131  0.3326 -0.7229
 5881TIP3    H241839   5.905   6.997  12.198  0.8008  0.2141  0.7348
 5882TIP3   OH241840   7.281   4.246  11.794 -0.0875  0.0325  0.1737
 5882TIP3    H141841   7.264   4.231  11.701 -0.2058  0.8962  0.0493
 5882TIP3    H241842   7.372   4.218  11.807 -0.1448 -0.3135 -0.1444
 5883TIP3   OH241843   3.439   1.333  12.901 -0.7399 -0.5273 -0.0442
 5883TIP3    H141844   3.473   1.363  12.986 -0.9765  1.0398 -0.4709
 5883TIP3    H241845   3.515   1.295  12.857 -0.2429  0.1149  0.2414
 5884TIP3   OH241846   5.162   1.524  11.372  0.2192 -0.0801 -0.2711
 5884TIP3    H141847   5.095   1.590  11.356 -0.7787 -0.4109  2.0756
 5884TIP3    H241848   5.149   1.459  11.303 -1.8464 -0.0624  0.0308
 5885TIP3   OH241849   1.048   6.039  10.444  0.0279 -0.0363  0.2030
 5885TIP3    H141850   0.967   5.988  10.453 -1.6670  2.1798 -1.5544
 5885TIP3    H241851   1.072   6.061  10.534  0.7819 -3.6290  1.0572
 5886TIP3   OH241852   4.110   7.189  13.129  0.1749 -0.2598  0.0510
 5886TIP3    H141853   4.038   7.219  13.184  0.2917 -2.0389  1.2563
 5886TIP3    H241854   4.086   7.100  13.104  2.7869 -1.7281  2.2203
 5887TIP3   OH241855   3.552   4.330  13.092 -0.7770 -0.2103  0.3589
 5887TIP3    H141856   3.647   4.326  13.103 -0.5826  1.8922 -0.1033
 5887TIP3    H241857   3.532   4.423  13.085 -2.5720 -0.6588 -2.1677
 5888TIP3   OH241858   4.239   2.990  11.246  0.2465  0.1098 -0.5751
 5888TIP3    H141859   4.166   2.960  11.301 -0.0471  1.5473 -0.1146
 5888TIP3    H241860   4.285   2.910  11.220 -0.3267 -0.6957  0.7760
 5889TIP3   OH241861   0.138   6.924  13.636  0.4709 -0.5279  0.0914
 5889TIP3    H141862   0.051   6.955  13.658  0.8014  1.8651 -1.5636
 5889TIP3    H241863   0.188   7.003  13.617  3.4617 -1.6934  2.2766
 5890TIP3   OH241864   6.100   1.550  12.825  0.4144 -0.2420 -0.2605
 5890TIP3    H141865   6.021   1.586  12.864  0.5180  0.9261 -1.0666
 5890TIP3    H241866   6.143   1.503  12.897 -0.6484 -0.2922  0.3582
 5891TIP3   OH241867   4.290   2.845  11.976  0.1730 -0.1470 -0.1600
 5891TIP3    H141868   4.316   2.754  11.995 -0.1086 -0.8072 -2.5856
 5891TIP3    H241869   4.325   2.895  12.049  1.3477 -2.0641  0.6845
 5892TIP3   OH241870   0.717   6.462  13.124 -0.1186  1.0890  0.1114
 5892TIP3    H141871   0.726   6.464  13.028 -0.3099 -0.4410  0.0345
 5892TIP3    H241872   0.751   6.376  13.149 -2.5007  0.3508  1.1076
 5893TIP3   OH241873   1.882   3.105  13.230 -0.1932  0.1787  0.1988
 5893TIP3    H141874   1.832   3.155  13.164 -1.1708 -3.1675 -1.8333
 5893TIP3    H241875   1.816   3.056  13.278  0.8430 -2.9681 -1.3271
 5894TIP3   OH241876   4.100   7.266  10.877 -0.1811  0.4490  0.2163
 5894TIP3    H141877   4.186   7.273  10.917 -0.2110  1.2443  0.1584
 5894TIP3    H241878   4.102   7.183  10.830 -0.0041 -0.2955  1.4989
 5895TIP3   OH241879   0.169   4.059  11.556  0.0478  0.0476 -0.0377
 5895TIP3    H141880   0.090   4.031  11.509 -1.1441  0.2728  1.7281
 5895TIP3    H241881   0.184   4.149  11.526 -0.1529 -0.1174 -0.6464
 5896TIP3   OH241882   0.259   3.522  12.481  0.5201  0.4112 -0.0786
 5896TIP3    H141883   0.241   3.604  12.527  0.1199 -0.2490  0.9773
 5896TIP3    H241884   0.198   3.523  12.407 -0.7331  0.2834  0.9115
 5897TIP3   OH241885   2.155   4.123  12.364 -1.1443  0.8373 -0.1635
 5897TIP3    H141886   2.059   4.118  12.360 -1.2926 -0.6853  2.7895
 5897TIP3    H241887   2.178   4.084  12.448  2.3029 -1.5972 -1.9739
 5898TIP3   OH241888   7.209   0.739  11.370 -0.2078  0.1840 -0.0717
 5898TIP3    H141889   7.193   0.834  11.376 -0.3094  0.2982 -1.7382
 5898TIP3    H241890   7.304   0.732  11.357 -0.1838  0.0476  0.1769
 5899TIP3   OH241891   0.571   1.814  11.681 -0.3585 -0.4537  0.7949
 5899TIP3    H141892   0.504   1.882  11.670  1.6707  1.5038 -0.4727
 5899TIP3    H241893   0.570   1.767  11.597 -0.4576 -0.7031  0.9374
 5900TIP3   OH241894   4.115   6.804  12.860  0.1585 -0.2063 -0.1957
 5900TIP3    H141895   4.069   6.733  12.814 -0.2932  0.0983 -0.2207
 5900TIP3    H241896   4.060   6.825  12.935 -0.6741  1.3597 -1.1863
 5901TIP3   OH241897   4.212   4.956  12.121  0.0939 -0.0464 -0.3542
 5901TIP3    H141898   4.298   4.936  12.159 -0.2149  0.4761  0.6371
 5901TIP3    H241899   4.225   5.040  12.077  1.1302 -1.7631 -3.6874
 5902TIP3   OH241900   5.387   0.522  12.275  0.1183 -0.3133  0.3074
 5902TIP3    H141901   5.300   0.513  12.236  0.0444 -0.8343  0.5764
 5902TIP3    H241902   5.399   0.440  12.324  0.4688  0.0585  0.8506
 5903TIP3   OH241903   4.398   4.118  11.850 -0.3328  0.3171  0.1511
 5903TIP3    H141904   4.428   4.167  11.774 -1.0034 -2.2648 -1.8909
 5903TIP3    H241905   4.333   4.176  11.891  1.6343  2.6749  0.1395
 5904TIP3   OH241906   3.024   4.208  11.657  0.2294 -0.2469 -0.3753
 5904TIP3    H141907   3.004   4.238  11.568  1.4835  0.6337 -0.3777
 5904TIP3    H241908   3.087   4.272  11.691 -0.5758 -0.2932  1.3325
 5905TIP3   OH241909   2.769   2.577  12.438  0.0593 -0.0937  0.0823
 5905TIP3    H141910   2.782   2.512  12.368  0.4447  0.2288 -0.1470
 5905TIP3    H241911   2.730   2.652  12.393 -0.5942 -0.2466  0.3875
 5906TIP3   OH241912   3.499   0.577  10.398 -0.4320  0.3016 -0.0869
 5906TIP3    H141913   3.414   0.535  10.411 -0.5501  0.7008  0.4442
 5906TIP3    H241914   3.551   0.511  10.351 -0.1716 -1.0195  1.9051
 5907TIP3   OH241915   5.475   5.068  11.049  0.0195 -0.4410 -0.5726
 5907TIP3    H141916   5.503   5.160  11.051  1.1631 -0.6510 -3.2600
 5907TIP3    H241917   5.492   5.039  10.960 -1.7816 -2.8594 -0.2470
 5908TIP3   OH241918   5.777   6.276  12.156 -0.3048 -0.2831 -0.5212
 5908TIP3    H141919   5.713   6.337  12.191  1.6975  1.4290  0.4132
 5908TIP3    H241920   5.785   6.300  12.063 -0.8650 -0.3764 -0.5941
 5909TIP3   OH241921   2.244   6.334  10.838  0.0385  0.1594  0.1543
 5909TIP3    H141922   2.273   6.243  10.843  0.5250  0.3122  0.1802
 5909TIP3    H241923   2.153   6.332  10.869  0.1713 -0.2526  0.5272
 5910TIP3   OH241924   6.451   1.936  12.919 -0.2224 -0.2102 -0.5330
 5910TIP3    H141925   6.514   1.986  12.868 -0.3361  0.7049  0.1800
 5910TIP3    H241926   6.477   1.952  13.010 -1.6602  0.4697 -0.2132
 5911TIP3   OH241927   2.510   3.937  12.362  0.4384  0.4217 -0.4207
 5911TIP3    H141928   2.580   3.882  12.398  1.2823  2.0452  0.5187
 5911TIP3    H241929   2.432   3.910  12.411  1.0294  0.6937  0.7085
 5912TIP3   OH241930   3.551   7.542  11.411  0.2271 -0.2043 -0.3489
 5912TIP3    H141931   3.576   7.523  11.320  0.2315  0.5635 -0.5144
 5912TIP3    H241932   3.459   7.566  11.406 -0.1960 -1.6878  0.0741
 5913TIP3   OH241933   5.076   4.325  11.160 -0.3460  0.2523  0.1140
 5913TIP3    H141934   5.063   4.253  11.098 -1.9916  0.8434 -0.2968
 5913TIP3    H241935   5.109   4.396  11.107  1.4121 -0.2014  0.5452
 5914TIP3   OH241936   3.469   6.630  11.598  0.3227 -0.3488 -0.5550
 5914TIP3    H141937   3.431   6.710  11.561  0.5478  1.0571  2.0212
 5914TIP3    H241938   3.507   6.584  11.523 -0.0284  1.8382 -2.1528
 5915TIP3   OH241939   3.903   1.287  10.571 -0.3408  0.1288  0.2582
 5915TIP3    H141940   3.857   1.315  10.650  1.9180  1.7016  1.1488
 5915TIP3    H241941   3.893   1.361  10.511 -1.4869 -0.7881 -0.7219
 5916TIP3   OH241942   2.870   6.279  12.738  0.8995  0.3861 -0.6259
 5916TIP3    H141943   2.838   6.301  12.826  1.2885  0.7452 -0.5679
 5916TIP3    H241944   2.964   6.265  12.750  1.0918  1.1821 -1.1067
 5917TIP3   OH241945   4.897   6.713  11.465  0.2069 -1.0274 -0.1662
 5917TIP3    H141946   4.956   6.653  11.419 -0.0516 -1.5273  0.1522
 5917TIP3    H241947   4.817   6.662  11.480  0.4999 -1.0759  1.3754
 5918TIP3   OH241948   0.676   0.328  10.378  0.3649 -0.1513 -0.0473
 5918TIP3    H141949   0.656   0.418  10.353  0.1925 -0.1081  0.2316
 5918TIP3    H241950   0.739   0.298  10.313  0.0186 -0.0051 -0.4536
 5919TIP3   OH241951   6.271   4.161  11.253  0.2268 -0.1180  0.0839
 5919TIP3    H141952   6.296   4.068  11.252  0.9035  0.0342  1.0010
 5919TIP3    H241953   6.191   4.165  11.202 -0.5479 -1.4424  1.1102
 5920TIP3   OH241954   1.611   5.340  11.280 -0.0585 -0.3559 -0.2369
 5920TIP3    H141955   1.599   5.245  11.277 -1.6949 -0.1822  0.1605
 5920TIP3    H241956   1.539   5.372  11.335 -0.2474  1.2304 -1.3450
 5921TIP3   OH241957   3.089   3.148  11.252 -0.1775 -0.0900  0.0322
 5921TIP3    H141958   3.035   3.202  11.194 -0.2383  1.1958  1.2230
 5921TIP3    H241959   3.168   3.200  11.266  0.8794 -1.4147 -0.7189
 5922TIP3   OH241960   4.685   0.075  13.501  0.2856  0.2793  0.3307
 5922TIP3    H141961   4.722   0.105  13.583  1.0791 -0.5078  0.2774
 5922TIP3    H241962   4.754   0.088  13.436  0.4732 -1.1129  0.2097
 5923TIP3   OH241963   2.897   3.685  11.938 -0.1303  0.4521 -0.4383
 5923TIP3    H141964   2.992   3.679  11.940 -0.2230 -1.5430  1.5481
 5923TIP3    H241965   2.873   3.712  12.027 -1.4363  1.1467 -0.9652
 5924TIP3   OH241966   0.523   2.295  12.183  0.6047 -0.1253  0.0528
 5924TIP3    H141967   0.575   2.375  12.186 -0.1364  0.4051 -0.6548
 5924TIP3    H241968   0.564   2.241  12.115  1.9146 -0.9555  1.4561
 5925TIP3   OH241969   0.441   2.636  11.566  0.3839  0.5384  0.1189
 5925TIP3    H141970   0.444   2.730  11.582 -0.1274  0.5752  0.0061
 5925TIP3    H241971   0.352   2.619  11.536  1.1694  0.4052 -2.3267
 5926TIP3   OH241972   1.291   1.458  12.381  0.2081  0.6131 -0.0301
 5926TIP3    H141973   1.326   1.518  12.447  2.5081 -2.8914  2.3124
 5926TIP3    H241974   1.223   1.409  12.427 -0.0113 -0.1406 -1.1179
 5927TIP3   OH241975   0.108   3.155  11.910  0.6635 -0.1109 -0.2427
 5927TIP3    H141976   0.184   3.126  11.860  2.2311  0.0311  1.9564
 5927TIP3    H241977   0.097   3.247  11.887  1.3370 -0.0588 -0.3604
 5928TIP3   OH241978   1.502   5.377  11.640 -0.3790 -0.0780 -0.7647
 5928TIP3    H141979   1.471   5.365  11.550  1.3484  1.7596 -1.7041
 5928TIP3    H241980   1.567   5.308  11.652  0.2511  0.3846 -1.4049
 5929TIP3   OH241981   5.913   3.350  11.193  0.0970  0.1527  1.0104
 5929TIP3    H141982   5.838   3.292  11.204 -0.7151  0.6907 -1.1440
 5929TIP3    H241983   5.962   3.313  11.119  1.1908  0.5896  1.4973
 5930TIP3   OH241984   1.355   4.192  10.736  0.5153 -0.0176 -0.4494
 5930TIP3    H141985   1.296   4.217  10.808 -0.6938  3.2463 -2.3415
 5930TIP3    H241986   1.304   4.131  10.683  1.3839 -2.3833  1.2822
 5931TIP3   OH241987   3.810   3.453  11.475 -0.6252 -0.2083 -0.1417
 5931TIP3    H141988   3.854   3.524  11.429  2.7904 -1.3685  1.0248
 5931TIP3    H241989   3.767   3.494  11.549 -0.0406  0.8307 -0.3649
 5932TIP3   OH241990   0.021   1.191  12.919 -0.1447  0.2241  0.0895
 5932TIP3    H141991   0.106   1.189  12.963 -0.3549 -0.4161  0.4699
 5932TIP3    H241992  -0.041   1.216  12.987 -0.3492  0.0786 -0.0422
 5933TIP3   OH241993   1.926   3.369  11.294 -0.0542  0.9641  0.0928
 5933TIP3    H141994   2.008   3.403  11.258  0.2155  0.8714  0.6050
 5933TIP3    H241995   1.951   3.333  11.379 -0.3260 -0.5115 -0.4151
 5934TIP3   OH241996   6.471   2.520  10.719 -0.3519  0.2200 -0.0024
 5934TIP3    H141997   6.451   2.509  10.627 -0.8188 -1.4215  0.2571
 5934TIP3    H241998   6.511   2.607  10.726  1.3809 -0.3400 -2.0315
 5935TIP3   OH241999   6.448   3.117  10.982 -0.3396  0.6678 -0.0072
 5935TIP3    H142000   6.413   3.198  10.945 -0.9627 -0.5019 -2.1949
 5935TIP3    H242001   6.371   3.059  10.989 -0.3497  0.8841  3.6373
 5936TIP3   OH242002   2.919   4.583  10.854  0.0422  0.0117 -0.3324
 5936TIP3    H142003   2.842   4.532  10.878 -1.4908  1.3796 -2.0845
 5936TIP3    H242004   2.992   4.534  10.893 -1.4795 -2.4300 -0.2867
 5937TIP3   OH242005   5.850   0.661  12.050 -0.2938 -0.0825 -0.2418
 5937TIP3    H142006   5.875   0.723  12.119  0.3493 -0.4445 -0.1341
 5937TIP3    H242007   5.759   0.681  12.031  0.3037  1.9586 -1.3097
 5938TIP3   OH242008   6.632   3.269  11.395 -0.1810  0.4695  0.4198
 5938TIP3    H142009   6.601   3.210  11.326  0.3737  1.3101 -0.5631
 5938TIP3    H242010   6.724   3.284  11.374  0.2107  0.1119  1.8076
 5939TIP3   OH242011   4.496   0.168  10.784 -0.7107  0.4082 -0.2584
 5939TIP3    H142012   4.439   0.110  10.835  0.2882  0.3185  0.7923
 5939TIP3    H242013   4.580   0.165  10.830  0.0223  0.8759 -1.5332
 5940TIP3   OH242014   4.697   6.259  11.342  0.0989  0.2791 -0.1425
 5940TIP3    H142015   4.668   6.264  11.433 -0.2241 -0.9457 -0.1545
 5940TIP3    H242016   4.722   6.167  11.331  1.4689  0.7320 -0.8962
 5941TIP3   OH242017   2.417   3.934  11.307  0.2978 -0.0687  0.5596
 5941TIP3    H142018   2.374   4.005  11.260  1.2670  0.4052  0.3742
 5941TIP3    H242019   2.399   3.856  11.253 -1.6694 -0.2036  1.3094
 5942TIP3   OH242020   3.891   2.144  12.254  0.2776  0.3634 -0.3570
 5942TIP3    H142021   3.972   2.094  12.242  0.9020  1.4448 -0.8634
 5942TIP3    H242022   3.897   2.178  12.344  0.4191  0.4930 -0.4151
 5943TIP3   OH242023   0.289   4.820  12.225  0.1245 -0.3072 -0.1756
 5943TIP3    H142024   0.282   4.898  12.172  0.2351  0.2393  0.5982
 5943TIP3    H242025   0.200   4.802  12.255  0.4975  1.5556  2.4600
 5944TIP3   OH242026   6.142   5.485  12.186  0.1282 -0.9787  0.6110
 5944TIP3    H142027   6.089   5.547  12.237  0.3623  0.4833 -0.8483
 5944TIP3    H242028   6.091   5.471  12.106  1.0466 -1.0295  0.0209
 5945TIP3   OH242029   1.195   2.434  12.397  0.2456  0.1452 -0.3247
 5945TIP3    H142030   1.108   2.399  12.377  0.3615 -0.4975  0.2453
 5945TIP3    H242031   1.209   2.412  12.489  1.2386 -0.2350 -0.5547
 5946TIP3   OH242032   4.577   1.959  10.756 -0.1140 -0.8923  0.0011
 5946TIP3    H142033   4.557   1.881  10.808  1.0781  0.2013  2.2760
 5946TIP3    H242034   4.669   1.978  10.776 -0.3424  1.0253 -0.5829
 5947TIP3   OH242035   2.590   5.749  10.755  0.5123 -0.0102  0.0524
 5947TIP3    H142036   2.537   5.671  10.771  0.8429 -0.4772 -1.0176
 5947TIP3    H242037   2.541   5.798  10.689  0.4148  0.5850  0.5590
 5948TIP3   OH242038   1.297   6.315  13.024 -0.1952  0.6650  0.3502
 5948TIP3    H142039   1.320   6.385  13.085  0.0658  0.1660  0.8316
 5948TIP3    H242040   1.292   6.236  13.078  1.1826 -0.0125 -0.4455
 5949TIP3   OH242041   4.138   1.470  11.266 -0.2027 -0.1215 -0.5452
 5949TIP3    H142042   4.219   1.516  11.245 -1.4205  2.1428 -0.4999
 5949TIP3    H242043   4.077   1.498  11.198 -1.2407 -1.0323 -0.0085
 5950TIP3   OH242044   7.594   2.546  12.498 -0.1177  0.2783  0.4957
 5950TIP3    H142045   7.575   2.538  12.591  1.5792 -0.6527  0.8072
 5950TIP3    H242046   7.610   2.639  12.484  1.8291  0.1678  1.6389
 5951TIP3   OH242047   5.964   5.111  11.085  0.0365  0.3689  0.1129
 5951TIP3    H142048   6.043   5.092  11.035 -0.3177 -1.2342  0.0990
 5951TIP3    H242049   5.944   5.028  11.130 -1.7417  0.6653 -0.0613
 5952TIP3   OH242050   5.866   6.426  12.919 -0.1499  0.2502  0.0832
 5952TIP3    H142051   5.774   6.449  12.908 -0.0913  1.1616  1.2074
 5952TIP3    H242052   5.877   6.418  13.014  0.9619  0.3602 -0.0253
 5953TIP3   OH242053   1.481   4.737  12.756 -0.3227 -0.6648  0.4316
 5953TIP3    H142054   1.496   4.661  12.700  1.2615  1.5980 -2.5470
 5953TIP3    H242055   1.562   4.746  12.806  0.0958 -0.1570 -0.3150
 5954TIP3   OH242056   2.357   0.622  13.228  0.5209 -0.0035 -0.3725
 5954TIP3    H142057   2.373   0.612  13.322  0.9955  1.3163 -0.2971
 5954TIP3    H242058   2.313   0.541  13.203 -0.2079 -0.0985  1.1116
 5955TIP3   OH242059   0.107   7.531  12.456  0.1779  0.0565 -0.2808
 5955TIP3    H142060   0.020   7.495  12.475  0.4881 -0.4975  0.1143
 5955TIP3    H242061   0.159   7.456  12.428  0.9230  0.1147  0.8735
 5956TIP3   OH242062   7.617   5.717  16.844  0.1826  0.0998  0.1546
 5956TIP3    H142063   7.708   5.745  16.835 -0.1395  0.3922 -3.4174
 5956TIP3    H242064   7.567   5.798  16.844 -0.2093 -0.1400 -0.3000
 5957TIP3   OH242065   6.816   6.201  10.911 -0.0216  0.1437 -1.0302
 5957TIP3    H142066   6.847   6.144  10.841  1.4569  0.1031 -0.3834
 5957TIP3    H242067   6.873   6.278  10.906  1.1573 -0.5060  1.0241
 5958TIP3   OH242068   3.837   1.029  10.679  0.5217 -0.0406 -0.2470
 5958TIP3    H142069   3.742   1.038  10.678  0.5458  0.5620  1.0395
 5958TIP3    H242070   3.870   1.112  10.643  0.5584  0.1582  0.2281
 5959TIP3   OH242071   3.927   7.031  11.412  0.2546  0.7537 -0.6565
 5959TIP3    H142072   3.964   6.959  11.362 -0.3333  0.6824 -0.9918
 5959TIP3    H242073   3.979   7.033  11.493 -0.7815 -1.1050  0.1010
 5960TIP3   OH242074   5.950   2.455  11.095  0.1151  0.1788  0.3507
 5960TIP3    H142075   5.920   2.388  11.033 -0.7463  0.8283  0.0473
 5960TIP3    H242076   6.043   2.435  11.109  0.3914  0.1337 -1.3151
 5961TIP3   OH242077   1.948   2.305  11.573  1.3965  0.4111  0.6135
 5961TIP3    H142078   1.872   2.296  11.516  1.8286  1.2212 -0.1037
 5961TIP3    H242079   1.925   2.254  11.651  1.6716 -2.6110 -1.1166
 5962TIP3   OH242080   1.180   3.692  11.088  0.0376  0.0573  0.0060
 5962TIP3    H142081   1.099   3.725  11.049 -0.7841 -0.4547  1.2000
 5962TIP3    H242082   1.173   3.716  11.181  1.1822 -0.1340  0.1557
 5963TIP3   OH242083   2.083   2.518  11.457 -0.0509 -0.1512 -0.4701
 5963TIP3    H142084   2.037   2.442  11.492  0.2554 -0.8896 -1.5942
 5963TIP3    H242085   2.173   2.508  11.488  0.2523 -0.8788 -1.5273
 5964TIP3   OH242086   4.273   3.908  12.133  0.0436  0.5216 -0.1003
 5964TIP3    H142087   4.192   3.957  12.119 -0.5240  0.6839  3.0186
 5964TIP3    H242088   4.286   3.860  12.051 -2.3032  1.7238 -1.2942
 5965TIP3   OH242089   5.941   6.042  10.738  0.8314  0.6162 -0.1841
 5965TIP3    H142090   6.021   6.045  10.686  0.7773 -1.0692 -0.4229
 5965TIP3    H242091   5.971   6.022  10.827  0.6992  0.3935 -0.1903
 5966TIP3   OH242092   7.304   4.879  12.630  0.2191  0.2554  0.8370
 5966TIP3    H142093   7.331   4.936  12.558  0.0717  0.7916  1.1935
 5966TIP3    H242094   7.384   4.861  12.678  0.3882 -0.4555  0.2983
 5967TIP3   OH242095   7.321   7.242  12.824 -0.5632  0.6213  0.3067
 5967TIP3    H142096   7.282   7.155  12.824  0.1891  0.2139 -2.0960
 5967TIP3    H242097   7.380   7.242  12.900 -1.8629 -0.3181  1.3527
 5968TIP3   OH242098   7.112   2.554  11.967  0.1986 -0.0963  0.1392
 5968TIP3    H142099   7.063   2.632  11.990 -0.5506 -0.2764 -0.7794
 5968TIP3    H242100   7.077   2.485  12.023 -1.1320 -0.3833 -0.9995
 5969TIP3   OH242101   5.044   2.335  12.621 -0.5864  0.4915  0.3337
 5969TIP3    H142102   5.091   2.400  12.569  0.9449 -0.1245  0.8786
 5969TIP3    H242103   5.113   2.278  12.656 -1.7849 -0.6958  0.8588
 5970TIP3   OH242104   6.803   4.162  12.609 -0.3283  0.0518  0.4498
 5970TIP3    H142105   6.855   4.243  12.609 -1.8580  1.1030 -1.4110
 5970TIP3    H242106   6.857   4.099  12.562  0.6051  0.1303  1.3609
 5971TIP3   OH242107   7.302   5.268  11.933  0.4623 -0.1825  0.1071
 5971TIP3    H142108   7.291   5.350  11.886 -1.1783 -0.4329 -0.0215
 5971TIP3    H242109   7.357   5.214  11.876 -0.8152 -0.1845 -1.1893
 5972TIP3   OH242110   3.496   4.514  11.899  0.0903 -0.2158 -0.0888
 5972TIP3    H142111   3.493   4.460  11.820 -1.4494 -2.3763  1.3045
 5972TIP3    H242112   3.424   4.577  11.888 -0.2565 -0.6485 -0.3298
 5973TIP3   OH242113   2.284   4.829  11.977  0.7237  0.0198  0.1957
 5973TIP3    H142114   2.234   4.752  12.004 -0.3883 -0.6452 -3.2557
 5973TIP3    H242115   2.342   4.798  11.909  2.6602  1.6934  0.9743
 5974TIP3   OH242116   5.501   3.592  12.424 -0.8317 -0.1580 -0.0361
 5974TIP3    H142117   5.496   3.607  12.330  0.1825  0.4885 -0.0011
 5974TIP3    H242118   5.532   3.675  12.460  0.1502 -0.8216  0.7088
 5975TIP3   OH242119   0.567   7.388  11.785 -0.2101  0.5392  0.2269
 5975TIP3    H142120   0.565   7.484  11.778  0.8013  0.7054  1.8048
 5975TIP3    H242121   0.616   7.360  11.707 -0.5823  1.2814 -0.2887
 5976TIP3   OH242122   0.378   0.748  12.171 -0.3398 -0.1064  0.4240
 5976TIP3    H142123   0.373   0.734  12.266 -0.6920 -1.5863  0.2111
 5976TIP3    H242124   0.382   0.844  12.161  0.3224  0.0561  1.9446
 5977TIP3   OH242125   4.481   4.750  11.203  0.2318  0.5415 -0.2448
 5977TIP3    H142126   4.431   4.827  11.231  0.3736  0.8330 -0.7833
 5977TIP3    H242127   4.565   4.759  11.249 -0.3652 -0.2133  1.0595
 5978TIP3   OH242128   4.676   6.574  11.533  0.1364  0.4342 -0.0414
 5978TIP3    H142129   4.648   6.483  11.521 -1.3236  0.8857 -0.3047
 5978TIP3    H242130   4.698   6.581  11.626  0.2711 -0.1766 -0.0203
 5979TIP3   OH242131   2.180   1.170  12.869  0.9114 -0.0415 -0.2665
 5979TIP3    H142132   2.201   1.132  12.954 -0.6035  0.1468  0.2120
 5979TIP3    H242133   2.156   1.095  12.815 -0.5433  0.0646  0.2147
 5980TIP3   OH242134   0.811   5.502  13.042 -0.2327 -0.3673 -0.1279
 5980TIP3    H142135   0.849   5.444  13.108  1.2053  1.4709  0.7330
 5980TIP3    H242136   0.734   5.539  13.085 -0.7570 -1.0736 -0.4328
 5981TIP3   OH242137   1.028   0.090  10.471  0.4964 -0.4649  0.0513
 5981TIP3    H142138   0.989   0.003  10.462  0.8349 -0.5849 -0.2723
 5981TIP3    H242139   1.023   0.109  10.564 -0.1995 -0.5432  0.0392
 5982TIP3   OH242140   4.373   0.748  12.826 -0.4275 -0.7813 -0.0384
 5982TIP3    H142141   4.372   0.654  12.847 -2.2298 -0.2244  2.7833
 5982TIP3    H242142   4.411   0.790  12.903  0.2909  0.8798 -1.2286
 5983TIP3   OH242143   3.565   6.316  11.485  0.4316  0.3826  0.0290
 5983TIP3    H142144   3.646   6.361  11.462  0.0329 -0.1489 -2.8574
 5983TIP3    H242145   3.496   6.377  11.459 -0.1353  0.5692  1.8732
 5984TIP3   OH242146   4.934   2.822  12.213 -0.2721 -0.4044 -0.0767
 5984TIP3    H142147   4.949   2.861  12.299  1.2905  0.0558 -0.5340
 5984TIP3    H242148   4.997   2.750  12.207  0.3968  0.2284 -1.2209
 5985TIP3   OH242149   0.031   6.822  12.598 -0.1896 -0.2026  0.3518
 5985TIP3    H142150   0.058   6.826  12.690 -0.4209 -2.6943  0.5953
 5985TIP3    H242151   0.112   6.836  12.549 -0.0532  1.0832  0.9156
 5986TIP3   OH242152   5.451   7.484  10.649 -0.3433 -0.5483  0.5581
 5986TIP3    H142153   5.396   7.547  10.696 -1.4173 -0.6960 -0.4545
 5986TIP3    H242154   5.389   7.426  10.606  0.5836 -0.1759 -1.3633
 5987TIP3   OH242155   1.746   6.679  12.457  0.0423  0.9975 -0.5694
 5987TIP3    H142156   1.793   6.754  12.492 -0.1928  1.2330 -0.7566
 5987TIP3    H242157   1.689   6.715  12.390  0.5304  0.5436 -1.2459
 5988TIP3   OH242158   3.596   5.891  13.082  0.0065 -0.2428  0.1343
 5988TIP3    H142159   3.631   5.827  13.143  0.3052  0.6050  0.8734
 5988TIP3    H242160   3.523   5.932  13.129  1.1145  1.4112  0.5250
 5989TIP3   OH242161   4.837   1.548  10.949 -0.2063 -0.2765  0.0963
 5989TIP3    H142162   4.807   1.492  10.878  1.2535 -1.5988  0.4560
 5989TIP3    H242163   4.833   1.492  11.027  0.1950  0.4871  0.6821
 5990TIP3   OH242164   5.263   6.084  12.326  0.2969  0.1659  0.3669
 5990TIP3    H142165   5.244   6.109  12.416 -1.4831 -0.5636  0.2216
 5990TIP3    H242166   5.314   6.003  12.334  0.8376  0.5277  0.7046
 5991TIP3   OH242167   1.345   2.563  12.974 -0.4763  0.1979 -0.2799
 5991TIP3    H142168   1.345   2.506  13.051  2.0497 -0.4444 -0.6465
 5991TIP3    H242169   1.322   2.505  12.901  4.0629 -1.1556 -0.9811
 5992TIP3   OH242170   2.286   0.692  11.685 -0.1821  0.4251  0.2612
 5992TIP3    H142171   2.192   0.705  11.676 -0.1179  1.2050  0.5864
 5992TIP3    H242172   2.301   0.601  11.661 -0.7404  0.8678 -1.9744
 5993TIP3   OH242173   5.450   6.422  11.798  0.1988  0.1235 -0.2553
 5993TIP3    H142174   5.486   6.465  11.876 -1.5271  2.4154 -0.6274
 5993TIP3    H242175   5.385   6.360  11.832  0.9767 -0.4786  0.1795
 5994TIP3   OH242176   6.977   4.212  12.925 -0.2621  0.8603 -0.6155
 5994TIP3    H142177   7.009   4.293  12.965 -2.1379  0.9463  0.8631
 5994TIP3    H242178   6.882   4.222  12.925 -0.5489 -1.4605 -0.0999
 5995TIP3   OH242179   1.356   0.827  10.638  0.0060  0.0765  0.3454
 5995TIP3    H142180   1.335   0.850  10.548 -0.2911 -0.7035  0.2055
 5995TIP3    H242181   1.286   0.768  10.665  0.7811 -0.7260  0.6509
 5996TIP3   OH242182   3.943   4.978  11.480  0.1631  0.0692  0.4578
 5996TIP3    H142183   3.900   4.945  11.558 -0.5402  0.6702  0.3397
 5996TIP3    H242184   3.914   4.919  11.410  0.2028 -0.0292  0.5247
 5997TIP3   OH242185   7.263   1.616  11.090  0.8874  0.2671 -0.8785
 5997TIP3    H142186   7.213   1.609  11.009 -0.0274  0.8672 -0.3919
 5997TIP3    H242187   7.197   1.608  11.160  1.3651  1.6687 -0.2273
 5998TIP3   OH242188   7.454   6.829  11.376 -0.0221  0.8837 -0.4467
 5998TIP3    H142189   7.408   6.747  11.357 -0.5690  0.8656  0.8899
 5998TIP3    H242190   7.476   6.864  11.289 -0.4608 -0.2788 -1.0569
 5999TIP3   OH242191   5.519   0.096  11.591  0.0807 -0.2126  0.7350
 5999TIP3    H142192   5.463   0.070  11.518 -0.0224  0.5115  0.5509
 5999TIP3    H242193   5.464   0.086  11.668 -0.0063 -0.3807  0.6529
 6000TIP3   OH242194   2.784   1.556  13.094 -0.2292  0.4337 -0.4487
 6000TIP3    H142195   2.783   1.462  13.114  0.1189  0.7800  1.3099
 6000TIP3    H242196   2.702   1.589  13.130 -0.1585  0.8877 -0.7005
 6001TIP3   OH242197   0.451   4.515  10.745 -0.4519  0.3158 -0.2328
 6001TIP3    H142198   0.460   4.420  10.738 -2.0603  0.2085 -1.3740
 6001TIP3    H242199   0.470   4.546  10.657 -0.6283  0.9897 -0.0348
 6002TIP3   OH242200   0.429   4.954  12.556  0.7234  0.2832 -0.6372
 6002TIP3    H142201   0.449   4.962  12.649 -0.1552  0.6519 -0.4729
 6002TIP3    H242202   0.513   4.931  12.516  0.8871 -1.0425  0.3900
 6003TIP3   OH242203   6.379   0.527  11.080  0.7911 -0.4586 -0.2550
 6003TIP3    H142204   6.469   0.527  11.113  0.4750 -2.5118  0.7924
 6003TIP3    H242205   6.329   0.576  11.146  1.2852  1.9766 -1.5612
 6004TIP3   OH242206   6.860   1.447  13.435  0.4322  0.1439  0.2469
 6004TIP3    H142207   6.827   1.441  13.525  1.4301 -0.7366  0.5630
 6004TIP3    H242208   6.944   1.403  13.437  0.8404  0.8256 -0.9508
 6005TIP3   OH242209   5.712   2.870  13.747 -0.1857  0.1350 -0.0865
 6005TIP3    H142210   5.621   2.844  13.762 -0.3554  0.4410 -0.5632
 6005TIP3    H242211   5.710   2.966  13.749 -0.2136  0.2081 -1.9408
 6006TIP3   OH242212   5.925   5.622  10.871  0.3187  0.2130  0.3783
 6006TIP3    H142213   5.896   5.606  10.781 -1.3383  1.0081  0.7317
 6006TIP3    H242214   5.909   5.539  10.916 -1.7701  0.6740  0.6128
 6007TIP3   OH242215   3.283   7.601  11.415 -0.0957  0.1641 -0.2282
 6007TIP3    H142216   3.235   7.599  11.498 -0.8401  1.8690 -0.5866
 6007TIP3    H242217   3.222   7.565  11.351  0.1858 -0.3859 -0.1972
 6008TIP3   OH242218   3.713   3.181  10.890 -0.3416 -0.0398 -0.4328
 6008TIP3    H142219   3.747   3.264  10.922  1.9574 -1.3337  0.7099
 6008TIP3    H242220   3.685   3.199  10.800  2.2973  1.4670 -1.0449
 6009TIP3   OH242221   2.613   7.457  12.435  0.1504  0.2038 -0.0033
 6009TIP3    H142222   2.627   7.396  12.507 -0.4790 -0.3184 -0.3120
 6009TIP3    H242223   2.658   7.537  12.462  0.8307 -0.3338  0.4877
 6010TIP3   OH242224   1.323   1.154  11.482 -0.0547  0.1400  0.5788
 6010TIP3    H142225   1.353   1.069  11.450 -0.0595 -0.4433  2.0364
 6010TIP3    H242226   1.401   1.194  11.521  0.2388  1.3654 -1.1603
 6011TIP3   OH242227   1.141   6.614  12.680  0.0474  0.0887 -0.5284
 6011TIP3    H142228   1.214   6.673  12.702  0.1604 -0.1088 -0.3713
 6011TIP3    H242229   1.082   6.668  12.628 -0.3520  0.6503  0.4796
 6012TIP3   OH242230   0.816   5.502  10.658 -0.2175  0.3220 -0.3528
 6012TIP3    H142231   0.908   5.518  10.679 -0.1319 -0.1235 -0.3812
 6012TIP3    H242232   0.803   5.410  10.678 -0.7659  0.4799  0.0425
 6013TIP3   OH242233   1.838   2.934  12.995 -0.3016 -0.0622  0.1209
 6013TIP3    H142234   1.837   2.986  13.075 -0.4435 -0.8854  0.6687
 6013TIP3    H242235   1.748   2.936  12.964 -0.4166 -0.4256  0.4338
 6014TIP3   OH242236   6.207   2.156  10.924 -0.0108 -0.0843  0.1652
 6014TIP3    H142237   6.165   2.118  11.001  0.1759 -1.4440 -0.3686
 6014TIP3    H242238   6.296   2.177  10.953 -0.8674  2.5052  1.2077
 6015TIP3   OH242239   4.052   1.957  11.675  0.8191 -0.0199 -0.1811
 6015TIP3    H142240   4.086   2.035  11.719  1.6357 -0.8860  0.7910
 6015TIP3    H242241   3.958   1.974  11.665  1.1721  1.5558 -1.0424
 6016TIP3   OH242242   2.270   5.574  13.351 -0.2912 -0.2327 -0.2469
 6016TIP3    H142243   2.285   5.647  13.410 -0.0469  0.4071 -1.0838
 6016TIP3    H242244   2.355   5.530  13.344 -0.2966 -0.2488 -0.2133
 6017TIP3   OH242245   1.299   2.009  11.161  0.5748  0.2886 -0.4853
 6017TIP3    H142246   1.235   2.043  11.099  0.3879 -1.2002 -1.1539
 6017TIP3    H242247   1.280   2.056  11.242 -0.4031  0.9351 -1.0593
 6018TIP3   OH242248   6.465   4.498  13.009 -0.1654  0.3773 -0.4128
 6018TIP3    H142249   6.484   4.410  13.041  0.2538  0.4242 -0.5234
 6018TIP3    H242250   6.532   4.514  12.943 -0.5764  0.5669 -0.7893
 6019TIP3   OH242251   4.016   7.107  11.678  0.4702  0.2148 -0.5913
 6019TIP3    H142252   4.026   7.122  11.773 -2.0237 -0.5472 -0.1468
 6019TIP3    H242253   3.996   7.193  11.643  1.6656  0.5516 -0.5094
 6020TIP3   OH242254   5.002   3.272  11.773 -0.1018  0.5021 -0.2731
 6020TIP3    H142255   4.913   3.303  11.755  0.1839 -0.0910 -3.2665
 6020TIP3    H242256   5.059   3.337  11.731  0.8462  0.0584  0.2857
 6021TIP3   OH242257   0.896   7.154  12.698  0.3733 -0.4118  0.2070
 6021TIP3    H142258   0.848   7.237  12.705 -0.6433 -1.0163  0.4971
 6021TIP3    H242259   0.839   7.097  12.648  0.5566 -1.3179  1.0068
 6022TIP3   OH242260   0.969   3.857  11.716 -0.2569  0.1015  0.2207
 6022TIP3    H142261   0.947   3.804  11.639  0.2205  0.5112 -0.1959
 6022TIP3    H242262   0.928   3.941  11.700  0.6997  0.5266 -0.0720
 6023TIP3   OH242263   1.617   1.497  10.924  0.1053 -0.1846  0.3543
 6023TIP3    H142264   1.627   1.446  10.844 -1.7546 -0.5850  0.3317
 6023TIP3    H242265   1.553   1.564  10.902 -1.6118 -1.2338  1.8794
 6024TIP3   OH242266   2.757   0.503  11.225  0.3399 -0.0799  0.1875
 6024TIP3    H142267   2.792   0.548  11.301 -0.5136 -0.9869  1.1659
 6024TIP3    H242268   2.824   0.439  11.201  0.4626 -0.0303  0.4019
 6025TIP3   OH242269   2.535   2.082  12.919  0.5388 -0.2531 -0.1470
 6025TIP3    H142270   2.608   2.031  12.954  0.0404  0.3221  1.8550
 6025TIP3    H242271   2.502   2.131  12.994  0.2344  2.1279 -1.7235
 6026TIP3   OH242272   6.841   6.921  12.758 -0.3255 -0.1915  0.5398
 6026TIP3    H142273   6.865   6.880  12.841  0.0578  0.4017  0.7283
 6026TIP3    H242274   6.792   6.999  12.783 -0.3649 -0.1089  0.2072
 6027TIP3   OH242275   2.706   3.526  11.534 -0.4757  0.1492 -0.0790
 6027TIP3    H142276   2.731   3.617  11.521 -1.5664  0.4686 -0.0425
 6027TIP3    H242277   2.789   3.479  11.543  0.0887  1.2102  0.4182
 6028TIP3   OH242278   4.773   1.374  11.483  0.6957 -0.4711  0.9929
 6028TIP3    H142279   4.779   1.465  11.511 -2.6457  0.1544  0.1416
 6028TIP3    H242280   4.744   1.326  11.560  0.8365 -0.5135  1.0199
 6029TIP3   OH242281   5.121   6.406  13.057 -0.0569 -0.4901  0.1136
 6029TIP3    H142282   5.086   6.454  13.131  2.0062  0.9472  0.2570
 6029TIP3    H242283   5.047   6.397  12.996 -0.6768  2.5424  0.2706
 6030TIP3   OH242284   3.714   3.676  12.594  0.3048 -0.5218 -0.3922
 6030TIP3    H142285   3.777   3.726  12.540  0.1120  0.2357  0.0655
 6030TIP3    H242286   3.653   3.743  12.626  0.1984 -1.0229  0.4584
 6031TIP3   OH242287   2.070   1.668  12.072  0.8046 -0.2378 -0.1153
 6031TIP3    H142288   2.089   1.652  11.979 -2.3704 -1.5322 -0.6600
 6031TIP3    H242289   2.101   1.589  12.116 -2.0091 -1.8532 -0.8378
 6032TIP3   OH242290   6.430   0.306  10.667 -0.5839  0.4070 -0.1739
 6032TIP3    H142291   6.434   0.316  10.762 -1.4426  0.9343 -0.1870
 6032TIP3    H242292   6.512   0.262  10.644 -0.7919 -0.6019  0.9169
 6033TIP3   OH242293   5.177   5.650  11.256  0.2969 -0.1944 -0.1127
 6033TIP3    H142294   5.133   5.645  11.341 -1.2977  2.2691 -0.6714
 6033TIP3    H242295   5.169   5.742  11.231 -0.5501 -1.0505 -3.5504
 6034TIP3   OH242296   4.631   6.453  12.483  0.2777  0.3754  0.3555
 6034TIP3    H142297   4.583   6.520  12.533 -2.7877 -1.6612  0.4158
 6034TIP3    H242298   4.586   6.371  12.504  2.1168 -1.3168 -1.8370
 6035TIP3   OH242299   3.427   4.899  10.725 -0.7952  0.1273 -0.6098
 6035TIP3    H142300   3.338   4.870  10.708 -1.3289 -0.0573  2.1298
 6035TIP3    H242301   3.419   4.993  10.741 -0.3332  0.2744 -1.1769
 6036TIP3   OH242302   4.604   1.986  11.252  0.5416  0.3765  0.4930
 6036TIP3    H142303   4.509   1.986  11.268  0.6414  0.4943  1.0956
 6036TIP3    H242304   4.621   1.900  11.214  0.3393 -0.0520  1.3375
 6037TIP3   OH242305   2.046   6.575  12.331  0.3252  0.3575 -0.4461
 6037TIP3    H142306   2.135   6.541  12.342  0.4242  0.4384 -0.9703
 6037TIP3    H242307   2.035   6.636  12.404 -0.0840 -1.2485  0.8798
 6038TIP3   OH242308   3.446   4.329  10.711  0.1184  0.4243 -0.1082
 6038TIP3    H142309   3.360   4.350  10.677  0.4448  1.2813 -0.4052
 6038TIP3    H242310   3.430   4.307  10.803 -0.5107 -0.1734 -0.3486
 6039TIP3   OH242311   2.818   6.363  10.691 -0.2047 -0.3844  0.0599
 6039TIP3    H142312   2.799   6.428  10.624 -0.0880 -0.4454 -0.0326
 6039TIP3    H242313   2.779   6.282  10.658 -0.3563 -0.3597  0.1786
 6040TIP3   OH242314   2.928   4.033  11.299 -0.1900 -0.1270 -0.3310
 6040TIP3    H142315   2.837   4.052  11.278 -1.2089 -1.6008  2.2921
 6040TIP3    H242316   2.960   4.112  11.344 -0.2959  0.2337 -0.8880
 6041TIP3   OH242317   3.008   1.774  12.542 -0.4843  0.2567 -0.6264
 6041TIP3    H142318   2.928   1.827  12.544 -0.1717  0.7492 -0.9201
 6041TIP3    H242319   2.995   1.708  12.610 -0.6336  1.0801  0.1651
 6042TIP3   OH242320   0.481   3.940  12.353  0.2235  0.1483  0.2758
 6042TIP3    H142321   0.565   3.946  12.308  0.2330  1.3165  0.4032
 6042TIP3    H242322   0.503   3.906  12.440  0.7347  1.4643  0.6876
 6043TIP3   OH242323   1.836   4.475  10.632 -0.5403 -0.0005  0.1436
 6043TIP3    H142324   1.931   4.464  10.634 -0.5654 -0.3312 -0.3675
 6043TIP3    H242325   1.802   4.389  10.660 -0.6833  0.4431  1.4112
 6044TIP3   OH242326   6.924   5.571  10.682 -0.4326  0.1719  0.0687
 6044TIP3    H142327   6.907   5.507  10.613 -0.6626  0.6571 -0.3305
 6044TIP3    H242328   6.840   5.584  10.725 -0.1367 -0.6925  0.9434
 6045TIP3   OH242329   1.228   3.647  11.778  0.5515  0.1787  0.0425
 6045TIP3    H142330   1.200   3.719  11.834 -0.4323 -0.6842  0.6965
 6045TIP3    H242331   1.276   3.588  11.836  0.9609  0.0786 -0.3881
 6046TIP3   OH242332   1.797   3.776  11.144 -0.0631 -0.4502  0.0460
 6046TIP3    H142333   1.872   3.816  11.189 -0.1630  0.5951 -0.6745
 6046TIP3    H242334   1.826   3.687  11.125  0.3456 -0.5982  1.2863
 6047TIP3   OH242335   2.940   6.135  11.934  0.8811 -0.4863 -0.4694
 6047TIP3    H142336   2.984   6.081  12.000  1.6079  0.1376 -0.4222
 6047TIP3    H242337   2.850   6.142  11.964  0.4619 -2.6573 -1.0991
 6048TIP3   OH242338   3.541   5.244  12.179  0.1035  0.4710 -0.2483
 6048TIP3    H142339   3.505   5.174  12.234 -2.8814 -0.0185 -2.5790
 6048TIP3    H242340   3.595   5.199  12.115  0.2125  0.5870 -0.2385
 6049TIP3   OH242341   0.715   1.007  12.538 -0.4655  0.3439  0.1938
 6049TIP3    H142342   0.669   1.057  12.606 -0.1324  0.4545  0.3412
 6049TIP3    H242343   0.779   1.068  12.502 -1.4453  0.6697 -1.0628
 6050TIP3   OH242344   4.360   7.098  11.359  0.0343  0.1775 -0.2322
 6050TIP3    H142345   4.324   7.055  11.437  0.0529 -1.3988 -1.0565
 6050TIP3    H242346   4.454   7.103  11.376  0.0729 -0.4071 -0.2670
 6051TIP3   OH242347   5.079   0.190  12.845  0.4173  0.0936  0.3977
 6051TIP3    H142348   5.048   0.124  12.907 -0.3746  0.8015  0.7829
 6051TIP3    H242349   5.065   0.274  12.891  0.1570  0.6059 -0.5924
 6052TIP3   OH242350   3.318   3.949  11.791 -0.6733 -0.2367  0.1155
 6052TIP3    H142351   3.330   3.857  11.814 -0.4984 -0.4230 -0.6985
 6052TIP3    H242352   3.346   3.997  11.869  0.3814 -0.8301  0.1236
 6053TIP3   OH242353   2.962   4.262  11.950 -0.9696 -0.5166  0.2001
 6053TIP3    H142354   2.868   4.276  11.963 -1.1206  0.2370 -1.5157
 6053TIP3    H242355   2.967   4.195  11.883 -0.2947  0.0188 -0.2955
 6054TIP3   OH242356   7.328   6.766  10.579 -0.0651 -0.6391 -0.3626
 6054TIP3    H142357   7.411   6.777  10.532  0.3305  1.0312  0.6312
 6054TIP3    H242358   7.353   6.767  10.671 -1.2100  0.1351 -0.0450
 6055TIP3   OH242359   7.249   6.091  11.010 -0.0735  0.2356  0.0320
 6055TIP3    H142360   7.232   6.002  10.978 -0.0502 -1.2510  3.7063
 6055TIP3    H242361   7.242   6.084  11.105  1.2261  3.9411  0.5474
 6056TIP3   OH242362   0.207   1.769  12.885 -0.2436 -0.5133  0.2569
 6056TIP3    H142363   0.197   1.829  12.811 -0.7545 -0.9820 -0.0674
 6056TIP3    H242364   0.165   1.813  12.959  1.8680  0.7787  0.7657
 6057TIP3   OH242365   4.455   7.170  10.617 -0.5701 -0.2131  0.3219
 6057TIP3    H142366   4.468   7.244  10.558 -0.3784 -0.3860  0.1419
 6057TIP3    H242367   4.537   7.164  10.667 -0.9438  0.2775  1.0063
 6058TIP3   OH242368   3.525   3.464  11.844 -0.2198 -0.5684 -1.1990
 6058TIP3    H142369   3.441   3.436  11.809 -1.8365  2.0435  0.2172
 6058TIP3    H242370   3.535   3.554  11.811 -0.2366  0.7975  2.1235
 6059TIP3   OH242371   4.745   0.915  12.395  0.6644 -0.6854 -0.0058
 6059TIP3    H142372   4.708   0.996  12.360  0.5919 -0.6069  0.2531
 6059TIP3    H242373   4.786   0.873  12.319  3.0208  0.8465  0.3158
 6060TIP3   OH242374   6.200   1.792  12.382  0.0003 -0.1868 -0.6583
 6060TIP3    H142375   6.188   1.887  12.387 -0.6664 -0.2070 -1.6441
 6060TIP3    H242376   6.122   1.760  12.338  0.8576 -1.0495 -1.6033
 6061TIP3   OH242377   3.576   3.206  10.636 -0.3431 -0.4297 -0.1163
 6061TIP3    H142378   3.592   3.121  10.596  2.4041 -0.5786  1.0701
 6061TIP3    H242379   3.489   3.197  10.676 -0.7638 -2.1179 -1.2754
 6062TIP3   OH242380   0.120   3.955  12.064  0.3137  0.1370 -0.3103
 6062TIP3    H142381   0.173   3.910  11.998 -1.4031 -1.5939 -0.5884
 6062TIP3    H242382   0.030   3.936  12.040 -0.4586  2.0184  0.8295
 6063TIP3   OH242383   0.900   5.205  10.632  0.0175 -0.3216  0.2381
 6063TIP3    H142384   0.938   5.118  10.642  0.2148 -0.4035 -1.0064
 6063TIP3    H242385   0.940   5.239  10.552 -1.5252  0.1310 -0.3778
 6064TIP3   OH242386   0.007   3.665  12.902  0.1610  0.3664  0.4334
 6064TIP3    H142387  -0.038   3.603  12.845  0.1991  0.2067  0.5739
 6064TIP3    H242388   0.055   3.609  12.963  2.4869  0.4570 -1.1778
 6065TIP3   OH242389   6.416   5.846  12.661 -0.0977  0.4265 -0.0358
 6065TIP3    H142390   6.396   5.874  12.750 -0.0021  0.4073 -0.0080
 6065TIP3    H242391   6.381   5.757  12.655  0.8882 -0.0072  0.3485
 6066TIP3   OH242392   0.809   2.646  10.659  0.0933  0.4327 -0.4228
 6066TIP3    H142393   0.797   2.570  10.716 -0.6923  0.1761 -0.9113
 6066TIP3    H242394   0.780   2.616  10.573  0.7862  0.9679 -0.8559
 6067TIP3   OH242395   0.706   3.922  12.215 -0.0030  0.3378  0.2435
 6067TIP3    H142396   0.733   3.833  12.191  1.3157  0.9792 -0.7818
 6067TIP3    H242397   0.747   3.978  12.149  1.1067  1.9188  2.1817
 6068TIP3   OH242398   7.653   2.114  11.792  0.0082  0.2577  0.2410
 6068TIP3    H142399   7.563   2.119  11.826 -0.8044  0.2716 -1.7621
 6068TIP3    H242400   7.678   2.206  11.778  0.2209  0.2383  0.4812
 6069TIP3   OH242401   7.382   4.732  11.063 -0.4957  0.5869  0.2338
 6069TIP3    H142402   7.316   4.703  11.000 -0.5447 -1.9601  1.3096
 6069TIP3    H242403   7.460   4.747  11.010 -1.1366  0.7288 -0.6967
 6070TIP3   OH242404   1.544   5.493  12.701 -0.1606 -0.4397 -0.2988
 6070TIP3    H142405   1.572   5.538  12.780 -0.2852 -0.8065 -0.0448
 6070TIP3    H242406   1.594   5.412  12.700  1.5803  0.5863 -1.8086
 6071TIP3   OH242407   7.538   2.561  11.169 -0.2495  0.2273 -0.3684
 6071TIP3    H142408   7.487   2.500  11.222 -0.2499  0.7601  0.2752
 6071TIP3    H242409   7.473   2.619  11.130 -0.1709  0.6896  0.1705
 6072TIP3   OH242410   0.368   2.248  11.188 -0.5557 -0.0432  0.2607
 6072TIP3    H142411   0.443   2.263  11.131 -0.9598 -0.3821 -0.3887
 6072TIP3    H242412   0.322   2.332  11.191 -0.4271  0.0273  0.2287
 6073TIP3   OH242413   7.676   4.281  13.333  0.2931  0.6171 -0.0782
 6073TIP3    H142414   7.762   4.306  13.301  0.0237  1.9252  0.1570
 6073TIP3    H242415   7.692   4.209  13.393  1.2658  1.0948  0.2478
 6074TIP3   OH242416   2.310   0.956  10.961  0.3282 -0.2166  0.0314
 6074TIP3    H142417   2.344   0.960  11.051 -1.2963 -1.1374  0.7226
 6074TIP3    H242418   2.388   0.942  10.907  1.2824 -0.1810  1.3383
 6075TIP3   OH242419   7.130   7.039  10.356  0.1138 -0.8188 -0.0478
 6075TIP3    H142420   7.043   7.026  10.318 -0.1381  1.2732 -0.2738
 6075TIP3    H242421   7.182   6.966  10.322 -0.8216 -0.5319 -2.2575
 6076TIP3   OH242422   3.681   6.892  12.531  0.2221  0.3931 -0.3147
 6076TIP3    H142423   3.651   6.982  12.517  1.8380  1.1734  0.8814
 6076TIP3    H242424   3.749   6.879  12.465 -0.0911  0.0098 -0.5603
 6077TIP3   OH242425   0.363   1.568  12.266  0.0055 -0.5039  0.1936
 6077TIP3    H142426   0.279   1.611  12.250  0.0261 -0.1294  1.0209
 6077TIP3    H242427   0.360   1.488  12.213 -0.6901 -0.2793 -0.1175
 6078TIP3   OH242428   1.639   3.750  13.010  0.0833 -0.1290  0.1003
 6078TIP3    H142429   1.716   3.806  13.004 -0.3306  0.4455  0.1148
 6078TIP3    H242430   1.623   3.742  13.104 -0.9943  1.3205  0.0738
 6079TIP3   OH242431   6.181   3.262  11.263 -0.8000 -0.0688 -0.2870
 6079TIP3    H142432   6.092   3.288  11.239 -0.5322 -0.3550 -1.6672
 6079TIP3    H242433   6.193   3.176  11.224 -0.6664 -1.0550  1.7994
 6080TIP3   OH242434   6.072   6.378  10.910 -0.0090 -0.0482 -0.1997
 6080TIP3    H142435   6.053   6.470  10.927  0.0765 -0.0748  0.0489
 6080TIP3    H242436   5.992   6.343  10.871 -0.4849 -0.1639  0.8450
 6081TIP3   OH242437   7.451   0.032  11.439  0.2888  0.2354  0.0602
 6081TIP3    H142438   7.400  -0.016  11.374  0.6829  0.2156 -0.2362
 6081TIP3    H242439   7.387   0.059  11.505 -0.0232 -0.2142 -0.0575
 6082TIP3   OH242440   6.468   6.739  11.368  0.4954 -1.1031 -0.0041
 6082TIP3    H142441   6.446   6.824  11.407  1.3103 -0.5446 -0.7348
 6082TIP3    H242442   6.473   6.756  11.274  0.5887 -1.9819 -0.1629
 6083TIP3   OH242443   2.125   5.397  13.127 -0.5552  0.1966  0.0514
 6083TIP3    H142444   2.209   5.389  13.081  0.1330 -1.2869  1.4952
 6083TIP3    H242445   2.148   5.433  13.213 -1.6851  1.7699 -0.2565
 6084TIP3   OH242446   7.583   0.342  11.998  0.4408 -0.5287 -0.1112
 6084TIP3    H142447   7.533   0.266  11.968 -0.9635  1.1628 -2.3969
 6084TIP3    H242448   7.527   0.382  12.065  0.5957 -0.7915  0.1792
 6085TIP3   OH242449   2.784   5.041  10.961  0.0213  0.3149 -0.1474
 6085TIP3    H142450   2.825   5.124  10.988  0.6906  0.0761 -0.4076
 6085TIP3    H242451   2.697   5.044  11.001  0.1736  0.9762  0.1622
 6086TIP3   OH242452   0.452   3.011  11.130 -0.4737 -0.1753  0.5484
 6086TIP3    H142453   0.436   3.104  11.117 -0.1590 -0.3793 -1.9122
 6086TIP3    H242454   0.365   2.970  11.127 -0.5562 -0.0294  0.9402
 6087TIP3   OH242455   6.422   4.881  10.873  0.1959 -0.3258 -0.9026
 6087TIP3    H142456   6.467   4.802  10.900  0.2624 -0.9247 -2.6715
 6087TIP3    H242457   6.329   4.861  10.885  0.2281 -0.5469 -1.0207
 6088TIP3   OH242458   5.128   4.835  11.646 -0.8041 -0.1352  0.1175
 6088TIP3    H142459   5.208   4.782  11.644 -0.9033 -0.3467  1.0836
 6088TIP3    H242460   5.132   4.880  11.731 -2.2114 -0.9472  0.6349
 6089TIP3   OH242461   3.130   4.684  11.188  0.1693 -0.1770 -0.3066
 6089TIP3    H142462   3.073   4.721  11.120 -0.1784  1.2690  0.7453
 6089TIP3    H242463   3.205   4.743  11.192  0.2388 -0.3115  0.4912
 6090TIP3   OH242464   7.028   3.781  11.561  0.1014 -0.2237  0.0194
 6090TIP3    H142465   7.050   3.746  11.647 -3.2843 -0.4975  0.8968
 6090TIP3    H242466   7.059   3.872  11.564 -2.7811  0.8804  2.9655
 6091TIP3   OH242467   3.291   7.134  12.064  0.0993 -0.0462 -0.0500
 6091TIP3    H142468   3.251   7.211  12.025 -1.5498 -0.1124  1.4036
 6091TIP3    H242469   3.231   7.062  12.045  0.5057 -0.5482  0.5020
 6092TIP3   OH242470   1.477   3.361  12.493  0.1145  0.7451  0.2362
 6092TIP3    H142471   1.484   3.269  12.468  0.4339  0.7018  0.4737
 6092TIP3    H242472   1.423   3.401  12.425 -2.7685 -0.2740  1.7542
 6093TIP3   OH242473   7.242   2.193  12.056 -0.1280  0.3144 -0.3201
 6093TIP3    H142474   7.152   2.221  12.071  0.5100  2.4840 -0.1821
 6093TIP3    H242475   7.249   2.183  11.961 -0.5922 -0.1929 -0.3044
 6094TIP3   OH242476   2.056   2.716  13.692  0.3478 -0.1665  0.0490
 6094TIP3    H142477   2.100   2.774  13.754  1.1376 -0.8038  0.0897
 6094TIP3    H242478   2.117   2.710  13.618 -0.0987 -0.2965 -0.3126
 6095TIP3   OH242479   4.427   2.308  12.054 -0.5073 -0.2175 -0.1852
 6095TIP3    H142480   4.439   2.395  12.092 -0.2306 -0.8421  1.1903
 6095TIP3    H242481   4.384   2.257  12.123  1.4413 -1.8319 -0.0894
 6096TIP3   OH242482   1.387   5.828  12.750  0.0958  0.0319  0.3509
 6096TIP3    H142483   1.329   5.755  12.732 -0.4030  0.6383 -0.6042
 6096TIP3    H242484   1.329   5.903  12.764  0.5546  0.0695  2.3868
 6097TIP3   OH242485   7.629   5.346  11.817  0.0329 -0.6125  0.2412
 6097TIP3    H142486   7.596   5.334  11.906 -0.1809 -0.1585  0.2286
 6097TIP3    H242487   7.651   5.258  11.787 -2.2520 -1.1084 -0.1589
 6098TIP3   OH242488   7.483   1.749  12.426  0.2550 -0.2660 -0.4549
 6098TIP3    H142489   7.445   1.765  12.513 -2.4806 -0.3419 -1.5335
 6098TIP3    H242490   7.550   1.816  12.416 -0.6811  0.9385  0.9833
 6099TIP3   OH242491   3.491   2.692  11.903  0.3758 -0.4917  0.5473
 6099TIP3    H142492   3.526   2.700  11.991  0.0055  0.2963  0.6340
 6099TIP3    H242493   3.550   2.743  11.848 -0.4126  0.5610  0.6422
 6100TIP3   OH242494   1.921   7.177  11.613 -0.4410  0.3465  0.1538
 6100TIP3    H142495   1.902   7.226  11.694 -0.5514  1.9003 -0.7701
 6100TIP3    H242496   1.891   7.235  11.543  0.4250 -0.6048 -1.0400
 6101TIP3   OH242497   3.669   4.492  11.669  0.0285  0.6058 -0.0588
 6101TIP3    H142498   3.715   4.420  11.626 -0.8781 -0.4349  0.6548
 6101TIP3    H242499   3.643   4.550  11.598  1.3761  0.6220 -0.5802
 6102TIP3   OH242500   2.105   3.691  11.198  0.5398 -0.5078 -0.1734
 6102TIP3    H142501   2.102   3.597  11.178 -0.7499 -0.8374  1.3456
 6102TIP3    H242502   2.196   3.716  11.178  0.3404 -1.5122 -2.7527
 6103TIP3   OH242503   4.068   6.407  11.603  0.1565  0.4121  0.2400
 6103TIP3    H142504   4.085   6.321  11.641 -0.3386 -0.0812 -0.6214
 6103TIP3    H242505   4.002   6.445  11.661  2.0078  1.1882  1.9585
 6104TIP3   OH242506   2.403   5.393  12.392 -0.1368 -0.1240  0.0949
 6104TIP3    H142507   2.463   5.324  12.421 -1.2108 -1.5935 -1.0083
 6104TIP3    H242508   2.316   5.361  12.416 -0.7967  0.0271 -1.9597
 6105TIP3   OH242509   6.270   0.068  11.755  0.5659  0.0170  0.4393
 6105TIP3    H142510   6.232   0.148  11.791 -0.1691 -0.2916  0.3670
 6105TIP3    H242511   6.218  -0.003  11.792  0.5818 -0.3740 -0.2540
 6106TIP3   OH242512   5.450   0.670  12.887  0.3573 -0.1967 -0.3939
 6106TIP3    H142513   5.434   0.625  12.970  3.3992  0.6951  0.8089
 6106TIP3    H242514   5.434   0.763  12.907 -0.1202 -0.0959 -1.1928
 6107TIP3   OH242515   0.761   2.190  11.004 -0.2164  0.3852  0.0031
 6107TIP3    H142516   0.768   2.234  11.089 -1.5261 -1.1835  0.9817
 6107TIP3    H242517   0.783   2.099  11.022 -1.2326 -0.1207 -1.1670
 6108TIP3   OH242518   1.948   7.313  11.916 -0.7575  0.0767 -0.3424
 6108TIP3    H142519   1.963   7.225  11.950  0.3852  0.3539 -0.1085
 6108TIP3    H242520   2.029   7.361  11.934 -2.2145  1.9459  1.8632
 6109TIP3   OH242521   6.349   2.469  12.242 -0.2496 -0.2679 -0.2040
 6109TIP3    H142522   6.340   2.380  12.207  3.1728 -0.6843 -0.3526
 6109TIP3    H242523   6.379   2.521  12.167  0.6988  0.3248  0.5764
 6110TIP3   OH242524   5.341   7.338  10.909  0.2006  0.0170 -0.0687
 6110TIP3    H142525   5.404   7.374  10.846  1.4872  0.2297  1.2700
 6110TIP3    H242526   5.336   7.405  10.978  0.8981 -1.3250  1.3525
 6111TIP3   OH242527   3.710   1.689  13.002  0.0957 -0.1178 -0.1382
 6111TIP3    H142528   3.625   1.667  13.041 -0.1475  0.4465 -0.3523
 6111TIP3    H242529   3.738   1.767  13.049  0.3437 -0.1099 -0.2995
 6112TIP3   OH242530   0.666   4.278  12.266 -0.7874  0.1420  0.7982
 6112TIP3    H142531   0.733   4.239  12.209 -1.2704 -1.1393  1.0766
 6112TIP3    H242532   0.716   4.316  12.339 -0.3152 -0.1948  0.6587
 6113TIP3   OH242533   5.853   4.508  11.483 -0.0398 -0.2663  0.6052
 6113TIP3    H142534   5.817   4.420  11.495  1.5116 -0.8199  1.5331
 6113TIP3    H242535   5.896   4.505  11.397 -1.9708  0.3585 -0.4472
 6114TIP3   OH242536   2.352   6.725  11.906 -0.4831  0.1820 -0.4342
 6114TIP3    H142537   2.305   6.762  11.981  0.5370 -1.2612  0.9726
 6114TIP3    H242538   2.392   6.800  11.864 -0.0181  0.9176  1.2346
 6115TIP3   OH242539   2.485   2.688  12.802 -0.0280 -0.2374  0.8069
 6115TIP3    H142540   2.434   2.754  12.755 -0.8153 -1.4126 -0.0431
 6115TIP3    H242541   2.564   2.734  12.829  0.6212  0.4261 -1.9640
 6116TIP3   OH242542   0.357   2.711  12.917  0.9530 -0.1946  0.1290
 6116TIP3    H142543   0.361   2.806  12.912 -0.3298 -0.1499 -0.6736
 6116TIP3    H242544   0.447   2.683  12.930  1.3994  1.1108 -0.0376
 6117TIP3   OH242545   3.163   7.445  11.657 -0.1273  0.4547 -0.0364
 6117TIP3    H142546   3.080   7.485  11.684 -0.6840 -1.3900  1.2214
 6117TIP3    H242547   3.230   7.509  11.681 -1.1028  1.4706  0.0247
 6118TIP3   OH242548   2.180   0.548  12.099 -0.0713 -0.8459  0.2345
 6118TIP3    H142549   2.272   0.574  12.108 -0.1597  0.0095 -1.1012
 6118TIP3    H242550   2.136   0.587  12.174  0.4926 -0.4453  0.3595
 6119TIP3   OH242551   5.520   0.659  12.621  0.0636  0.2795  0.6618
 6119TIP3    H142552   5.500   0.687  12.711 -1.0958  2.7910 -0.2920
 6119TIP3    H242553   5.615   0.652  12.619  0.1507  0.8061  1.9211
 6120TIP3   OH242554   7.619   0.601  11.827  0.3781  0.7380  0.1329
 6120TIP3    H142555   7.574   0.560  11.901 -0.1084 -0.8260 -0.9782
 6120TIP3    H242556   7.584   0.557  11.750  3.2852 -0.0931 -0.8491
 6121TIP3   OH242557   2.713   3.499  12.693  0.3277 -0.2966 -0.2793
 6121TIP3    H142558   2.683   3.474  12.780 -0.3235 -1.0951 -0.7229
 6121TIP3    H242559   2.807   3.512  12.703  0.2577 -0.3501  0.5458
 6122TIP3   OH242560   1.899   6.014  11.455 -0.3500 -0.6417  0.0044
 6122TIP3    H142561   1.835   5.966  11.402 -1.0427  0.8953 -0.5855
 6122TIP3    H242562   1.953   6.060  11.392 -0.6870  0.5856  0.5912
 6123TIP3   OH242563   7.558   2.344  10.873  0.0725 -0.1983  0.1006
 6123TIP3    H142564   7.654   2.348  10.878  0.0561  3.1424 -0.0615
 6123TIP3    H242565   7.533   2.423  10.825 -2.7684 -1.2444 -0.3225
 6124TIP3   OH242566   3.594   1.066  11.004 -0.1753  0.2203 -0.1661
 6124TIP3    H142567   3.609   1.053  10.911  1.9144 -3.0268  0.4691
 6124TIP3    H242568   3.636   0.991  11.046 -2.5079  0.6205  3.3092
 6125TIP3   OH242569   1.075   4.281  12.271  0.0901 -0.4498  0.1806
 6125TIP3    H142570   1.037   4.284  12.359 -0.9597  2.1798 -0.2725
 6125TIP3    H242571   1.036   4.356  12.225  1.2393 -1.2467 -2.2772
 6126TIP3   OH242572   0.481   0.985  10.718 -0.0479 -0.4825 -0.1462
 6126TIP3    H142573   0.391   1.006  10.694 -0.4003 -0.9497  0.7216
 6126TIP3    H242574   0.473   0.930  10.796  1.0626  1.4630  1.4455
 6127TIP3   OH242575   2.228   5.203  10.936 -0.2382 -0.0878 -0.5336
 6127TIP3    H142576   2.290   5.205  10.864 -0.6105  1.5133 -0.8427
 6127TIP3    H242577   2.277   5.166  11.009  0.3776 -0.9839 -1.3723
 6128TIP3   OH242578   2.035   2.250  12.024  0.6638 -0.3491 -0.0713
 6128TIP3    H142579   2.115   2.301  12.012  1.3394 -1.6709 -1.4675
 6128TIP3    H242580   2.065   2.160  12.032 -0.5808 -0.6823  1.3702
 6129TIP3   OH242581   7.673   1.916  13.017 -0.5406 -0.3948 -0.0259
 6129TIP3    H142582   7.645   2.001  12.984  1.3298 -0.2660 -1.4874
 6129TIP3    H242583   7.620   1.853  12.969 -0.7559 -0.0892 -0.1924
 6130TIP3   OH242584   0.848   0.435  11.696  0.1585  0.0998  0.0027
 6130TIP3    H142585   0.881   0.427  11.785 -0.9203 -0.0943  0.4070
 6130TIP3    H242586   0.903   0.377  11.644 -1.3992 -2.6375  1.1954
 6131TIP3   OH242587   3.185   2.341  13.062  0.0068  0.5688  0.5767
 6131TIP3    H142588   3.118   2.273  13.066  0.7964 -0.2955 -0.3370
 6131TIP3    H242589   3.137   2.423  13.076 -1.0896 -0.0995  0.8590
 6132TIP3   OH242590   0.033   5.856  11.100 -0.0228 -0.3109  0.4432
 6132TIP3    H142591   0.122   5.840  11.130  0.2577  1.0330  0.3742
 6132TIP3    H242592   0.040   5.931  11.041 -1.2655  0.1810  0.8784
 6133TIP3   OH242593   2.749   5.784  12.270  0.2753  0.3051  0.5111
 6133TIP3    H142594   2.669   5.740  12.299  0.5680 -0.0960  0.7261
 6133TIP3    H242595   2.819   5.722  12.290  0.4471 -0.2800 -1.6646
 6134TIP3   OH242596   0.981   7.009  13.279 -0.4612  0.2382  0.3298
 6134TIP3    H142597   1.057   6.965  13.241 -0.8627 -0.5983  0.4677
 6134TIP3    H242598   0.959   7.077  13.215  0.3499  0.4347  0.2511
 6135TIP3   OH242599   3.286   3.473  11.158 -0.1847 -0.4655 -0.3129
 6135TIP3    H142600   3.366   3.489  11.209 -0.8794  0.6773  0.4583
 6135TIP3    H242601   3.318   3.442  11.073  1.0479 -0.9414  0.2882
 6136TIP3   OH242602   1.651   5.140  11.664 -0.2392 -0.1049 -0.0311
 6136TIP3    H142603   1.643   5.071  11.729  1.0858 -0.9396 -0.7027
 6136TIP3    H242604   1.740   5.129  11.629 -0.6513  0.7964 -1.4320
 6137TIP3   OH242605   2.376   3.898  11.805  0.3823  0.0767 -0.2356
 6137TIP3    H142606   2.460   3.853  11.801 -0.1568 -0.8664 -1.3017
 6137TIP3    H242607   2.336   3.884  11.719 -1.2922 -0.3491  0.5683
 6138TIP3   OH242608   6.184   0.878  13.011 -0.1003 -0.5560 -0.3902
 6138TIP3    H142609   6.091   0.858  13.016  0.2035 -1.7343  1.3910
 6138TIP3    H242610   6.192   0.965  13.050 -0.3844 -0.7574  0.1320
 6139TIP3   OH242611   5.644   2.647  12.877  0.2504 -0.4571  0.6936
 6139TIP3    H142612   5.549   2.636  12.880  0.0574  0.3113 -1.3372
 6139TIP3    H242613   5.669   2.669  12.967 -1.1336 -3.1318  1.8353
 6140TIP3   OH242614   3.474   3.236  11.296  0.5647 -0.1194  0.4025
 6140TIP3    H142615   3.566   3.217  11.312  0.6335  0.4410  0.7087
 6140TIP3    H242616   3.467   3.331  11.307 -0.4159 -0.3571  2.3594
 6141TIP3   OH242617   4.823   4.634  10.920 -0.0918  0.0290  0.9788
 6141TIP3    H142618   4.747   4.599  10.966 -0.2435  0.6466  1.2087
 6141TIP3    H242619   4.813   4.729  10.926  1.0441  0.1295  1.6008
 6142TIP3   OH242620   1.198   3.026  12.975  0.0829 -0.3016 -0.2393
 6142TIP3    H142621   1.166   3.088  13.041 -0.2445 -2.0030  1.2919
 6142TIP3    H242622   1.121   3.008  12.921 -0.6334 -1.4696  1.0807
 6143TIP3   OH242623   1.402   7.141  11.874 -0.4243 -0.2812 -0.6818
 6143TIP3    H142624   1.380   7.064  11.926  1.4551 -0.4155  0.0014
 6143TIP3    H242625   1.339   7.140  11.802 -0.3383 -2.5623 -0.8004
 6144TIP3   OH242626   2.487   0.476  11.313  0.2944  0.0351 -0.4994
 6144TIP3    H142627   2.574   0.486  11.276  0.1364  2.2604 -0.4062
 6144TIP3    H242628   2.477   0.381  11.325  2.4808 -0.3157 -0.9564
 6145TIP3   OH242629   5.353   5.811  12.312  0.1021 -0.0842 -0.0300
 6145TIP3    H142630   5.436   5.766  12.297 -0.5305 -1.0718 -0.6974
 6145TIP3    H242631   5.298   5.748  12.358 -0.3168  0.5238  0.3293
 6146TIP3   OH242632   5.431   4.197  11.470 -0.4897  0.1775  0.2128
 6146TIP3    H142633   5.457   4.289  11.471 -1.2408  0.4131 -0.6882
 6146TIP3    H242634   5.509   4.150  11.444 -0.4658  0.6998 -0.6934
 6147TIP3   OH242635   0.854   3.733  12.465  0.6343 -0.3290  0.5581
 6147TIP3    H142636   0.874   3.825  12.478 -1.2587  0.1655  0.2048
 6147TIP3    H242637   0.895   3.689  12.539  3.4704  0.4729 -0.4139
 6148TIP3   OH242638   4.974   4.392  13.064  0.7564  0.1811  0.0440
 6148TIP3    H142639   5.041   4.369  13.000  0.2307 -0.5187 -0.2770
 6148TIP3    H242640   4.898   4.341  13.037  0.6469 -0.4568  1.4617
 6149TIP3   OH242641   3.304   2.831  12.102 -0.3313 -0.6770 -0.5694
 6149TIP3    H142642   3.388   2.789  12.116  0.5232  0.8075 -1.0375
 6149TIP3    H242643   3.268   2.787  12.025  0.0119 -1.3074 -0.3772
 6150TIP3   OH242644   6.632   6.047  13.406 -0.4396  0.5561  0.0446
 6150TIP3    H142645   6.702   6.108  13.431  0.1743 -0.1771  0.1347
 6150TIP3    H242646   6.631   6.051  13.310 -1.3467  1.7446  0.0771
 6151TIP3   OH242647   7.409   4.658  12.489 -0.2531 -0.0897  0.0148
 6151TIP3    H142648   7.404   4.744  12.445 -0.6234 -0.2808 -0.3212
 6151TIP3    H242649   7.487   4.665  12.544 -0.3593  0.5147  0.1005
 6152TIP3   OH242650   6.457   5.231  12.868 -0.1512 -0.4149  0.3431
 6152TIP3    H142651   6.493   5.157  12.917 -1.2643 -0.9737  0.3542
 6152TIP3    H242652   6.494   5.222  12.780 -0.0112 -0.7884  0.4392
 6153TIP3   OH242653   1.735   5.698  11.484  0.8250  0.4419  0.2968
 6153TIP3    H142654   1.659   5.721  11.537 -1.1748 -1.9068 -1.3121
 6153TIP3    H242655   1.719   5.739  11.400  1.2633 -0.1573 -0.0900
 6154TIP3   OH242656   0.996   6.528  10.584  0.0923 -0.2942 -0.0013
 6154TIP3    H142657   1.018   6.451  10.636  0.4026 -0.6837 -0.6998
 6154TIP3    H242658   1.024   6.602  10.638  1.6881 -0.7299 -0.2042
 6155TIP3   OH242659   1.348   4.223  10.334  0.2198  1.1750  0.5970
 6155TIP3    H142660   1.426   4.193  10.287  0.8211  0.9956  1.6690
 6155TIP3    H242661   1.361   4.192  10.423 -1.5721  0.2827  0.5753
 6156TIP3   OH242662   6.353   1.973  13.256  0.1734  0.3001  0.4134
 6156TIP3    H142663   6.336   1.889  13.299  1.8042  0.4885  1.5256
 6156TIP3    H242664   6.443   1.965  13.223  1.1713  2.2891  2.3835
 6157TIP3   OH242665   3.012   6.549  12.109  0.6447 -0.3458  0.8865
 6157TIP3    H142666   3.085   6.572  12.167  2.6778 -0.6661 -1.3896
 6157TIP3    H242667   3.051   6.544  12.022 -1.5641 -3.1588 -0.0979
 6158TIP3   OH242668   5.397   2.757  11.753  0.4110  0.0027  0.4536
 6158TIP3    H142669   5.404   2.691  11.684 -1.2149 -0.3505  0.5637
 6158TIP3    H242670   5.316   2.734  11.799  0.2365  1.5945  1.0091
 6159TIP3   OH242671   1.857   3.676  11.864  0.2904  0.2923 -0.4627
 6159TIP3    H142672   1.830   3.756  11.819 -0.3840 -0.2470 -1.0476
 6159TIP3    H242673   1.777   3.624  11.872  0.5990 -0.0572  0.4761
 6160TIP3   OH242674   4.400   2.200  10.805  0.6108  0.2522  0.1472
 6160TIP3    H142675   4.353   2.268  10.756 -2.8436 -1.4580  0.7402
 6160TIP3    H242676   4.432   2.140  10.738 -1.0366 -0.2573 -0.2333
 6161TIP3   OH242677   5.201   4.980  11.009 -0.0773 -0.3689 -0.4256
 6161TIP3    H142678   5.151   5.024  10.940  2.1088  0.4011 -1.6106
 6161TIP3    H242679   5.275   5.038  11.026 -0.1727 -0.8678  2.1491
 6162TIP3   OH242680   2.339   2.519  11.147 -0.7868 -0.2437  0.2645
 6162TIP3    H142681   2.401   2.562  11.205 -0.6880  1.3866 -0.9873
 6162TIP3    H242682   2.259   2.571  11.154 -1.3737 -1.1350  0.3298
 6163TIP3   OH242683   3.112   6.941  10.492  0.1927  0.0827 -0.1468
 6163TIP3    H142684   3.199   6.977  10.476  0.4389 -0.6586 -0.5328
 6163TIP3    H242685   3.088   6.898  10.410 -0.1942 -0.4013  0.2095
 6164TIP3   OH242686   0.230   0.624  10.930  0.4139 -0.4784  0.1931
 6164TIP3    H142687   0.195   0.540  10.956  0.1591 -0.1161  1.0310
 6164TIP3    H242688   0.183   0.688  10.983  0.1449  0.2517 -0.8827
 6165TIP3   OH242689   4.063   1.943  12.189 -0.4746  0.7886  0.0743
 6165TIP3    H142690   4.078   1.857  12.229 -1.1382  0.1157 -1.0525
 6165TIP3    H242691   4.050   1.924  12.096  1.3638  2.3196 -0.5771
 6166TIP3   OH242692   1.162   6.487  13.479 -0.3149  0.8624 -0.2240
 6166TIP3    H142693   1.105   6.409  13.472 -1.4460  1.7239 -0.9581
 6166TIP3    H242694   1.162   6.507  13.573  0.2060 -0.1728  0.0092
 6167TIP3   OH242695   3.129   4.433  11.294  0.0605 -0.4259  0.4980
 6167TIP3    H142696   3.218   4.405  11.316  0.3503 -1.2343 -1.4858
 6167TIP3    H242697   3.140   4.522  11.259  0.0395 -0.3941  0.5724
 6168TIP3   OH242698   3.325   5.233  12.501  0.4665  0.2116  0.2804
 6168TIP3    H142699   3.282   5.177  12.565 -1.7888  1.6486  0.1513
 6168TIP3    H242700   3.331   5.180  12.422  0.8913 -0.7051  0.9041
 6169TIP3   OH242701   3.763   3.870  18.326  0.5719 -0.0332  0.2324
 6169TIP3    H142702   3.744   3.963  18.338  1.4034  0.1469  0.2466
 6169TIP3    H242703   3.810   3.846  18.406 -0.3726 -0.6821  0.6066
 6170TIP3   OH242704   1.107   3.061  12.128 -0.5701  0.1037 -0.1845
 6170TIP3    H142705   1.047   3.111  12.183 -0.0930  0.4995 -0.0250
 6170TIP3    H242706   1.083   2.969  12.145 -0.0476  0.1942  1.1268
 6171TIP3   OH242707   5.929   6.739  10.833  0.3752  0.3873  0.2200
 6171TIP3    H142708   6.018   6.755  10.804 -0.2178  1.1509 -1.2500
 6171TIP3    H242709   5.881   6.818  10.810 -0.9146 -0.4254 -0.0069
 6172TIP3   OH242710   0.978   3.165  10.803  0.1706  0.2211  0.1586
 6172TIP3    H142711   1.066   3.198  10.783  0.7166 -1.4251 -0.2659
 6172TIP3    H242712   0.978   3.154  10.898  0.8852 -0.9568  0.0453
 6173TIP3   OH242713   0.416   5.477  11.671 -0.3637  0.1177  0.2058
 6173TIP3    H142714   0.328   5.504  11.645 -0.0054  0.1345 -1.0684
 6173TIP3    H242715   0.456   5.558  11.705 -0.2238  0.5561 -0.9695
 6174TIP3   OH242716   3.888   6.182  11.004 -0.1287 -0.6484  0.1637
 6174TIP3    H142717   3.867   6.098  11.044 -0.1881 -0.3156  0.8376
 6174TIP3    H242718   3.804   6.218  10.978 -0.2972  0.0869  1.6648
 6175TIP3   OH242719   4.364   1.639  11.677  0.5580 -0.0616  0.3698
 6175TIP3    H142720   4.427   1.645  11.604 -0.4677 -1.0825 -0.6483
 6175TIP3    H242721   4.278   1.648  11.635 -0.0161  0.7197  1.6572
 6176TIP3   OH242722   1.986   6.780  10.327 -0.2242  0.3659 -0.4285
 6176TIP3    H142723   1.922   6.832  10.279  0.2888 -0.8835 -2.5868
 6176TIP3    H242724   2.067   6.832  10.323  0.0557 -0.1297 -1.7981
 6177TIP3   OH242725   1.775   5.447  11.089  0.8639  0.0575 -0.4547
 6177TIP3    H142726   1.739   5.403  11.166  2.7475  0.4681  0.7208
 6177TIP3    H242727   1.863   5.411  11.080  0.8921  0.4462 -2.1043
 6178TIP3   OH242728   0.975   1.213  12.115  0.1738 -0.4550 -0.2679
 6178TIP3    H142729   0.999   1.151  12.046  1.8644 -0.5784  0.3819
 6178TIP3    H242730   0.903   1.170  12.162  0.7207 -1.5213 -0.3770
 6179TIP3   OH242731   2.309   6.472  10.582 -0.3800  0.6152  0.3901
 6179TIP3    H142732   2.221   6.466  10.544 -0.2350  2.7534 -0.3831
 6179TIP3    H242733   2.304   6.417  10.660 -1.6162 -1.3925 -1.0062
 6180TIP3   OH242734   5.580   6.338  11.568  0.2336  0.1087 -0.4757
 6180TIP3    H142735   5.536   6.377  11.643 -0.0233 -0.3085 -0.4073
 6180TIP3    H242736   5.648   6.401  11.545 -0.0153  0.4791 -0.2127
 6181TIP3   OH242737   0.576   0.129  13.737 -0.2494  0.1531 -0.1079
 6181TIP3    H142738   0.500   0.079  13.765  0.9649 -1.8009 -0.1599
 6181TIP3    H242739   0.545   0.177  13.659 -1.6292  0.0573  0.3559
 6182TIP3   OH242740   1.820   0.984  10.859 -0.0096 -0.2946 -0.1829
 6182TIP3    H142741   1.881   0.915  10.833  0.8563  0.1925  0.4729
 6182TIP3    H242742   1.871   1.065  10.848 -0.4485  0.0980  0.6425
 6183TIP3   OH242743   4.168   1.668  10.914  0.0560  0.0904  0.8325
 6183TIP3    H142744   4.121   1.634  10.990 -0.7498 -1.3291 -0.2462
 6183TIP3    H242745   4.127   1.753  10.897 -1.5598 -0.7052  0.4791
 6184TIP3   OH242746   4.596   5.762  11.347 -0.2935 -0.3008  0.3737
 6184TIP3    H142747   4.650   5.841  11.347 -0.1225 -0.4083 -0.4159
 6184TIP3    H242748   4.632   5.708  11.418  0.7036 -0.4030 -0.1855
 6185TIP3   OH242749   5.145   4.057  12.008  0.8323 -0.2630  0.5402
 6185TIP3    H142750   5.189   4.038  12.091 -1.6761 -1.8325  1.6298
 6185TIP3    H242751   5.182   3.993  11.947  0.3261 -1.3901  1.3659
 6186TIP3   OH242752   5.916   1.817  10.886  0.4363 -0.5073  0.4738
 6186TIP3    H142753   5.869   1.753  10.834  0.0955 -0.4220  0.6735
 6186TIP3    H242754   5.992   1.841  10.832  0.4083 -0.8592  0.2768
 6187TIP3   OH242755   2.482   5.046  11.787  0.0047  0.1216  0.4660
 6187TIP3    H142756   2.524   4.969  11.748 -0.4209  1.1885 -2.3121
 6187TIP3    H242757   2.547   5.115  11.781 -1.1871  1.1600 -1.5949
 6188TIP3   OH242758   6.424   7.358  11.788  0.1071 -0.3888 -0.0273
 6188TIP3    H142759   6.377   7.285  11.827  0.1205 -0.6909 -0.5752
 6188TIP3    H242760   6.513   7.326  11.775  0.5525  0.2595  1.2356
 6189TIP3   OH242761   4.522   0.669  11.688  0.5506  0.3680  0.4038
 6189TIP3    H142762   4.475   0.752  11.677 -0.8139 -0.5304 -0.9049
 6189TIP3    H242763   4.515   0.650  11.782  0.2054  1.3310  0.5838
 6190TIP3   OH242764   7.035   4.129  11.542  0.3289 -0.2320 -0.1171
 6190TIP3    H142765   7.040   4.224  11.534 -0.2778  0.0425  2.0933
 6190TIP3    H242766   7.091   4.096  11.472  0.3299  1.7370 -1.1001
 6191TIP3   OH242767   7.327   2.877  13.065 -0.0076  0.0040  0.4220
 6191TIP3    H142768   7.238   2.910  13.075 -0.7249 -1.5656 -0.3051
 6191TIP3    H242769   7.383   2.950  13.088 -1.4873  1.1334  0.5824
 6192TIP3   OH242770   1.473   6.749  12.238  0.1158  0.2272  0.5564
 6192TIP3    H142771   1.550   6.718  12.189 -1.0691  0.8675 -1.8840
 6192TIP3    H242772   1.428   6.669  12.264 -0.1989 -0.1870 -1.1331
 6193TIP3   OH242773   1.039   2.050  13.168 -0.3217 -0.0888  0.4099
 6193TIP3    H142774   1.054   2.143  13.184 -1.9621  0.3386 -0.3775
 6193TIP3    H242775   0.991   2.019  13.244 -0.6581 -0.0563  0.2113
 6194TIP3   OH242776   4.386   2.993  12.204  0.2390 -0.0716 -0.2715
 6194TIP3    H142777   4.472   2.957  12.186  0.3157 -1.0527  1.7970
 6194TIP3    H242778   4.403   3.082  12.235  0.3529  0.3417 -1.4786
 6195TIP3   OH242779   1.646   3.821  12.646  0.5987  0.2992 -0.7815
 6195TIP3    H142780   1.719   3.801  12.704 -0.0244  1.6261  0.5518
 6195TIP3    H242781   1.606   3.736  12.627  0.3610 -0.1433  1.4078
 6196TIP3   OH242782   2.979   3.908  11.551  0.5413  0.2487 -0.1851
 6196TIP3    H142783   2.892   3.889  11.588  0.3817  1.4674  0.1324
 6196TIP3    H242784   2.962   3.924  11.458 -0.0950  3.2123  0.3219
 6197TIP3   OH242785   4.718   1.303  12.979 -0.5733  0.0345  0.4174
 6197TIP3    H142786   4.705   1.211  13.002 -1.4163  0.0127 -0.0814
 6197TIP3    H242787   4.632   1.343  12.990 -0.6056  0.3964 -0.9359
 6198TIP3   OH242788   3.499   2.702  11.529  0.0550  0.0362 -0.3300
 6198TIP3    H142789   3.468   2.789  11.503 -1.2366 -0.4069 -0.3246
 6198TIP3    H242790   3.518   2.711  11.623 -0.3663  0.2314 -0.2630
 6199TIP3   OH242791   4.750   0.191  10.856  0.1819 -0.0605 -0.0269
 6199TIP3    H142792   4.751   0.219  10.948 -0.4649 -0.4272  0.0968
 6199TIP3    H242793   4.842   0.193  10.830  0.3279  0.5044  0.4869
 6200TIP3   OH242794   4.128   7.653  10.174  0.3044 -0.0213  0.7291
 6200TIP3    H142795   4.100   7.580  10.118  1.0954  0.0148  0.2777
 6200TIP3    H242796   4.201   7.693  10.127  0.9650  0.0295  1.7699
 6201TIP3   OH242797   2.917   6.974  11.492  0.4354  0.2036  0.0523
 6201TIP3    H142798   2.936   6.962  11.399  2.0115  0.7469  0.2702
 6201TIP3    H242799   2.833   7.021  11.493 -0.7767 -1.7999 -0.9958
 6202TIP3   OH242800   7.614   1.245  11.774 -0.3627 -0.5838 -0.0694
 6202TIP3    H142801   7.537   1.290  11.740  0.4333  1.2899  0.4839
 6202TIP3    H242802   7.581   1.160  11.805 -1.4250 -1.7379 -3.8361
 6203TIP3   OH242803   1.281   1.149  11.920 -0.0281 -0.4852 -0.0252
 6203TIP3    H142804   1.245   1.206  11.988  1.4625 -0.2966  0.6304
 6203TIP3    H242805   1.244   1.182  11.838  1.7699  2.2896  0.1746
 6204TIP3   OH242806   0.681   2.874  10.467  0.3015  0.4467  0.3211
 6204TIP3    H142807   0.734   2.954  10.465 -1.6987  1.8268 -0.8896
 6204TIP3    H242808   0.634   2.879  10.550 -0.0922  0.7197  0.0824
 6205TIP3   OH242809   3.400   5.526  11.794 -0.0344 -0.2292 -0.0323
 6205TIP3    H142810   3.478   5.548  11.744  0.1660  1.2576  0.8631
 6205TIP3    H242811   3.427   5.531  11.886 -1.5814  2.3529  0.3915
 6206TIP3   OH242812   0.139   0.387  13.395  0.1967 -0.5892  0.4143
 6206TIP3    H142813   0.188   0.450  13.343 -0.7527 -1.7452 -2.0533
 6206TIP3    H242814   0.067   0.360  13.339 -0.0676 -3.0392  1.7600
 6207TIP3   OH242815   1.153   0.306  12.263  0.6880 -0.0627  0.7267
 6207TIP3    H142816   1.231   0.326  12.213 -0.5300  0.3610 -1.1111
 6207TIP3    H242817   1.120   0.391  12.292  0.7341 -0.2148  1.2395
 6208TIP3   OH242818   6.385   5.700  12.359  0.3717 -0.0194 -0.2869
 6208TIP3    H142819   6.360   5.656  12.440  0.2819 -0.8864 -0.7746
 6208TIP3    H242820   6.302   5.728  12.320  0.4981  1.7854  0.6657
 6209TIP3   OH242821   6.996   6.702  13.294 -0.1884  0.2775 -0.1427
 6209TIP3    H142822   7.045   6.775  13.257 -0.1375  0.2051 -0.2210
 6209TIP3    H242823   7.064   6.643  13.329 -0.2773  1.0837  1.4951
 6210TIP3   OH242824   5.842   6.863  12.458  0.0333  0.7005 -0.5716
 6210TIP3    H142825   5.834   6.928  12.529 -1.2513 -0.8279  0.7716
 6210TIP3    H242826   5.935   6.860  12.438  0.5554  0.6081  1.6471
 6211TIP3   OH242827   1.703   1.205  11.697 -0.5970  0.0776 -0.0966
 6211TIP3    H142828   1.619   1.247  11.675 -0.5594 -0.1666 -0.7253
 6211TIP3    H242829   1.767   1.249  11.641 -0.4449 -0.3207 -0.2387
 6212TIP3   OH242830   2.621   4.693  10.877 -0.0370 -0.0287 -0.3336
 6212TIP3    H142831   2.672   4.680  10.797 -0.7620 -1.6714 -0.5721
 6212TIP3    H242832   2.577   4.778  10.863  2.0080  1.0874 -0.4071
 6213TIP3   OH242833   4.145   7.024  10.674  0.2015  0.2048  0.1803
 6213TIP3    H142834   4.176   7.103  10.630 -1.2042  0.1805 -0.9510
 6213TIP3    H242835   4.163   6.954  10.611 -0.7225 -0.0106  0.1407
 6214TIP3   OH242836   4.791   6.432  12.272  0.4468  0.2097  0.3602
 6214TIP3    H142837   4.733   6.452  12.346  1.2712 -1.0473  1.3779
 6214TIP3    H242838   4.863   6.382  12.310  1.9629  1.2884 -0.9698
 6215TIP3   OH242839   0.065   2.800  11.985 -0.2883  0.5357  0.0037
 6215TIP3    H142840   0.129   2.868  12.002  2.1160 -1.3431 -0.9260
 6215TIP3    H242841   0.076   2.737  12.056 -2.9812  1.3093  1.2645
 6216TIP3   OH242842   0.230   3.861  10.987 -0.3697  0.6218  0.1395
 6216TIP3    H142843   0.181   3.862  11.070 -0.7211 -1.8106  0.0445
 6216TIP3    H242844   0.321   3.843  11.014 -0.2872  0.9465  0.0727
 6217TIP3   OH242845   4.924   7.515  10.518  0.3129 -0.3851 -0.4064
 6217TIP3    H142846   4.885   7.602  10.511  0.4565 -0.2264  0.5679
 6217TIP3    H242847   4.850   7.456  10.529  0.2483 -0.2847 -0.2873
 6218TIP3   OH242848   0.490   0.092  10.447 -0.6854 -0.0918  0.0219
 6218TIP3    H142849   0.563   0.143  10.413 -1.4558  0.7020 -0.4950
 6218TIP3    H242850   0.530   0.012  10.479  0.8730  1.6747  2.8767
 6219TIP3   OH242851   0.372   2.598  12.018  0.8226 -0.2825 -0.4845
 6219TIP3    H142852   0.379   2.694  12.020  3.8727 -0.3905  1.0794
 6219TIP3    H242853   0.456   2.569  11.982  1.1672 -2.3681  1.7434
 6220TIP3   OH242854   4.260   0.817  13.391  0.0777 -0.0942 -0.4646
 6220TIP3    H142855   4.316   0.880  13.346 -0.0780 -0.1460 -0.7286
 6220TIP3    H242856   4.208   0.777  13.322  0.3304 -0.6728 -0.3258
 6221TIP3   OH242857   4.300   0.090  11.619 -0.0649  0.7364 -0.5889
 6221TIP3    H142858   4.358   0.045  11.557 -0.0070 -1.3280  0.8670
 6221TIP3    H242859   4.256   0.019  11.666  0.7803  2.1201  2.5690
 6222TIP3   OH242860   1.238   6.471  12.205  0.2128 -0.0288  0.0782
 6222TIP3    H142861   1.179   6.407  12.246 -0.7806 -0.7900 -2.3595
 6222TIP3    H242862   1.195   6.555  12.218 -0.7848 -0.4216 -0.5181
 6223TIP3   OH242863   2.253   2.778  13.522  0.6007 -0.3053  0.5754
 6223TIP3    H142864   2.327   2.831  13.552  2.0329 -1.2223 -1.1261
 6223TIP3    H242865   2.201   2.838  13.468  1.7584 -0.3648 -0.6561
 6224TIP3   OH242866   5.403   5.928  12.062  0.2265  0.0959  0.7721
 6224TIP3    H142867   5.367   5.893  12.144  0.5087 -0.4368  0.6677
 6224TIP3    H242868   5.327   5.932  12.003  0.1423 -0.0848  0.8675
 6225TIP3   OH242869   6.601   5.685  11.176  0.1082  0.2653 -0.4180
 6225TIP3    H142870   6.560   5.673  11.262  1.1292 -4.2178 -0.2845
 6225TIP3    H242871   6.694   5.674  11.193  0.3671 -0.1238 -2.0082
 6226TIP3   OH242872   6.472   1.392  13.476 -0.4441  0.6220  0.0058
 6226TIP3    H142873   6.507   1.445  13.548 -0.9184 -2.0029  2.3602
 6226TIP3    H242874   6.389   1.359  13.509 -0.5802 -0.8632 -1.6597
 6227TIP3   OH242875   0.647   6.800  12.661 -0.0724  0.1773  0.0505
 6227TIP3    H142876   0.556   6.774  12.667 -0.1756  0.3120 -0.7676
 6227TIP3    H242877   0.693   6.721  12.633 -0.1722  0.4936 -1.0348
 6228TIP3   OH242878   0.657   1.482  10.810  0.3594 -0.3137  0.5679
 6228TIP3    H142879   0.564   1.463  10.793  0.2471 -1.1709  1.9992
 6228TIP3    H242880   0.703   1.432  10.743 -0.2067  0.7048 -0.6317
 6229TIP3   OH242881   4.032   7.375  12.935 -0.3156 -0.1676 -0.1190
 6229TIP3    H142882   4.050   7.457  12.980  1.3343  0.7356 -2.2610
 6229TIP3    H242883   4.078   7.309  12.987  0.7172  0.6776  0.0647
 6230TIP3   OH242884   4.128   3.484  10.898 -0.1303  0.1387 -0.3066
 6230TIP3    H142885   4.151   3.562  10.847 -2.0825 -0.2270 -1.8629
 6230TIP3    H242886   4.209   3.432  10.899  0.1750  0.4624 -2.5198
 6231TIP3   OH242887   0.632   4.823  12.155  0.0668 -0.1387  0.2433
 6231TIP3    H142888   0.587   4.880  12.093  0.8204 -0.3505 -0.5243
 6231TIP3    H242889   0.591   4.841  12.239 -0.9631  0.1704 -0.3118
 6232TIP3   OH242890   7.534   3.714  12.322 -0.0387 -0.3842  0.1050
 6232TIP3    H142891   7.440   3.731  12.323  0.2034  1.0646  0.0425
 6232TIP3    H242892   7.562   3.731  12.412  0.1742 -0.7861  0.1163
 6233TIP3   OH242893   5.955   4.573  12.766 -0.3719 -0.5102  0.1930
 6233TIP3    H142894   5.916   4.518  12.698 -1.0987 -1.6682  1.5097
 6233TIP3    H242895   5.881   4.597  12.822  0.0224  1.3660 -0.0130
 6234TIP3   OH242896   6.888   1.047  11.991 -0.3495  0.6623  0.6737
 6234TIP3    H142897   6.925   1.028  11.905  2.6978  0.9161  1.7948
 6234TIP3    H242898   6.868   1.141  11.989 -0.1936  0.6885  0.2892
 6235TIP3   OH242899   7.267   7.598  11.925  0.0380  0.1174 -0.3986
 6235TIP3    H142900   7.194   7.564  11.875 -0.3747  0.4758 -0.0458
 6235TIP3    H242901   7.230   7.668  11.979  0.5984  0.1825 -0.0794
 6236TIP3   OH242902   0.864   0.071  11.441  0.0773  0.0631 -0.3617
 6236TIP3    H142903   0.906  -0.011  11.415 -1.2735 -0.6866 -0.2718
 6236TIP3    H242904   0.776   0.066  11.403 -0.0519  1.4587 -0.3125
 6237TIP3   OH242905   7.303   5.450  11.352 -0.1569 -0.4249 -0.6312
 6237TIP3    H142906   7.224   5.397  11.339 -1.7136  1.8933 -1.1974
 6237TIP3    H242907   7.335   5.423  11.438 -3.0580  0.2901  0.8145
 6238TIP3   OH242908   1.446   4.616  10.431 -0.6537  0.1993 -0.0931
 6238TIP3    H142909   1.504   4.597  10.357 -0.3434  0.7986 -0.0131
 6238TIP3    H242910   1.504   4.619  10.507 -0.7280  1.1218 -0.0576
 6239TIP3   OH242911   6.905   3.845  11.871 -0.5595  0.7200  0.7886
 6239TIP3    H142912   6.815   3.863  11.844 -0.3074  1.7323  0.5640
 6239TIP3    H242913   6.943   3.932  11.887  1.0707  0.4909 -1.3687
 6240TIP3   OH242914   6.970   0.595  12.250 -0.1041 -0.2782  0.1584
 6240TIP3    H142915   6.999   0.612  12.161  0.0294 -2.1083 -0.1855
 6240TIP3    H242916   6.874   0.592  12.244 -0.1657  0.9622  0.3590
 6241TIP3   OH242917   5.833   0.860  11.008  0.1087  0.0491 -0.0626
 6241TIP3    H142918   5.800   0.793  11.068 -1.5276 -0.6358 -1.6325
 6241TIP3    H242919   5.921   0.830  10.985  0.2987 -0.2912  1.0694
 6242TIP3   OH242920   0.924   0.202  12.130 -0.0616 -0.2804  0.3073
 6242TIP3    H142921   0.927   0.108  12.115 -1.0687 -0.2812  0.0560
 6242TIP3    H242922   0.991   0.218  12.196  0.2650 -1.1382  0.1953
 6243TIP3   OH242923   3.134   6.358  11.882  0.4418 -0.0837  0.0129
 6243TIP3    H142924   3.192   6.327  11.952 -1.4021  0.1280  1.7192
 6243TIP3    H242925   3.059   6.299  11.885  0.0960  0.2310 -1.5046
 6244TIP3   OH242926   0.486   7.589  12.502 -0.4480  0.8329  0.2272
 6244TIP3    H142927   0.491   7.672  12.453  0.5265  0.6652  0.0248
 6244TIP3    H242928   0.576   7.572  12.530 -0.9980  1.0678  2.3512
 6245TIP3   OH242929   6.170   0.451  10.681 -0.1337 -0.0772  0.0986
 6245TIP3    H142930   6.225   0.379  10.650 -0.3931 -0.3717  0.3131
 6245TIP3    H242931   6.231   0.513  10.721  0.1542  0.0978 -0.5968
 6246TIP3   OH242932   5.724   1.067  12.151  0.4545 -0.5348  0.3876
 6246TIP3    H142933   5.776   1.138  12.114  1.6170 -1.1996  0.6913
 6246TIP3    H242934   5.711   1.092  12.242 -0.4069 -0.0151  0.1298
 6247TIP3   OH242935   6.445   2.646  12.981 -0.0315  0.1162 -0.3272
 6247TIP3    H142936   6.355   2.665  13.006  0.1774 -0.8854  1.4013
 6247TIP3    H242937   6.498   2.702  13.038  0.4467 -1.5281  0.9595
 6248TIP3   OH242938   2.724   7.472  10.676  0.2843  0.3850 -0.8805
 6248TIP3    H142939   2.730   7.546  10.615 -1.8093  0.6473 -0.8443
 6248TIP3    H242940   2.752   7.508  10.760  0.5708  0.7631 -1.1311
 6249TIP3   OH242941   4.372   1.394  10.719  0.4846 -0.3565 -0.2960
 6249TIP3    H142942   4.358   1.332  10.647  0.3718 -0.8083  0.1090
 6249TIP3    H242943   4.291   1.443  10.725  1.0514  0.7883 -1.5140
 6250TIP3   OH242944   5.429   2.528  12.152 -0.6638 -0.2552 -0.0645
 6250TIP3    H142945   5.500   2.480  12.197  0.6449  0.0652 -1.6891
 6250TIP3    H242946   5.449   2.620  12.168 -1.1681 -0.1773  0.1138
 6251TIP3   OH242947   3.629   1.462  11.411 -0.2188  0.2872 -0.4237
 6251TIP3    H142948   3.667   1.375  11.402 -0.8849 -0.2541  1.4773
 6251TIP3    H242949   3.538   1.446  11.435  0.0036  1.4574  1.3762
 6252TIP3   OH242950   2.816   7.607  12.029  0.1155 -0.4319 -0.1015
 6252TIP3    H142951   2.773   7.632  12.111  2.9282 -0.7108  1.6308
 6252TIP3    H242952   2.827   7.689  11.982 -0.7510 -0.1196  0.2262
 6253TIP3   OH242953   7.388   6.877  12.999 -0.0862  0.0566  0.2077
 6253TIP3    H142954   7.404   6.818  13.073  1.2408 -0.2542 -0.2921
 6253TIP3    H242955   7.357   6.958  13.039  1.4137  0.1809  1.1904
 6254TIP3   OH242956   6.639   2.670  12.408 -0.3591 -0.1944 -0.2044
 6254TIP3    H142957   6.544   2.677  12.422 -0.4280 -0.0853 -0.7282
 6254TIP3    H242958   6.676   2.741  12.461 -0.4283 -1.3080  1.4133
 6255TIP3   OH242959   7.047   0.595  12.005  0.1520 -0.2427  0.2350
 6255TIP3    H142960   7.132   0.557  11.983  0.2465 -1.0481  1.8568
 6255TIP3    H242961   6.983   0.539  11.961  0.4310  0.4628 -1.1261
 6256TIP3   OH242962   3.553   1.165  12.240  0.0482 -0.5387  0.5201
 6256TIP3    H142963   3.631   1.114  12.262  0.9132  1.0235  1.2586
 6256TIP3    H242964   3.559   1.179  12.146  0.9173 -0.0633  0.6361
 6257TIP3   OH242965   2.828   2.687  11.241 -0.5057  0.2378 -0.7780
 6257TIP3    H142966   2.865   2.646  11.163  0.2107 -0.1356 -0.2628
 6257TIP3    H242967   2.860   2.632  11.313  1.7440  2.5266  0.1002
 6258TIP3   OH242968   0.264   4.351  11.514 -0.3437  0.2454 -0.4284
 6258TIP3    H142969   0.209   4.394  11.449 -1.0415  0.9023  0.5553
 6258TIP3    H242970   0.348   4.336  11.470 -0.3594  1.8729 -1.0502
 6259TIP3   OH242971   6.002   3.540  10.557  0.2315  0.0318 -0.1206
 6259TIP3    H142972   6.095   3.544  10.579  0.4582 -0.1405 -1.0405
 6259TIP3    H242973   5.971   3.630  10.568  0.3351 -0.0440  0.8807
 6260TIP3   OH242974   5.756   3.578  12.067  1.1629  0.2091 -0.3986
 6260TIP3    H142975   5.721   3.661  12.034  1.4695  0.5953  0.2298
 6260TIP3    H242976   5.829   3.604  12.123 -0.0591 -0.3415  1.5473
 6261TIP3   OH242977   1.737   3.519  12.892  0.0658  0.1708  0.1152
 6261TIP3    H142978   1.695   3.591  12.939 -0.3833  0.3483 -0.5372
 6261TIP3    H242979   1.782   3.560  12.819 -1.4868 -0.3029 -1.1876
 6262TIP3   OH242980   4.131   4.002  10.763 -0.1618  0.4093  0.0113
 6262TIP3    H142981   4.133   4.067  10.834 -0.0166  0.3340  0.0750
 6262TIP3    H242982   4.140   4.055  10.684 -0.0142  0.4655  0.0648
 6263TIP3   OH242983   6.559   4.182  12.435  0.0857 -0.0732 -0.1472
 6263TIP3    H142984   6.641   4.198  12.483  0.1155 -2.9926  1.0136
 6263TIP3    H242985   6.520   4.268  12.424  2.1701  1.1647  1.3916
 6264TIP3   OH242986   4.306   0.491  10.633 -0.1009  0.2057 -0.4022
 6264TIP3    H142987   4.336   0.582  10.633  0.2429  0.1453  1.8206
 6264TIP3    H242988   4.371   0.444  10.684 -0.9855 -1.0412 -0.3677
 6265TIP3   OH242989   6.366   1.539  12.506 -0.0739 -0.2000  0.6257
 6265TIP3    H142990   6.384   1.616  12.560  0.4750  1.3021 -1.5736
 6265TIP3    H242991   6.270   1.533  12.505 -0.1426  0.7869  0.3906
 6266TIP3   OH242992   0.497   6.716  13.488  0.0345  0.5126  0.2229
 6266TIP3    H142993   0.591   6.699  13.483 -0.2363 -0.7477 -1.4738
 6266TIP3    H242994   0.491   6.810  13.505  1.5881  0.5897  0.5454
 6267TIP3   OH242995   1.341   4.438  13.061  0.3212  0.3897 -0.2683
 6267TIP3    H142996   1.302   4.359  13.025  1.1531 -0.5617  0.8681
 6267TIP3    H242997   1.419   4.452  13.007 -0.8266  1.5811 -1.7218
 6268TIP3   OH242998   6.205   2.380  12.499  0.2877  0.6503  0.4775
 6268TIP3    H142999   6.197   2.426  12.416  0.0944 -1.0605 -0.4955
 6268TIP3    H243000   6.265   2.307  12.481  0.1462  0.1766  1.8014
 6269TIP3   OH243001   3.141   0.431  10.964 -0.0719 -0.3415 -0.3093
 6269TIP3    H143002   3.224   0.473  10.985  0.9547 -2.1479 -0.5649
 6269TIP3    H243003   3.150   0.402  10.873 -1.3845  0.2877 -0.6781
 6270TIP3   OH243004   0.801   6.547  12.683  0.1981  0.2274 -0.3528
 6270TIP3    H143005   0.798   6.464  12.730 -1.9866  0.9164  0.8619
 6270TIP3    H243006   0.873   6.537  12.621  1.4140 -1.7443  1.2520
 6271TIP3   OH243007   2.389   4.575  11.745 -0.0253 -0.0945 -0.0210
 6271TIP3    H143008   2.477   4.559  11.711  0.0680 -0.4790  0.3891
 6271TIP3    H243009   2.396   4.560  11.839  0.0410  2.2420  0.4113
 6272TIP3   OH243010   1.414   6.470  11.521 -0.2331  0.2320  0.4762
 6272TIP3    H143011   1.381   6.390  11.562  1.0736  0.0869  1.3086
 6272TIP3    H243012   1.367   6.540  11.566 -1.2160 -0.0344 -0.0981
 6273TIP3   OH243013   0.946   1.517  12.308 -0.7760  0.0803 -0.4327
 6273TIP3    H143014   1.005   1.453  12.348 -1.7168  0.0519  0.9704
 6273TIP3    H243015   0.899   1.556  12.382 -1.1124  1.5109 -1.3562
 6274TIP3   OH243016   4.514   0.444  10.807  0.2387  0.0163 -0.0982
 6274TIP3    H143017   4.502   0.349  10.811  0.7266 -0.0572 -0.3060
 6274TIP3    H243018   4.582   0.457  10.741  0.7955  0.4525  0.5458
 6275TIP3   OH243019   6.053   1.762  11.143 -0.6757 -0.9598 -0.0179
 6275TIP3    H143020   5.992   1.833  11.163 -0.6524 -1.3262  1.4544
 6275TIP3    H243021   6.009   1.711  11.075 -0.7703  0.3336 -0.9610
 6276TIP3   OH243022   3.983   0.002  11.221 -0.0605  0.0278  0.3672
 6276TIP3    H143023   3.932  -0.026  11.145 -1.3636 -0.7335  1.4849
 6276TIP3    H243024   4.074  -0.018  11.198 -0.1713  1.6047 -1.7508
 6277TIP3   OH243025   1.159   3.716  12.028 -0.0941 -0.6953 -0.0473
 6277TIP3    H143026   1.107   3.797  12.026  1.7563  0.5898  0.8475
 6277TIP3    H243027   1.149   3.684  12.118  0.7135 -0.3732  0.1661
 6278TIP3   OH243028   7.052   1.597  11.892 -0.6342  0.5031  0.6040
 6278TIP3    H143029   7.135   1.625  11.930 -0.1832  1.6732 -1.1306
 6278TIP3    H243030   7.061   1.614  11.798 -3.4708  2.4049  0.5575
 6279TIP3   OH243031   1.630   7.024  12.114  0.2524  0.5392  0.3662
 6279TIP3    H143032   1.650   6.938  12.149  0.5164  0.8036  0.8760
 6279TIP3    H243033   1.544   7.013  12.073  0.4776 -0.0669  0.0408
 6280TIP3   OH243034   7.212   0.095  12.122  0.1579 -0.6790 -0.0521
 6280TIP3    H143035   7.273   0.106  12.195  2.3874 -3.3461 -1.3216
 6280TIP3    H243036   7.126   0.118  12.159  1.3102 -0.8799  3.0844
 6281TIP3   OH243037   7.648   5.222  13.169  0.0456 -0.1041 -0.4615
 6281TIP3    H143038   7.718   5.236  13.233  0.8777 -1.1054 -1.1137
 6281TIP3    H243039   7.585   5.166  13.214  1.3998 -2.1493 -0.9707
 6282TIP3   OH243040   0.067   4.186  11.214  0.8201 -0.0664  0.6507
 6282TIP3    H143041   0.021   4.137  11.146  0.9416  0.6660  0.0333
 6282TIP3    H243042   0.157   4.155  11.210  1.0887  0.7909 -0.3128
 6283TIP3   OH243043   6.985   3.997  12.433  0.2172 -0.6835  0.1484
 6283TIP3    H143044   6.973   3.908  12.466 -0.4020 -0.0859  1.6003
 6283TIP3    H243045   7.078   4.016  12.446 -0.0859 -0.3009  2.0762
 6284TIP3   OH243046   0.557   1.450  11.997  0.6767 -0.1172 -0.1020
 6284TIP3    H143047   0.652   1.450  12.006  0.7474  0.7881 -0.8170
 6284TIP3    H243048   0.533   1.541  11.985 -0.3069 -0.3195  0.1889
 6285TIP3   OH243049   7.669   5.170  10.775 -0.2518  0.4345  0.1674
 6285TIP3    H143050   7.659   5.087  10.727  0.7216 -0.6007  1.6576
 6285TIP3    H243051   7.594   5.171  10.835 -0.1511  0.5322  0.2901
 6286TIP3   OH243052   4.182   5.489  12.730  0.2127  0.1505  0.0404
 6286TIP3    H143053   4.199   5.432  12.805  1.1466 -1.2549 -1.1940
 6286TIP3    H243054   4.267   5.502  12.689 -0.3185  0.6259 -0.9644
 6287TIP3   OH243055   2.001   0.470  10.480  0.0679  0.3179 -0.0668
 6287TIP3    H143056   1.979   0.413  10.406  0.8281 -0.6428  0.4296
 6287TIP3    H243057   1.916   0.498  10.516 -0.3212  1.1365 -1.5272
 6288TIP3   OH243058   6.383   3.429  11.172  0.1411  0.1915  0.1169
 6288TIP3    H143059   6.384   3.394  11.083  0.0567  0.6987 -0.0898
 6288TIP3    H243060   6.303   3.394  11.211 -0.7555  1.3785 -0.5950
 6289TIP3   OH243061   3.929   0.538  11.962 -0.2963  0.0859 -0.1097
 6289TIP3    H143062   3.990   0.610  11.979  0.8353 -1.1377  1.2508
 6289TIP3    H243063   3.849   0.582  11.934  1.0065  1.7724 -1.4840
 6290TIP3   OH243064   2.504   4.908  10.780  0.3887  0.0113  0.3714
 6290TIP3    H143065   2.411   4.926  10.790  0.4001  0.1827  0.1739
 6290TIP3    H243066   2.527   4.944  10.695  0.9092  1.0902  0.9428
 6291TIP3   OH243067   4.878   1.195  12.606  0.4716  0.2848  0.7709
 6291TIP3    H143068   4.789   1.164  12.589  0.6452  0.3578 -0.3427
 6291TIP3    H243069   4.867   1.286  12.634  0.2175  0.4419  0.1783
 6292TIP3   OH243070   6.901   3.718  12.381 -0.3914  0.1864  0.3918
 6292TIP3    H143071   6.949   3.662  12.442 -1.1470  0.2206  1.0392
 6292TIP3    H243072   6.908   3.674  12.297  1.8207  0.8192  0.1673
 6293TIP3   OH243073   6.054   5.912  12.521  0.6490 -0.2142 -0.7593
 6293TIP3    H143074   6.039   5.989  12.576 -1.1497 -0.3653 -0.9800
 6293TIP3    H243075   5.995   5.846  12.556  1.2764 -1.1094 -1.3501
 6294TIP3   OH243076   5.709   1.092  12.967 -0.0638  0.1614 -0.3674
 6294TIP3    H143077   5.671   1.048  12.890  1.1280  0.4635 -1.1523
 6294TIP3    H243078   5.633   1.118  13.019 -0.8741 -2.7544  0.1240
 6295TIP3   OH243079   4.358   5.659  10.931  0.2226  0.4088 -0.5238
 6295TIP3    H143080   4.351   5.749  10.965  1.3813  0.9622 -1.6813
 6295TIP3    H243081   4.283   5.650  10.873 -0.9201 -0.0295  0.9387
 6296TIP3   OH243082   6.475   4.428  12.377 -0.7369 -0.0799  0.7841
 6296TIP3    H143083   6.395   4.403  12.331 -0.6514 -1.0129  1.1255
 6296TIP3    H243084   6.444   4.466  12.459 -0.8754  1.2016  0.1624
 6297TIP3   OH243085   6.085   3.359  10.907  0.2932 -0.0021  0.0923
 6297TIP3    H143086   5.996   3.382  10.882  0.2351  0.6573  0.8675
 6297TIP3    H243087   6.077   3.274  10.949 -0.0546  0.2688  0.5939
 6298TIP3   OH243088   1.312   7.115  11.608 -0.2261  0.1332 -0.2443
 6298TIP3    H143089   1.364   7.169  11.548  0.1716 -0.6716 -0.6303
 6298TIP3    H243090   1.249   7.070  11.553 -1.7709  1.5504  0.2880
 6299TIP3   OH243091   0.136   7.370  11.003  0.0004 -0.1013 -0.0188
 6299TIP3    H143092   0.122   7.385  11.096  3.1410  0.5540  0.4597
 6299TIP3    H243093   0.162   7.279  10.997 -2.5880 -0.8916 -0.6917
 6300TIP3   OH243094   3.526   0.273  12.094 -0.3887  0.3105  0.1041
 6300TIP3    H143095   3.580   0.231  12.161 -0.7230  0.2560  0.3456
 6300TIP3    H243096   3.438   0.274  12.132 -1.0841 -1.8996 -1.3251
 6301TIP3   OH243097   0.850   4.170  12.085 -0.7096  0.4112 -0.5712
 6301TIP3    H143098   0.918   4.230  12.115  0.5782 -1.1022 -0.3451
 6301TIP3    H243099   0.896   4.106  12.032 -2.2446  0.3283 -1.8870
 6302TIP3   OH243100   3.144   3.220  12.397  0.4297  0.4724  0.2217
 6302TIP3    H143101   3.181   3.147  12.347 -0.2077  0.5618 -0.4109
 6302TIP3    H243102   3.051   3.217  12.376  0.5073  1.9493 -0.4665
 6303TIP3   OH243103   0.861   4.203  11.354  0.7221  0.1700  0.0817
 6303TIP3    H143104   0.864   4.187  11.448  0.2567 -1.8273 -0.2004
 6303TIP3    H243105   0.819   4.289  11.346 -0.3631 -0.1555  1.6658
 6304TIP3   OH243106   3.965   6.327  11.979  0.3202 -0.4106 -0.4094
 6304TIP3    H143107   3.889   6.331  11.921 -0.7870  1.5872  1.0402
 6304TIP3    H243108   3.928   6.313  12.066  1.4758  1.5901  0.4719
 6305TIP3   OH243109   5.893   4.074  11.960  0.3832  0.3038  0.0229
 6305TIP3    H143110   5.900   4.014  11.885  0.4274 -0.6276  0.7445
 6305TIP3    H243111   5.969   4.052  12.014  0.3207  0.9297  0.3731
 6306TIP3   OH243112   0.295   5.906  12.331  0.0762 -0.1155 -0.1104
 6306TIP3    H143113   0.245   5.966  12.275  1.0873  0.2907 -0.5835
 6306TIP3    H243114   0.299   5.824  12.281  0.1296 -0.0618 -0.1940
 6307TIP3   OH243115   4.897   1.020  10.458  0.0298  0.3858 -0.0682
 6307TIP3    H143116   4.918   0.927  10.466  0.9242  0.6407  0.8093
 6307TIP3    H243117   4.806   1.027  10.486 -0.0457 -0.2249 -0.1462
 6308TIP3   OH243118   2.888   5.636  11.609 -0.1142  0.2525  0.3468
 6308TIP3    H143119   2.966   5.582  11.620  1.2759  1.7392 -1.4853
 6308TIP3    H243120   2.874   5.675  11.695 -0.2514 -1.8080  1.2998
 6309TIP3   OH243121   6.823   4.532  11.100 -0.2102 -0.3163 -0.0198
 6309TIP3    H143122   6.778   4.560  11.180 -0.7040 -3.3691  0.9160
 6309TIP3    H243123   6.915   4.527  11.125 -0.4133 -1.6694  0.5608
 6310TIP3   OH243124   3.774   1.989  11.816 -0.3689 -0.0361  0.3595
 6310TIP3    H143125   3.707   2.048  11.783 -1.1369 -1.0153  0.1190
 6310TIP3    H243126   3.784   2.013  11.908 -3.0656 -1.6000  1.1825
 6311TIP3   OH243127   1.611   0.200  11.394 -0.3409  0.0131 -0.0582
 6311TIP3    H143128   1.682   0.256  11.365  1.0304 -1.5369  0.1734
 6311TIP3    H243129   1.625   0.189  11.488 -1.8161  0.9314  0.2995
 6312TIP3   OH243130   0.453   4.572  13.449 -0.3358  0.2098 -0.2168
 6312TIP3    H143131   0.432   4.613  13.365  1.4140 -0.5652 -1.0762
 6312TIP3    H243132   0.449   4.644  13.512 -0.7212  0.9948 -1.1074
 6313TIP3   OH243133   0.496   5.436  12.215  0.2994 -0.4853 -0.3269
 6313TIP3    H143134   0.530   5.357  12.256 -2.1777 -0.4579  2.0981
 6313TIP3    H243135   0.445   5.404  12.140 -1.0084 -1.3040  0.8624
 6314TIP3   OH243136   4.615   0.901  12.650  0.8544 -0.1223 -0.0413
 6314TIP3    H143137   4.672   0.905  12.574  0.7674  0.0781 -0.0966
 6314TIP3    H243138   4.595   0.808  12.661  0.7602 -0.1374 -0.3396
 6315TIP3   OH243139   6.919   4.153  12.067 -0.3150 -0.1795  0.3441
 6315TIP3    H143140   6.925   4.154  11.972  0.2298 -0.3775  0.3715
 6315TIP3    H243141   7.007   4.175  12.097 -0.7818  1.1840  0.8070
 6316TIP3   OH243142   1.615   0.038  11.184  0.1828 -0.6541 -0.2221
 6316TIP3    H143143   1.641   0.110  11.242  0.2882 -0.4906 -0.4718
 6316TIP3    H243144   1.598   0.080  11.100 -0.4206 -0.8264 -0.1949
 6317TIP3   OH243145   0.667   5.344  11.081 -0.0091  0.3015 -0.0988
 6317TIP3    H143146   0.749   5.297  11.095  0.4519  1.4872  1.5191
 6317TIP3    H243147   0.600   5.288  11.123  0.1233 -0.1526 -0.4849
 6318TIP3   OH243148   4.136   6.841  12.415  0.0680 -0.1241 -0.5259
 6318TIP3    H143149   4.221   6.813  12.381  0.0051 -2.1843  0.8884
 6318TIP3    H243150   4.157   6.891  12.494 -0.0387 -1.8224  0.6144
 6319TIP3   OH243151   0.840   7.059  11.713 -0.4448 -0.3971  0.2408
 6319TIP3    H143152   0.779   7.083  11.783  0.3363 -0.7679  1.0694
 6319TIP3    H243153   0.896   6.992  11.752  0.6384  0.0834 -0.4260
 6320TIP3   OH243154   4.380   5.520  10.580 -0.5175  0.4124  0.2625
 6320TIP3    H143155   4.366   5.598  10.526 -0.3814 -0.2950 -0.8057
 6320TIP3    H243156   4.293   5.501  10.616 -0.4536  1.3440  0.9556
 6321TIP3   OH243157   1.003   6.404  10.946 -0.3712  0.4536  0.4976
 6321TIP3    H143158   1.038   6.389  10.859  0.3911 -1.3621  1.0457
 6321TIP3    H243159   1.075   6.445  10.994 -0.3485  0.3198  0.5805
 6322TIP3   OH243160   6.874   5.776  11.224  0.1134  0.2363  0.1484
 6322TIP3    H143161   6.904   5.848  11.168  0.2900 -0.4639 -0.6807
 6322TIP3    H243162   6.934   5.704  11.204 -1.5588 -0.9298 -0.8971
 6323TIP3   OH243163   3.837   2.754  11.526 -0.0279  0.2952 -0.7287
 6323TIP3    H143164   3.855   2.680  11.468 -2.7009 -0.7558 -0.3404
 6323TIP3    H243165   3.802   2.821  11.468 -1.6004 -0.3338 -0.5509
 6324TIP3   OH243166   3.880   3.245  12.644 -0.0569 -0.7934  0.0226
 6324TIP3    H143167   3.930   3.273  12.568  0.8883 -1.8394  0.2297
 6324TIP3    H243168   3.888   3.150  12.645 -0.4280 -0.8354  1.1652
 6325TIP3   OH243169   4.305   7.466  13.262 -0.3605  0.6927 -0.4094
 6325TIP3    H143170   4.292   7.529  13.191  1.5972  1.3330 -0.2404
 6325TIP3    H243171   4.379   7.500  13.312  1.4923 -2.2324 -0.9010
 6326TIP3   OH243172   5.152   0.476  12.146 -0.2240 -0.0188 -0.1170
 6326TIP3    H143173   5.144   0.529  12.067  1.1130  1.1594  0.4928
 6326TIP3    H243174   5.142   0.386  12.115 -1.8407  0.5237 -1.2759
 6327TIP3   OH243175   1.267   6.532  13.219  0.4645 -0.0886  0.2633
 6327TIP3    H143176   1.317   6.612  13.237  1.4120 -0.7162  0.4650
 6327TIP3    H243177   1.230   6.507  13.304  0.5394 -0.1183  0.2863
 6328TIP3   OH243178   1.355   7.258  12.586 -0.4969  0.1807 -0.0216
 6328TIP3    H143179   1.446   7.243  12.611 -0.1970  1.1137 -0.5000
 6328TIP3    H243180   1.319   7.309  12.658 -1.1865 -1.7091  1.0476
 6329TIP3   OH243181   5.964   4.871  11.239 -0.2686 -0.1800  0.0686
 6329TIP3    H143182   5.990   4.784  11.269 -0.6147 -0.3546 -0.1300
 6329TIP3    H243183   5.996   4.930  11.307  3.2738 -0.0378 -1.5272
 6330TIP3   OH243184   6.749   4.494  13.182  0.0376 -0.0225  0.1682
 6330TIP3    H143185   6.767   4.404  13.206  0.4909  0.3182  1.1496
 6330TIP3    H243186   6.789   4.504  13.095  0.2762 -0.6575  0.2012
 6331TIP3   OH243187   6.813   4.508  12.929  0.8561 -0.6106  0.0212
 6331TIP3    H143188   6.760   4.442  12.884 -0.4824  0.3614  0.1097
 6331TIP3    H243189   6.853   4.559  12.858  2.0638 -1.6262 -0.0477
 6332TIP3   OH243190   7.593   7.246  11.943  0.2717  0.0321  0.1251
 6332TIP3    H143191   7.683   7.261  11.912  0.2091 -1.1822 -0.6733
 6332TIP3    H243192   7.563   7.333  11.971  0.5900  1.0969 -2.5508
 6333TIP3   OH243193   1.892   6.466  13.237 -0.1444  0.0182  0.1418
 6333TIP3    H143194   1.872   6.390  13.293 -1.0485 -1.6960 -2.3073
 6333TIP3    H243195   1.810   6.482  13.190  0.8022  0.7826 -1.3164
 6334TIP3   OH243196   7.144   6.807  10.842 -0.1922 -0.3041  0.3341
 6334TIP3    H143197   7.081   6.744  10.806 -1.1628  0.3132  0.9160
 6334TIP3    H243198   7.132   6.886  10.789  0.1005 -0.1738  0.4586
 6335TIP3   OH243199   6.394   5.781  11.008  0.1559 -0.2668  0.3182
 6335TIP3    H143200   6.455   5.754  11.076  0.6050  0.2433  0.1158
 6335TIP3    H243201   6.447   5.831  10.946 -0.4501  0.1135  0.1027
 6336TIP3   OH243202   7.471   6.504  10.914 -0.1253 -0.4430 -0.0542
 6336TIP3    H143203   7.446   6.590  10.881  0.4242  0.2508  1.2556
 6336TIP3    H243204   7.404   6.445  10.879  1.1731 -0.0829 -3.5453
 6337TIP3   OH243205   4.303   3.303  11.950 -0.6663  0.3431  0.6319
 6337TIP3    H143206   4.215   3.338  11.938 -0.6425  0.6301  1.2583
 6337TIP3    H243207   4.337   3.350  12.027 -0.1043 -0.0258  0.6107
 6338TIP3   OH243208   1.978   7.512  10.463  0.3567  0.1698  0.2798
 6338TIP3    H143209   2.028   7.586  10.427 -0.2295  1.2477  1.5721
 6338TIP3    H243210   2.045   7.452  10.496  0.8950 -0.7337 -2.2629
 6339TIP3   OH243211   0.982   6.802  10.991 -0.0800 -0.4304 -0.6548
 6339TIP3    H143212   0.900   6.764  11.022  1.1108 -1.6503  1.2189
 6339TIP3    H243213   0.960   6.891  10.965 -1.7983 -0.3902  0.8183
 6340TIP3   OH243214   2.077   4.322  10.323  0.0741 -0.4022  0.1863
 6340TIP3    H143215   2.143   4.391  10.324 -0.3887  0.0465  0.2482
 6340TIP3    H243216   2.106   4.260  10.389 -0.1087  0.3126  0.9542
 6341TIP3   OH243217   0.275   1.634  11.413 -0.7141  0.5670 -0.2715
 6341TIP3    H143218   0.234   1.599  11.492  0.6952 -0.9568 -0.1616
 6341TIP3    H243219   0.236   1.584  11.341  0.9818 -1.0183 -0.1522
 6342TIP3   OH243220   0.322   2.649  10.922  0.2848  0.6495 -0.3792
 6342TIP3    H143221   0.242   2.686  10.958 -0.0320 -1.7497  1.6465
 6342TIP3    H243222   0.369   2.724  10.884 -2.7050  2.1699 -1.3703
 6343TIP3   OH243223   7.406   4.094  12.241 -0.7386  0.3096  0.1616
 6343TIP3    H143224   7.397   4.004  12.272  0.9478  0.6992  2.0399
 6343TIP3    H243225   7.410   4.146  12.322 -1.0620  2.0028 -0.8653
 6344TIP3   OH243226   6.239   0.460  12.697 -0.0419 -0.0713  0.2152
 6344TIP3    H143227   6.202   0.381  12.660  0.0164  0.1238 -0.2707
 6344TIP3    H243228   6.332   0.456  12.674 -0.4151  1.1863 -1.7526
 6345TIP3   OH243229   4.953   4.858  11.920  1.1508 -0.2440 -0.4381
 6345TIP3    H143230   4.908   4.812  11.991 -2.2155  1.0757 -1.5283
 6345TIP3    H243231   5.025   4.800  11.896 -1.0069 -3.4902  0.2942
 6346TIP3   OH243232   5.751   6.383  11.915 -0.1182 -0.3903 -0.1651
 6346TIP3    H143233   5.781   6.368  11.825 -1.8510 -1.2153 -0.6407
 6346TIP3    H243234   5.715   6.472  11.914 -0.6565 -0.6123 -0.4314
 6347TIP3   OH243235   4.928   0.633  12.591 -1.1760  0.0206  0.0083
 6347TIP3    H143236   4.948   0.726  12.589 -0.6984 -0.0386  1.1772
 6347TIP3    H243237   4.949   0.606  12.681  1.9006 -1.9037 -1.1403
 6348TIP3   OH243238   2.938   3.554  12.485  0.0629  0.4044  0.4323
 6348TIP3    H143239   2.964   3.474  12.530  0.7944  1.4079  1.8779
 6348TIP3    H243240   2.936   3.621  12.554  0.7212  1.9114 -0.9373
 6349TIP3   OH243241   0.838   1.499  12.682 -0.5250  0.6620 -0.0291
 6349TIP3    H143242   0.908   1.440  12.656 -0.9261 -0.5312  1.4814
 6349TIP3    H243243   0.858   1.581  12.637  1.5007  0.1791 -0.0953
 6350TIP3   OH243244   1.735   2.309  14.089 -0.6097 -0.6965  0.7333
 6350TIP3    H143245   1.690   2.224  14.087 -1.7351 -0.1831  2.1943
 6350TIP3    H243246   1.827   2.287  14.103 -0.8290 -1.6777  0.7407
 6351TIP3   OH243247   6.468   1.299  11.307 -0.0003  0.2049  0.0437
 6351TIP3    H143248   6.384   1.298  11.261 -0.7159  1.1106  1.2675
 6351TIP3    H243249   6.477   1.389  11.339  1.3313  0.0595  0.1417
 6352TIP3   OH243250   6.710   1.708  11.700 -0.0374  0.0113 -0.4819
 6352TIP3    H143251   6.674   1.758  11.627 -2.5192  0.5060  0.9726
 6352TIP3    H243252   6.763   1.640  11.659 -1.9447 -0.1906 -2.7733
 6353TIP3   OH243253   5.895   4.387  11.886 -0.2414 -0.2373  0.0390
 6353TIP3    H143254   5.926   4.297  11.873  0.4328 -0.2305  1.3991
 6353TIP3    H243255   5.937   4.437  11.815  0.4901 -0.7558  0.0895
 6354TIP3   OH243256   7.175   1.662  13.275 -0.4237 -0.7099 -0.3398
 6354TIP3    H143257   7.194   1.569  13.291 -0.1970 -0.3350  1.8414
 6354TIP3    H243258   7.102   1.682  13.333 -0.0623  0.6162 -0.3105
 6355TIP3   OH243259   6.472   6.479  11.179  0.9528  0.0885 -1.0150
 6355TIP3    H143260   6.461   6.565  11.137  2.2809  0.6290 -0.3143
 6355TIP3    H243261   6.561   6.453  11.156  0.4610 -1.2867 -1.4943
 6356TIP3   OH243262   4.920   6.613  12.653  0.0128  0.0167 -0.5958
 6356TIP3    H143263   4.967   6.605  12.570  0.8455  0.5839 -0.1910
 6356TIP3    H243264   4.892   6.705  12.657  0.1421  0.0415 -0.1624
 6357TIP3   OH243265   1.119   5.618  10.394  0.3462  0.4968  0.3840
 6357TIP3    H143266   1.031   5.621  10.355  0.7588 -1.2270 -0.7791
 6357TIP3    H243267   1.109   5.663  10.478 -1.8114 -0.2261  0.5851
 6358TIP3   OH243268   1.601   6.534  10.304  0.6645 -0.3953  0.4404
 6358TIP3    H143269   1.632   6.457  10.257  1.2596  0.3966 -0.4945
 6358TIP3    H243270   1.517   6.555  10.263  0.7001 -0.3107  0.4095
 6359TIP3   OH243271   0.896   5.749  11.247 -0.2735  0.0541 -0.1480
 6359TIP3    H143272   0.884   5.673  11.190  1.3273 -0.4407  0.1402
 6359TIP3    H243273   0.989   5.769  11.242 -0.7120  2.3163 -0.5899
 6360TIP3   OH243274   3.154   6.890  12.058 -0.3177  0.3825 -0.0946
 6360TIP3    H143275   3.076   6.917  12.009 -0.6693 -2.2881 -1.2279
 6360TIP3    H243276   3.183   6.810  12.014  2.0381  0.3104  1.4062
 6361TIP3   OH243277   7.134   2.129  12.649  0.1704 -0.2482 -0.1031
 6361TIP3    H143278   7.146   2.196  12.717  0.7433 -2.4559  2.1423
 6361TIP3    H243279   7.041   2.132  12.629  0.2311  1.3783 -0.2899
 6362TIP3   OH243280   0.467   1.287  11.419  0.1366  0.9153  0.1044
 6362TIP3    H143281   0.456   1.246  11.333  1.6771 -0.9965  0.7121
 6362TIP3    H243282   0.379   1.298  11.452 -0.4482  0.7583 -1.3232
 6363TIP3   OH243283   4.884   1.054  10.925 -0.1974 -0.0969 -0.3225
 6363TIP3    H143284   4.921   1.004  10.998 -1.9349 -0.4423  0.3801
 6363TIP3    H243285   4.812   0.999  10.894  1.5208 -0.7843 -3.4715
 6364TIP3   OH243286   6.946   5.273  12.007 -0.6211  0.3151  0.0652
 6364TIP3    H143287   6.929   5.367  12.013  0.0126  0.5495 -1.2619
 6364TIP3    H243288   7.010   5.255  12.075 -2.2045  0.4356  1.6462
 6365TIP3   OH243289   6.783   4.367  11.704 -0.4498  0.2577  0.0617
 6365TIP3    H143290   6.832   4.419  11.768 -0.0388  1.4992 -1.2142
 6365TIP3    H243291   6.810   4.402  11.619 -0.7164 -1.5797 -0.8288
 6366TIP3   OH243292   5.475   3.830  11.029 -0.0335 -0.5114 -0.5919
 6366TIP3    H143293   5.514   3.750  11.064  0.0283  0.2842  1.3199
 6366TIP3    H243294   5.381   3.812  11.030 -0.2872  0.3707  2.6903
 6367TIP3   OH243295   0.794   5.951  10.446 -0.3878 -0.3223 -0.0448
 6367TIP3    H143296   0.731   5.980  10.512 -0.0654 -0.4067  0.3027
 6367TIP3    H243297   0.753   5.875  10.405 -1.4072  0.8078 -1.2127
 6368TIP3   OH243298   4.642   1.087  12.205 -0.0671 -0.1931 -0.3366
 6368TIP3    H143299   4.657   1.080  12.111 -0.5625  1.3084 -0.5560
 6368TIP3    H243300   4.556   1.128  12.212 -0.7417 -1.6969  0.8036
 6369TIP3   OH243301   3.466   5.495  12.088 -0.3037  0.5226 -0.0072
 6369TIP3    H143302   3.456   5.401  12.107 -1.6159  0.3986 -1.1517
 6369TIP3    H243303   3.561   5.510  12.089  0.0330 -1.1716 -1.3840
 6370TIP3   OH243304   3.027   6.542  11.696  0.1550 -0.8746 -0.4543
 6370TIP3    H143305   2.981   6.614  11.740 -1.3835 -1.6890 -0.6879
 6370TIP3    H243306   3.060   6.487  11.767  0.6915 -0.3499 -0.2884
 6371TIP3   OH243307   3.943   4.314  11.084  0.3813  0.0127 -0.0960
 6371TIP3    H143308   3.967   4.298  11.176  1.2555  1.1516 -0.0996
 6371TIP3    H243309   3.952   4.409  11.073  0.2302 -0.1018 -1.3412
 6372TIP3   OH243310   2.375   0.869  13.168 -0.3346  0.6608  0.0894
 6372TIP3    H143311   2.347   0.778  13.181 -0.0208  0.3204 -1.3860
 6372TIP3    H243312   2.471   0.864  13.163 -0.3802  0.7144 -2.0250
 6373TIP3   OH243313   5.486   2.630  12.502  0.0826  0.3953 -0.2164
 6373TIP3    H143314   5.409   2.684  12.486 -0.1979  0.2974  0.7841
 6373TIP3    H243315   5.557   2.692  12.519 -0.4541  0.4776  1.9447
 6374TIP3   OH243316   5.659   1.167  12.387 -0.2348  0.0275 -0.5012
 6374TIP3    H143317   5.728   1.117  12.430  0.2028 -0.4694 -1.7204
 6374TIP3    H243318   5.673   1.257  12.415  1.8916  0.2087 -1.8732
 6375TIP3   OH243319   5.587   4.124  11.915  0.0259 -0.1021 -0.2066
 6375TIP3    H143320   5.602   4.079  11.832  1.8772  0.7971 -0.4119
 6375TIP3    H243321   5.674   4.151  11.943 -0.7596  1.1283  1.1629
 6376TIP3   OH243322   4.867   5.096  12.743 -0.8093 -0.4723 -0.2669
 6376TIP3    H143323   4.883   5.042  12.665 -1.3192 -0.7118 -0.2095
 6376TIP3    H243324   4.772   5.093  12.755 -0.6785 -1.0739  0.8020
 6377TIP3   OH243325   3.753   3.873  12.816  0.1506 -0.4526  0.5396
 6377TIP3    H143326   3.764   3.892  12.722 -1.4278 -1.4162  0.1419
 6377TIP3    H243327   3.831   3.822  12.838 -0.2499 -1.6355 -0.6543
 6378TIP3   OH243328   3.509   6.504  12.098  0.1454 -0.1008 -0.1091
 6378TIP3    H143329   3.551   6.516  12.013 -1.3291  2.3058 -0.5921
 6378TIP3    H243330   3.555   6.565  12.156  0.7898 -1.3467  0.7402
 6379TIP3   OH243331   2.121   2.150  10.640 -0.5473 -0.0719  0.3295
 6379TIP3    H143332   2.196   2.168  10.697  1.2491  1.8359 -2.3945
 6379TIP3    H243333   2.136   2.062  10.606  0.1673  0.0792  0.2497
 6380TIP3   OH243334   5.907   1.560  11.554  0.3109 -0.2930 -0.0297
 6380TIP3    H143335   5.889   1.563  11.460  2.2975 -0.4917 -0.4445
 6380TIP3    H243336   5.879   1.472  11.581  0.3033 -0.4558 -0.5553
 6381TIP3   OH243337   1.774   0.319  12.449 -0.0191 -0.5570  0.4660
 6381TIP3    H143338   1.812   0.407  12.445 -1.0442 -0.1011 -2.5899
 6381TIP3    H243339   1.849   0.260  12.450  0.6819  0.3045  2.1981
 6382TIP3   OH243340   1.253   6.899  12.560 -0.6787 -0.1322 -0.4440
 6382TIP3    H143341   1.226   6.978  12.607  0.7507  0.1316 -0.0408
 6382TIP3    H243342   1.293   6.844  12.626  0.2386 -0.2833 -1.1150
 6383TIP3   OH243343   0.975   4.656  10.387 -0.2780  0.2800 -0.0230
 6383TIP3    H143344   0.989   4.626  10.297 -1.3977  1.9134 -0.7960
 6383TIP3    H243345   1.046   4.616  10.437  0.9640  0.1068 -1.8168
 6384TIP3   OH243346   4.413   5.103  11.624  0.1967 -0.4877  0.2283
 6384TIP3    H143347   4.428   5.043  11.697  1.3358 -1.5417 -0.8423
 6384TIP3    H243348   4.342   5.063  11.574 -0.2634 -0.0038  0.4777
 6385TIP3   OH243349   3.729   6.575  12.602  0.6290  0.3490 -0.0436
 6385TIP3    H143350   3.798   6.632  12.567  0.1231  1.2715  0.4335
 6385TIP3    H243351   3.752   6.564  12.694 -0.0405  0.9382  0.1969
 6386TIP3   OH243352   0.004   7.298  12.263  0.0478  0.0407 -0.5972
 6386TIP3    H143353  -0.055   7.239  12.216 -1.5216 -0.6488  2.0632
 6386TIP3    H243354   0.057   7.337  12.194 -2.5122 -0.4040 -3.0232
 6387TIP3   OH243355   2.951   5.180  12.038 -0.2382 -0.1871 -0.3192
 6387TIP3    H143356   2.867   5.135  12.042  0.1685 -1.4252 -3.3777
 6387TIP3    H243357   3.016   5.111  12.043  0.5063  0.4285 -1.1290
 6388TIP3   OH243358   0.645   3.239  10.911 -0.4801  0.5268 -0.2938
 6388TIP3    H143359   0.664   3.216  11.002  0.3261 -1.3820 -0.8988
 6388TIP3    H243360   0.694   3.320  10.896 -0.2155  0.5895  0.8336
 6389TIP3   OH243361   1.491   3.865  12.061  0.4130 -0.2619 -0.5462
 6389TIP3    H143362   1.411   3.865  12.009  0.6655 -1.4500 -0.9686
 6389TIP3    H243363   1.461   3.868  12.152 -0.0900 -0.1798 -0.7118
 6390TIP3   OH243364   3.777   1.382  11.139  0.5072 -0.2110  0.6446
 6390TIP3    H143365   3.783   1.447  11.070  1.3679 -0.9888 -0.0455
 6390TIP3    H243366   3.865   1.378  11.177  0.7092 -1.5585  0.0995
 6391TIP3   OH243367   0.267   2.534  11.199 -0.3532  0.0426  0.0517
 6391TIP3    H143368   0.196   2.573  11.147  0.9376  0.9692 -1.1004
 6391TIP3    H243369   0.332   2.604  11.205  1.0532 -1.2176 -0.0918
 6392TIP3   OH243370   0.651   1.099  11.501  0.2126 -0.3628  0.3524
 6392TIP3    H143371   0.591   1.174  11.500  0.4954 -0.0483  2.3126
 6392TIP3    H243372   0.633   1.055  11.584 -0.3234 -2.8364 -0.9845
 6393TIP3   OH243373   2.766   7.636  11.577 -0.0043  0.5649  0.2240
 6393TIP3    H143374   2.798   7.693  11.508 -0.1950  0.8633  0.3789
 6393TIP3    H243375   2.845   7.607  11.623  0.0784  0.9049  0.2993
 6394TIP3   OH243376   1.984   3.790  12.069  0.1201  0.0330  0.1256
 6394TIP3    H143377   2.048   3.851  12.033  0.7833 -0.3672  0.6150
 6394TIP3    H243378   1.937   3.756  11.992 -4.7615  5.7898 -0.1463
 6395TIP3   OH243379   6.520   5.678  11.908 -0.1590 -0.0746  0.6537
 6395TIP3    H143380   6.432   5.650  11.933  0.5187 -1.0219  2.1143
 6395TIP3    H243381   6.563   5.698  11.991  0.2120  3.0288 -0.1549
 6396TIP3   OH243382   3.081   1.397  18.797  0.3822  0.8249 -0.1738
 6396TIP3    H143383   3.096   1.475  18.850 -1.6232  1.0750  0.1062
 6396TIP3    H243384   3.168   1.357  18.788  1.1009  1.8778  1.5462
 6397TIP3   OH243385   1.809   2.300  12.366 -0.0083 -0.2209  0.1979
 6397TIP3    H143386   1.828   2.388  12.336 -1.8674  0.2730  0.3577
 6397TIP3    H243387   1.744   2.312  12.436 -1.9946 -1.8061 -1.2712
 6398TIP3   OH243388   7.530   1.238  12.452 -0.4356 -0.5018 -0.3845
 6398TIP3    H143389   7.565   1.325  12.471 -0.4390 -0.3076 -1.2051
 6398TIP3    H243390   7.498   1.244  12.362 -2.1725 -0.8144  0.1757
 6399TIP3   OH243391   4.437   6.256  12.505  0.2484 -0.1344  0.7554
 6399TIP3    H143392   4.435   6.248  12.600  1.2400 -1.9866  0.6739
 6399TIP3    H243393   4.359   6.209  12.475  0.8320 -1.0431  0.6185
 6400TIP3   OH243394   1.604   3.882  10.430  0.0584  0.1708 -0.1212
 6400TIP3    H143395   1.595   3.978  10.429 -0.5243  0.1284 -1.2666
 6400TIP3    H243396   1.677   3.865  10.489  0.0565  1.3183  0.2310
 6401TIP3   OH243397   3.412   1.424  10.877  0.1593  0.0250  0.9316
 6401TIP3    H143398   3.446   1.405  10.965 -0.9231 -0.2463  1.3062
 6401TIP3    H243399   3.356   1.501  10.890 -1.4554 -1.0874  0.8493
 6402TIP3   OH243400   6.090   4.159  10.884  0.3627  0.1663  0.6406
 6402TIP3    H143401   5.999   4.173  10.855 -0.6054 -0.5758  3.0823
 6402TIP3    H243402   6.119   4.246  10.913  0.2930  0.3319  0.2203
 6403TIP3   OH243403   0.844   1.492  12.043 -0.2742  0.0991 -0.1799
 6403TIP3    H143404   0.869   1.518  12.132  1.3933  1.3580 -0.9712
 6403TIP3    H243405   0.884   1.406  12.030  3.2957  1.7449 -1.1531
 6404TIP3   OH243406   5.292   4.785  12.736  0.0587 -0.2175 -0.2344
 6404TIP3    H143407   5.332   4.815  12.818  0.6003  1.1449 -0.9561
 6404TIP3    H243408   5.252   4.864  12.699 -1.6847 -1.1757 -0.4599
 6405TIP3   OH243409   2.565   0.877  10.860 -0.0457  0.0061  0.3442
 6405TIP3    H143410   2.507   0.828  10.802  2.1450  0.8669 -2.8105
 6405TIP3    H243411   2.613   0.809  10.908  0.9881 -0.9651 -1.9258
 6406TIP3   OH243412   6.387   7.092  10.628  0.1579 -0.0424 -0.2629
 6406TIP3    H143413   6.419   7.178  10.598  0.2806 -0.1164 -0.3469
 6406TIP3    H243414   6.309   7.112  10.679 -0.6073  0.0114 -1.4300
 6407TIP3   OH243415   2.898   5.286  11.069 -0.1377  0.7380  0.1054
 6407TIP3    H143416   2.865   5.346  11.136  0.8252  0.4173  0.8949
 6407TIP3    H243417   2.956   5.340  11.015  0.0628  0.7220  0.3005
 6408TIP3   OH243418   1.975   2.734  12.124  1.3111 -0.2296  0.5028
 6408TIP3    H143419   1.961   2.641  12.105 -0.8283 -0.2067  1.5715
 6408TIP3    H243420   1.960   2.742  12.218 -0.2768  1.4272  0.1805
 6409TIP3   OH243421   4.048   3.291  11.295 -0.0012 -0.2449  0.0973
 6409TIP3    H143422   4.094   3.228  11.239 -0.3547 -2.5178  2.1960
 6409TIP3    H243423   4.116   3.324  11.354  0.8793  3.8033 -2.7313
 6410TIP3   OH243424   2.252   4.743  10.877 -0.2121  0.3278  0.1698
 6410TIP3    H143425   2.302   4.764  10.955  0.7870 -1.0333 -0.0599
 6410TIP3    H243426   2.308   4.682  10.828 -1.5960 -0.3161 -0.6862
 6411TIP3   OH243427   2.978   5.572  12.422 -0.6070 -0.2602  0.1566
 6411TIP3    H143428   2.939   5.510  12.361  0.4761 -0.8811  0.0721
 6411TIP3    H243429   3.036   5.519  12.476 -0.5918  0.4898  0.8949
 6412TIP3   OH243430   1.814   2.208  11.164  0.4099  0.3623  0.3849
 6412TIP3    H143431   1.776   2.185  11.249 -1.6019 -0.8720 -0.7543
 6412TIP3    H243432   1.802   2.302  11.157  0.1774  0.4059  1.2858
 6413TIP3   OH243433   0.324   7.221  11.321 -0.0767  0.3193  0.3939
 6413TIP3    H143434   0.361   7.149  11.271 -1.1771  0.3224 -0.4704
 6413TIP3    H243435   0.292   7.181  11.401 -0.8490 -0.2080 -0.1607
 6414TIP3   OH243436   3.038   4.867  13.306 -0.1616 -0.1180  0.5903
 6414TIP3    H143437   3.028   4.960  13.326  0.4278 -0.1775  1.1871
 6414TIP3    H243438   3.127   4.846  13.333 -0.0764 -0.7114 -0.1366
 6415TIP3   OH243439   5.298   2.487  11.297  0.0827 -0.3711  0.3572
 6415TIP3    H143440   5.254   2.509  11.378 -1.3069  0.3577 -0.5554
 6415TIP3    H243441   5.303   2.391  11.298  1.8606 -0.3240  2.1565
 6416TIP3   OH243442   0.883   4.903  10.671  0.2708  0.3645 -0.8309
 6416TIP3    H143443   0.857   4.812  10.653 -0.8557  0.9547 -2.3804
 6416TIP3    H243444   0.979   4.899  10.676  0.3131 -0.7543 -1.9090
 6417TIP3   OH243445   0.940   0.021  13.190  0.0349  0.0927 -0.1650
 6417TIP3    H143446   0.962   0.000  13.281  0.5614 -0.9132 -0.5013
 6417TIP3    H243447   0.865  -0.035  13.169  0.2041 -0.0229 -0.4797
 6418TIP3   OH243448   0.818   0.374  10.592 -0.2211  0.2124 -0.4205
 6418TIP3    H143449   0.808   0.465  10.562  2.0530  0.3582 -0.8696
 6418TIP3    H243450   0.757   0.324  10.537 -0.8667  1.3492 -0.7664
 6419TIP3   OH243451   1.374   5.425  11.365  0.0119  0.0114  0.0661
 6419TIP3    H143452   1.407   5.488  11.300  0.0579  1.3306  1.3149
 6419TIP3    H243453   1.280   5.441  11.368 -0.5189 -2.1898 -1.8486
 6420TIP3   OH243454   4.831   5.644  12.725 -0.1257  0.2824 -0.2774
 6420TIP3    H143455   4.837   5.657  12.820  0.5880 -0.2795 -0.2324
 6420TIP3    H243456   4.794   5.557  12.715  0.4357  0.0609 -0.4971
 6421TIP3   OH243457   5.703   4.249  12.400 -0.6383  0.2897 -0.1331
 6421TIP3    H143458   5.721   4.246  12.306 -0.8691 -0.1115 -0.1653
 6421TIP3    H243459   5.699   4.158  12.427  0.4186  0.4039  0.4668
 6422TIP3   OH243460   7.641   4.581  10.953 -0.0112 -0.6804 -0.0608
 6422TIP3    H143461   7.582   4.653  10.928  0.2626 -0.0553  1.0543
 6422TIP3    H243462   7.680   4.553  10.870 -1.2206 -0.5250 -0.7011
 6423TIP3   OH243463   0.702   7.505  12.254 -0.2520 -0.2304 -0.2812
 6423TIP3    H143464   0.631   7.548  12.205  0.0335  0.2411 -0.2874
 6423TIP3    H243465   0.736   7.439  12.193 -0.9847 -0.7739 -0.1113
 6424TIP3   OH243466   1.974   1.247  10.832  0.0201 -0.2371  0.1630
 6424TIP3    H143467   2.059   1.280  10.859  0.4414 -0.0693 -1.2762
 6424TIP3    H243468   1.949   1.302  10.758 -1.7238  0.2349  1.0362
 6425TIP3   OH243469   6.783   4.977  12.814  0.1276  0.1651  0.3034
 6425TIP3    H143470   6.877   4.981  12.793 -0.1427  3.1433 -0.8824
 6425TIP3    H243471   6.780   4.977  12.909  1.3161 -1.0964  0.3759
 6426TIP3   OH243472   5.404   3.745  10.640  0.6548  0.2956 -0.6464
 6426TIP3    H143473   5.397   3.650  10.651  0.1663  0.5347  1.4934
 6426TIP3    H243474   5.335   3.766  10.577  1.1214 -0.8096 -1.5733
 6427TIP3   OH243475   1.890   4.538  10.308  0.0301  0.0739  0.7052
 6427TIP3    H143476   1.924   4.450  10.288 -1.9862 -0.5887 -0.0712
 6427TIP3    H243477   1.862   4.532  10.399 -2.0909 -0.8177  0.0383
 6428TIP3   OH243478   1.129   7.129  10.818 -0.4982  0.9953  0.2406
 6428TIP3    H143479   1.143   7.056  10.757  1.2370 -0.2277  1.9555
 6428TIP3    H243480   1.068   7.093  10.883 -0.1179  1.2694  0.7532
 6429TIP3   OH243481   2.522   4.668  11.186 -0.2233 -0.0412  0.6123
 6429TIP3    H143482   2.435   4.707  11.174 -0.2255 -0.0172  0.7072
 6429TIP3    H243483   2.576   4.708  11.118 -0.3119 -0.1341  0.4869
 6430TIP3   OH243484   5.198   7.376  12.219  0.1002 -0.7721  0.3512
 6430TIP3    H143485   5.169   7.438  12.151 -0.5213 -1.2143  0.2066
 6430TIP3    H243486   5.117   7.335  12.250  0.5451 -1.8345  0.1398
 6431TIP3   OH243487   0.782   6.345  12.850 -0.0704  0.5315 -0.9074
 6431TIP3    H143488   0.734   6.289  12.789 -0.8981  0.0485  0.1724
 6431TIP3    H243489   0.851   6.288  12.885 -1.0575  0.0935  0.3680
 6432TIP3   OH243490   3.964   4.261  12.157  0.7268  0.2817 -0.5396
 6432TIP3    H143491   3.929   4.304  12.235 -0.9588 -0.0976 -1.0545
 6432TIP3    H243492   4.010   4.331  12.110  1.0067  0.7089  0.3491
 6433TIP3   OH243493   0.464   0.626  11.706  0.2034 -0.5508  0.2131
 6433TIP3    H143494   0.492   0.611  11.796 -1.4442 -1.5011  0.6041
 6433TIP3    H243495   0.428   0.715  11.707  0.5692 -0.4023  0.3862
 6434TIP3   OH243496   6.186   1.096  11.559  0.0148  0.2418  0.9684
 6434TIP3    H143497   6.115   1.037  11.533 -1.1579  0.7753  2.7944
 6434TIP3    H243498   6.222   1.056  11.638 -0.7465  1.8640  2.1886
 6435TIP3   OH243499   1.845   6.997  10.175  0.2927  0.1093 -0.0425
 6435TIP3    H143500   1.767   6.968  10.128  0.4493 -0.2077 -0.1025
 6435TIP3    H243501   1.810   7.044  10.251  0.0436 -0.2171  0.0467
 6436TIP3   OH243502   4.840   0.296  13.635 -0.0273  0.1678 -0.1154
 6436TIP3    H143503   4.828   0.316  13.542 -0.5069 -0.9684 -0.3163
 6436TIP3    H243504   4.934   0.302  13.649  0.1302 -0.4217 -0.8645
 6437TIP3   OH243505   4.324   5.820  11.353 -0.0199 -0.0724 -0.0744
 6437TIP3    H143506   4.416   5.804  11.332  0.0051 -0.3397  0.2221
 6437TIP3    H243507   4.310   5.772  11.434 -0.7738 -1.1263 -0.8059
 6438TIP3   OH243508   2.772   6.771  12.502 -0.4571 -0.2440 -0.2453
 6438TIP3    H143509   2.784   6.678  12.521 -1.0232 -0.8858 -2.7114
 6438TIP3    H243510   2.844   6.794  12.444 -0.0708  1.0179  0.6775
 6439TIP3   OH243511   2.995   2.543  13.089 -0.0648  0.4694  0.4919
 6439TIP3    H143512   2.992   2.628  13.045  1.7411 -0.7625 -2.3144
 6439TIP3    H243513   2.912   2.501  13.066  0.2050  0.4436 -0.4795
 6440TIP3   OH243514   1.859   0.929  12.133  0.6623 -0.3406  0.1756
 6440TIP3    H143515   1.861   1.009  12.080  1.1781  0.0890  0.8215
 6440TIP3    H243516   1.932   0.877  12.099  0.4938 -0.4228 -0.0662
 6441TIP3   OH243517   6.662   6.889  12.557 -0.1400 -0.2912  0.0290
 6441TIP3    H143518   6.613   6.970  12.543  2.0112  1.1186  0.3280
 6441TIP3    H243519   6.726   6.910  12.625  2.0609 -1.4864 -1.5462
 6442TIP3   OH243520   3.006   4.635  12.003 -0.6792  0.3261  0.3673
 6442TIP3    H143521   2.963   4.680  12.076  0.7224 -0.2412  1.5881
 6442TIP3    H243522   2.934   4.605  11.948 -1.8745 -0.6028  2.3354
 6443TIP3   OH243523   2.855   3.335  12.880 -0.3138 -1.0009 -0.1825
 6443TIP3    H143524   2.780   3.383  12.916  2.7636  2.0909  2.8703
 6443TIP3    H243525   2.865   3.259  12.937  0.0423 -0.2505  0.7863
 6444TIP3   OH243526   1.009   3.891  10.718  0.0020 -0.2112  0.5614
 6444TIP3    H143527   1.104   3.881  10.717 -0.0533 -1.0964  1.8319
 6444TIP3    H243528   0.984   3.868  10.807 -1.3967  0.1848  0.2895
 6445TIP3   OH243529   5.972   6.586  12.697 -0.8056 -0.2753 -0.4201
 6445TIP3    H143530   6.043   6.526  12.676  2.7523  2.5992  2.2147
 6445TIP3    H243531   5.943   6.559  12.784  0.2457  1.1726  0.4232
 6446TIP3   OH243532   3.228   5.179  12.153 -0.4226 -0.2105 -0.5699
 6446TIP3    H143533   3.278   5.192  12.073  1.1759 -1.2978  0.1900
 6446TIP3    H243534   3.215   5.267  12.188  2.2755  0.0720 -0.0772
 6447TIP3   OH243535   2.710   1.507  13.433  0.6367  0.1899 -0.3998
 6447TIP3    H143536   2.707   1.413  13.453  0.5813  0.2267 -0.2290
 6447TIP3    H243537   2.689   1.513  13.340  0.5748  0.0382 -0.3954
 6448TIP3   OH243538   1.230   4.464  10.401  0.0686  0.0089 -0.8414
 6448TIP3    H143539   1.265   4.381  10.367  1.2197 -0.3068  0.9332
 6448TIP3    H243540   1.303   4.526  10.393 -0.8367  0.9334 -2.3072
 6449TIP3   OH243541   5.929   2.074  13.146  0.0592  0.6866 -0.0851
 6449TIP3    H143542   5.842   2.042  13.120 -0.0828  1.5621 -0.7586
 6449TIP3    H243543   5.953   2.020  13.221 -0.5160 -0.4224 -0.6654
 6450TIP3   OH243544   5.914   2.775  11.892  0.2199 -0.2126 -0.4057
 6450TIP3    H143545   5.930   2.869  11.881 -0.1452 -0.1513 -0.4483
 6450TIP3    H243546   5.949   2.735  11.813 -0.3747 -0.0178 -0.7711
 6451TIP3   OH243547   1.761   2.492  11.198 -0.1447  0.1283  0.2133
 6451TIP3    H143548   1.780   2.584  11.218 -0.6672  0.3152 -0.1224
 6451TIP3    H243549   1.775   2.484  11.104  0.2639 -0.2337  0.3001
 6452TIP3   OH243550   5.403   7.172  11.166 -0.1898 -0.5651 -0.2842
 6452TIP3    H143551   5.435   7.248  11.214 -1.6295 -0.8107  1.1804
 6452TIP3    H243552   5.479   7.139  11.119  0.9549  0.5468  0.7185
 6453TIP3   OH243553   7.511   6.554  12.922  0.2959  0.1774  0.1734
 6453TIP3    H143554   7.481   6.497  12.993  1.3579 -0.4076  0.1709
 6453TIP3    H243555   7.605   6.564  12.938  0.2910  1.1735 -0.3663
 6454TIP3   OH243556   6.839   5.715  11.545  0.0278 -0.8001  0.1176
 6454TIP3    H143557   6.789   5.641  11.580  1.4196 -1.6981  0.2582
 6454TIP3    H243558   6.894   5.744  11.618 -0.9215  0.7901  0.2503
 6455TIP3   OH243559   0.792   1.680  11.238 -0.1294  0.3581  0.7840
 6455TIP3    H143560   0.839   1.699  11.319 -0.8372 -0.9030  1.5364
 6455TIP3    H243561   0.751   1.595  11.254  0.5332 -0.4071 -1.2797
 6456TIP3   OH243562   7.671   2.573  12.118  0.0570  0.5104 -0.3337
 6456TIP3    H143563   7.656   2.645  12.179 -1.2713  0.7846 -0.9489
 6456TIP3    H243564   7.603   2.509  12.139 -1.1517  1.0980 -2.2140
 6457TIP3   OH243565   3.988   5.150  12.626 -0.2010  0.6077  0.2408
 6457TIP3    H143566   4.066   5.127  12.576 -0.3012  1.7595 -0.4830
 6457TIP3    H243567   4.018   5.153  12.717  0.2037 -0.5823  0.1586
 6458TIP3   OH243568   4.523   7.015  13.009  0.1244 -0.1759 -0.3601
 6458TIP3    H143569   4.605   7.064  13.005  0.2165  0.0484  2.3722
 6458TIP3    H243570   4.455   7.083  13.015 -0.1279 -0.3676 -1.0152
 6459TIP3   OH243571   4.068   0.160  11.413  0.1500  0.3449  0.5768
 6459TIP3    H143572   4.044   0.091  11.351  1.0107  0.2541  0.3361
 6459TIP3    H243573   4.102   0.113  11.489 -0.1577  0.4817  0.8019
 6460TIP3   OH243574   7.514   4.339  13.097  0.7024 -0.6750 -0.1936
 6460TIP3    H143575   7.567   4.336  13.177 -1.4672  0.7787  1.4330
 6460TIP3    H243576   7.533   4.425  13.060  0.6930 -0.8004 -0.4872
 6461TIP3   OH243577   7.115   4.906  12.213 -0.1160  0.7461  0.2547
 6461TIP3    H143578   7.153   4.926  12.128 -0.2261  1.5020  0.3749
 6461TIP3    H243579   7.034   4.859  12.194 -0.1832  0.9899 -0.0641
 6462TIP3   OH243580   5.794   5.840  11.699  1.2870 -0.0122 -0.2373
 6462TIP3    H143581   5.864   5.882  11.649  3.0927 -0.5649  1.6639
 6462TIP3    H243582   5.732   5.911  11.718  2.3763  0.9847 -0.2501
 6463TIP3   OH243583   1.540   6.572  10.562  0.1216 -0.8231 -0.1417
 6463TIP3    H143584   1.533   6.522  10.480 -3.4714  0.4120 -0.7671
 6463TIP3    H243585   1.455   6.560  10.604  0.5044  1.7118  1.5199
 6464TIP3   OH243586   1.660   6.996  11.774 -0.0582 -0.4225 -0.2471
 6464TIP3    H143587   1.616   7.065  11.724 -0.6201 -1.3136 -1.0106
 6464TIP3    H243588   1.590   6.936  11.798  0.2536 -0.1732  1.3671
 6465TIP3   OH243589   2.523   3.065  11.288  0.2369  0.5613  0.4317
 6465TIP3    H143590   2.541   2.975  11.263 -1.8391  0.2863 -0.3176
 6465TIP3    H243591   2.529   3.066  11.383  0.8114 -0.2221  0.4088
 6466TIP3   OH243592   6.353   1.790  12.636 -0.2355 -0.0890 -0.6291
 6466TIP3    H143593   6.310   1.786  12.551 -0.6885  0.0134 -0.4070
 6466TIP3    H243594   6.352   1.883  12.659 -1.2701 -0.2575  0.0679
 6467TIP3   OH243595   2.107   1.385  12.731  0.2418  0.1760 -0.4543
 6467TIP3    H143596   2.154   1.325  12.789  1.9775  0.3107 -1.6512
 6467TIP3    H243597   2.099   1.338  12.648  0.9601  1.2990 -1.1820
 6468TIP3   OH243598   3.568   4.826  12.137  0.6969 -0.5058  0.3209
 6468TIP3    H143599   3.576   4.733  12.157 -0.6227 -0.4638  1.2204
 6468TIP3    H243600   3.484   4.833  12.092  0.2725  0.3697  1.2098
 6469TIP3   OH243601   2.583   6.609  10.540 -0.4724  0.6018 -0.3638
 6469TIP3    H143602   2.532   6.689  10.552 -0.9518  0.0556  1.5915
 6469TIP3    H243603   2.517   6.539  10.537  0.0545  0.0002  1.0408
 6470TIP3   OH243604   1.181   5.237  11.137  0.2538  0.0191  0.5399
 6470TIP3    H143605   1.255   5.287  11.168  0.9497 -1.4500  1.3629
 6470TIP3    H243606   1.199   5.147  11.165 -2.0394 -0.3183  1.1620
 6471TIP3   OH243607   3.286   2.715  11.198 -0.3955 -0.4299  0.0071
 6471TIP3    H143608   3.235   2.680  11.125 -0.3351  1.2116 -0.8603
 6471TIP3    H243609   3.221   2.756  11.256 -0.2267  0.4169 -0.3840
 6472TIP3   OH243610   1.159   4.746  12.189  0.0906 -0.1289 -0.2327
 6472TIP3    H143611   1.198   4.671  12.235  2.7328  1.4382  0.2983
 6472TIP3    H243612   1.126   4.709  12.107 -0.2643 -2.1462  0.7505
 6473TIP3   OH243613   4.615   4.486  11.784 -0.3564 -0.1721  0.1791
 6473TIP3    H143614   4.700   4.444  11.800  1.0458  2.3044 -0.1311
 6473TIP3    H243615   4.576   4.497  11.871  0.7714  0.7299  0.6058
 6474TIP3   OH243616   6.583   0.616  12.863  0.4938  0.0165 -0.3025
 6474TIP3    H143617   6.678   0.622  12.852  0.2701  1.4333 -1.9638
 6474TIP3    H243618   6.556   0.551  12.798  0.1542  1.1117 -1.2940
 6475TIP3   OH243619   4.959   1.741  12.548 -0.1378  0.1255  0.2597
 6475TIP3    H143620   4.878   1.785  12.572  0.0342 -0.7432  2.6776
 6475TIP3    H243621   5.016   1.811  12.516 -1.3804  0.9291 -0.2594
 6476TIP3   OH243622   4.205   6.272  12.341 -0.3994 -0.0938  0.2452
 6476TIP3    H143623   4.267   6.306  12.276  0.8981 -0.0806  1.4593
 6476TIP3    H243624   4.194   6.180  12.317  1.8228 -0.6788  1.2849
 6477TIP3   OH243625   5.921   3.380  13.017  0.3695 -0.6204 -0.5621
 6477TIP3    H143626   6.014   3.387  12.995  0.0148  1.0372 -1.6695
 6477TIP3    H243627   5.905   3.453  13.077 -0.0125 -1.5285  0.4751
 6478TIP3   OH243628   0.269   2.543  12.280  0.1830  0.4298  0.1537
 6478TIP3    H143629   0.321   2.546  12.200  0.4815  1.6998  0.3752
 6478TIP3    H243630   0.179   2.535  12.250  0.3640 -0.0638 -0.2789
 6479TIP3   OH243631   5.980   2.003  11.986  0.0328  0.2400  0.2283
 6479TIP3    H143632   5.957   1.910  11.996  0.1657  0.1291 -0.4126
 6479TIP3    H243633   6.023   2.026  12.068 -0.9755  0.0392  0.8312
 6480TIP3   OH243634   6.601   3.761  12.404  0.0580  0.3272 -0.0917
 6480TIP3    H143635   6.611   3.852  12.432  0.6100  0.3578 -0.3742
 6480TIP3    H243636   6.685   3.738  12.364  0.3516 -0.6777  1.0235
 6481TIP3   OH243637   0.320   0.970  12.456  0.0293 -0.1151  0.4676
 6481TIP3    H143638   0.357   1.048  12.414  0.4496  0.1657  1.3351
 6481TIP3    H243639   0.263   1.005  12.526  0.1389 -0.5790  0.7966
 6482TIP3   OH243640   3.313   2.596  12.851 -0.3415  0.7172 -0.0350
 6482TIP3    H143641   3.323   2.687  12.879 -0.8646  0.1245  2.2702
 6482TIP3    H243642   3.220   2.577  12.865 -0.1073 -0.3616  0.1185
 6483TIP3   OH243643   5.794   5.589  11.824  0.2752  0.5528  0.1591
 6483TIP3    H143644   5.715   5.565  11.776  1.8666 -0.3798 -2.2241
 6483TIP3    H243645   5.812   5.679  11.799  0.3152  0.5470  0.1661
 6484TIP3   OH243646   3.168   5.281  12.812  0.0782 -0.2009 -0.3931
 6484TIP3    H143647   3.145   5.308  12.901 -0.2465 -0.9293 -0.2457
 6484TIP3    H243648   3.162   5.186  12.813  1.4725 -0.3173 -0.8242
 6485TIP3   OH243649   4.534   5.480  12.082 -0.3330  0.2689  0.2377
 6485TIP3    H143650   4.443   5.496  12.105 -0.7864  0.9882 -1.8731
 6485TIP3    H243651   4.532   5.401  12.028  0.1190  0.9398 -0.7810
 6486TIP3   OH243652   2.552   4.639  11.459  0.1469  0.5654  0.0215
 6486TIP3    H143653   2.571   4.646  11.366 -1.5163  0.0653 -0.3846
 6486TIP3    H243654   2.468   4.683  11.470  0.2093  0.4130  1.2550
 6487TIP3   OH243655   5.253   5.617  12.459  0.0297 -0.0026 -0.3985
 6487TIP3    H143656   5.168   5.574  12.453  0.8229 -1.4759 -2.0583
 6487TIP3    H243657   5.300   5.571  12.529 -1.0783  1.9833  1.7968
 6488TIP3   OH243658   1.531   0.580  10.682  0.2852  0.0690  0.1181
 6488TIP3    H143659   1.496   0.659  10.641  2.5639  0.6606 -0.8305
 6488TIP3    H243660   1.475   0.510  10.650 -0.9967  1.1151 -0.0353
 6489TIP3   OH243661   4.421   2.552  11.035 -0.1010  0.5271  0.0131
 6489TIP3    H143662   4.512   2.579  11.048 -0.7164  2.3904  0.7200
 6489TIP3    H243663   4.378   2.628  10.997 -1.4397 -0.2455 -0.0973
 6490TIP3   OH243664   4.714   2.422  11.330 -0.2304  0.0844  0.4792
 6490TIP3    H143665   4.776   2.361  11.289 -1.0253 -1.0779  0.9616
 6490TIP3    H243666   4.632   2.373  11.336 -0.3817  0.4904  2.6884
 6491TIP3   OH243667   7.499   6.049  13.236 -0.4346 -0.3657  0.0087
 6491TIP3    H143668   7.415   6.081  13.201 -1.1838 -0.3824  1.6649
 6491TIP3    H243669   7.479   5.960  13.267  0.7670 -1.1958 -1.4959
 6492TIP3   OH243670   2.552   7.089  11.163  0.1758  0.6714  0.1068
 6492TIP3    H143671   2.612   7.039  11.219  0.7947  0.9201 -0.3217
 6492TIP3    H243672   2.469   7.088  11.210  0.3916 -0.0809  0.4888
 6493TIP3   OH243673   1.791   1.159  12.496 -0.4447  0.5385  0.5032
 6493TIP3    H143674   1.852   1.090  12.473  0.0765  1.0166  0.4405
 6493TIP3    H243675   1.814   1.233  12.440  0.0327  1.2902  1.6567
 6494TIP3   OH243676   7.574   5.269  12.481 -0.2356 -0.0350 -0.0895
 6494TIP3    H143677   7.641   5.255  12.414  0.9569  1.0509  0.8301
 6494TIP3    H243678   7.596   5.207  12.551 -0.7878 -0.3526 -0.1840
 6495TIP3   OH243679   0.358   0.359  10.511  0.3295  0.4861 -0.2340
 6495TIP3    H143680   0.347   0.363  10.416  0.2409 -0.4289 -0.2661
 6495TIP3    H243681   0.394   0.272  10.528 -1.6487 -0.1822  0.7652
 6496TIP3   OH243682   1.402   0.008  12.134  0.5069  0.3227 -0.0555
 6496TIP3    H143683   1.354  -0.043  12.200 -0.0993  1.5330  0.4698
 6496TIP3    H243684   1.477  -0.046  12.112  0.0751 -0.6349  0.7536
 6497TIP3   OH243685   6.906   7.034  11.059 -0.4464 -0.3121 -0.4487
 6497TIP3    H143686   6.896   7.129  11.049  1.1924 -0.2053 -1.4295
 6497TIP3    H243687   6.999   7.021  11.077 -0.9937 -1.6170  1.7617
 6498TIP3   OH243688   7.508   3.327  12.258  0.4963  0.0605  0.3299
 6498TIP3    H143689   7.500   3.290  12.170  1.9799  0.8560 -0.1713
 6498TIP3    H243690   7.417   3.347  12.283 -0.1678 -2.0789 -0.1254
 6499TIP3   OH243691   0.212   1.349  11.000 -0.1702  0.0276  0.2925
 6499TIP3    H143692   0.223   1.320  10.910 -0.7689 -1.1070  0.5624
 6499TIP3    H243693   0.128   1.313  11.027 -0.2324  0.7775  1.1408
 6500TIP3   OH243694   1.127   5.069  10.384  0.3417 -0.4117  0.6019
 6500TIP3    H143695   1.211   5.040  10.421  1.8524  1.9708 -0.7560
 6500TIP3    H243696   1.100   4.996  10.327  1.4203 -1.2540  1.1279
 6501TIP3   OH243697   3.613   4.072  12.376  0.3877 -0.1720  0.1226
 6501TIP3    H143698   3.580   4.024  12.300  0.3438 -0.0172  0.0431
 6501TIP3    H243699   3.707   4.081  12.361  0.4253 -0.3917  0.2262
 6502TIP3   OH243700   0.425   1.853  10.892 -0.6538 -0.2075 -0.1829
 6502TIP3    H143701   0.425   1.831  10.799 -0.2225  1.4515 -0.6100
 6502TIP3    H243702   0.465   1.940  10.896 -2.6268  0.6981  1.3130
 6503TIP3   OH243703   0.244   6.832  12.108  0.1390 -0.2703  0.2425
 6503TIP3    H143704   0.232   6.926  12.119 -2.4133 -0.5013  0.0600
 6503TIP3    H243705   0.318   6.823  12.049 -0.3293  1.6665 -0.6878
 6504TIP3   OH243706   4.679   5.433  13.129 -0.1114 -0.1791  0.0460
 6504TIP3    H143707   4.584   5.435  13.114 -0.1684  0.0514  0.4199
 6504TIP3    H243708   4.696   5.346  13.165 -0.1562 -0.2802 -0.1752
 6505TIP3   OH243709   5.857   4.092  13.195 -0.2722  0.4300  0.3462
 6505TIP3    H143710   5.866   4.170  13.140 -0.9274 -0.3902 -0.9554
 6505TIP3    H243711   5.773   4.054  13.170 -0.3173 -0.2843  1.5211
 6506TIP3   OH243712   1.347   6.235  10.989 -0.0496  0.0369 -0.0062
 6506TIP3    H143713   1.389   6.235  10.903 -1.1664 -1.1075 -0.5948
 6506TIP3    H243714   1.295   6.316  10.990  0.2723  0.2474 -0.2557
 6507TIP3   OH243715   3.008   0.133  11.892  0.1328 -0.3917  0.4744
 6507TIP3    H143716   2.999   0.189  11.814  0.2168 -1.2014 -0.1222
 6507TIP3    H243717   2.980   0.189  11.964 -0.9317  0.0585 -0.2612
 6508TIP3   OH243718   4.624   5.825  12.078 -0.3709 -0.2253 -0.7199
 6508TIP3    H143719   4.551   5.802  12.020 -1.1172  0.0633  0.0854
 6508TIP3    H243720   4.594   5.797  12.165  0.3611  0.1684 -0.3413
 6509TIP3   OH243721   0.121   0.394  11.099  0.2319  0.3909  0.7096
 6509TIP3    H143722   0.166   0.330  11.045 -3.1666 -0.8632 -0.9284
 6509TIP3    H243723   0.104   0.348  11.182 -2.2278 -1.0528 -0.4702
 6510TIP3   OH243724   1.919   2.685  13.122  0.3938  0.3777 -0.0030
 6510TIP3    H143725   1.884   2.774  13.114 -0.0497  0.3209  1.1958
 6510TIP3    H243726   1.892   2.656  13.209 -2.1584 -2.0848 -1.4643
 6511TIP3   OH243727   0.245   6.719  10.757 -0.1276 -0.0804 -0.0913
 6511TIP3    H143728   0.302   6.660  10.708 -0.0930  0.9433 -1.3343
 6511TIP3    H243729   0.229   6.792  10.697 -0.6139  0.9048  1.1969
 6512TIP3   OH243730   1.784   4.424  12.449 -0.2111 -0.0676  0.0509
 6512TIP3    H143731   1.851   4.492  12.456  0.8614 -1.0548 -0.2998
 6512TIP3    H243732   1.822   4.358  12.391 -0.8095 -1.4341  1.1359
 6513TIP3   OH243733   5.116   4.426  12.812 -0.3662  0.0795  0.3977
 6513TIP3    H143734   5.027   4.403  12.783 -0.3190 -1.6001  1.4612
 6513TIP3    H243735   5.150   4.480  12.741 -0.8482 -2.4550 -1.9779
 6514TIP3   OH243736   3.787   5.809  14.026 -0.0292  0.3916 -0.2153
 6514TIP3    H143737   3.869   5.767  13.999  0.2629 -0.0943  1.3261
 6514TIP3    H243738   3.726   5.790  13.955  0.7999 -0.4751 -0.7228
 6515TIP3   OH243739   0.435   0.430  11.204 -0.5206  0.4115  0.5946
 6515TIP3    H143740   0.444   0.515  11.160  0.3882  0.7239  1.3505
 6515TIP3    H243741   0.420   0.452  11.296  2.5036 -0.1862  1.3429
 6516TIP3   OH243742   7.113   5.615  10.888 -0.0487  0.1679 -0.5920
 6516TIP3    H143743   7.196   5.590  10.848  0.1625 -0.1065 -0.0025
 6516TIP3    H243744   7.056   5.638  10.815  0.6409  0.6529 -0.9796
 6517TIP3   OH243745   5.520   3.242  13.172  0.4563  0.0619 -0.3030
 6517TIP3    H143746   5.441   3.283  13.208  0.6624 -0.8645  1.3287
 6517TIP3    H243747   5.593   3.291  13.210  0.6736 -0.2426 -0.3170
 6518TIP3   OH243748   6.107   1.419  12.222  0.0298  0.0785 -0.0827
 6518TIP3    H143749   6.179   1.407  12.160  0.6241  1.7982  0.2372
 6518TIP3    H243750   6.139   1.383  12.304  0.4186  0.5714 -0.0163
 6519TIP3   OH243751   6.613   3.933  11.800  0.3378 -0.4392 -0.0131
 6519TIP3    H143752   6.674   3.900  11.734  0.5755 -0.3915  0.1809
 6519TIP3    H243753   6.578   4.014  11.762  0.6118 -0.3150 -0.0036
 6520TIP3   OH243754   5.679   1.483  12.136 -0.2474 -0.6281 -0.5808
 6520TIP3    H143755   5.614   1.415  12.153 -0.9346 -0.5289 -2.6065
 6520TIP3    H243756   5.760   1.435  12.118 -0.0048 -0.7853  0.8250
 6521TIP3   OH243757   3.429   3.085  11.027 -0.3667 -0.0044 -0.8166
 6521TIP3    H143758   3.516   3.102  10.992 -0.3652 -1.2822 -1.4613
 6521TIP3    H243759   3.432   3.121  11.116  0.7590  0.1054 -0.8853
 6522TIP3   OH243760   6.661   4.389  10.938  0.0061 -0.0350 -0.3088
 6522TIP3    H143761   6.725   4.392  10.867 -0.7580 -0.5170 -1.0420
 6522TIP3    H243762   6.704   4.433  11.012  0.5529  1.0962 -1.2778
 6523TIP3   OH243763   1.475   5.436  10.925  0.2963 -0.3291  0.0711
 6523TIP3    H143764   1.505   5.357  10.879  1.4271 -0.5918  1.2203
 6523TIP3    H243765   1.541   5.451  10.992  0.3761  1.9040 -0.4435
 6524TIP3   OH243766   1.559   1.669  10.697 -0.1890  0.2661 -0.7494
 6524TIP3    H143767   1.521   1.729  10.762 -2.1838 -1.7671  0.0914
 6524TIP3    H243768   1.498   1.673  10.623 -0.9790 -1.4522 -0.2466
 6525TIP3   OH243769   2.774   7.070  12.236 -0.3258 -0.3618  0.1717
 6525TIP3    H143770   2.813   7.157  12.242 -1.7368  0.3189  0.0002
 6525TIP3    H243771   2.823   7.026  12.167 -0.6778  0.9077 -0.9324
 6526TIP3   OH243772   0.783   5.094  13.118  0.2016 -0.0369  0.2037
 6526TIP3    H143773   0.716   5.121  13.055 -1.8795  0.3319  2.4109
 6526TIP3    H243774   0.772   4.999  13.125  1.8980 -0.3993 -1.4959
 6527TIP3   OH243775   1.278   3.403  12.291 -0.8485 -0.0238  0.0493
 6527TIP3    H143776   1.307   3.356  12.213 -1.6608  1.7636 -1.4152
 6527TIP3    H243777   1.190   3.433  12.269 -1.0065  0.7206  1.5746
 6528TIP3   OH243778   2.527   6.948  10.608 -0.2696  0.1011  0.6250
 6528TIP3    H143779   2.512   7.030  10.560  2.2989 -0.3453 -1.1332
 6528TIP3    H243780   2.439   6.915  10.627 -1.4227  1.2932 -2.1451
 6529TIP3   OH243781   7.442   6.133  10.534 -0.6866  0.1644  0.0467
 6529TIP3    H143782   7.515   6.122  10.474  0.0058 -0.7893  1.0246
 6529TIP3    H243783   7.395   6.210  10.501  0.5263  0.5652 -0.8227
 6530TIP3   OH243784   5.298   4.415  12.490 -0.1441  0.3767 -0.0249
 6530TIP3    H143785   5.243   4.343  12.520  1.2086  0.0780  1.9242
 6530TIP3    H243786   5.254   4.494  12.522  0.7601  0.1103  2.0303
 6531TIP3   OH243787   5.492   5.853  11.231 -0.1851 -0.2997 -0.3736
 6531TIP3    H143788   5.571   5.829  11.278  0.1574 -0.8899 -1.2280
 6531TIP3    H243789   5.516   5.930  11.181 -0.6109  0.4584  0.5523
 6532TIP3   OH243790   3.790   2.556  12.774 -0.2049 -0.1922  0.2619
 6532TIP3    H143791   3.817   2.619  12.840 -0.6157  0.5518 -0.2621
 6532TIP3    H243792   3.698   2.577  12.757 -0.7198 -1.7279  0.9633
 6533TIP3   OH243793   7.196   3.783  12.620 -0.0544 -0.2641  0.0846
 6533TIP3    H143794   7.188   3.866  12.667 -2.3355  0.1473 -0.9130
 6533TIP3    H243795   7.136   3.724  12.665  0.3175 -0.9045 -0.2406
 6534TIP3   OH243796   1.061   7.030  11.258  0.0893 -0.3187  0.8332
 6534TIP3    H143797   1.025   7.052  11.172  0.9364  0.0450  0.5575
 6534TIP3    H243798   1.092   6.940  11.249 -0.1344 -0.4006  0.8693
 6535TIP3   OH243799   7.239   5.925  12.033  0.3287  0.4385  0.6391
 6535TIP3    H143800   7.198   5.841  12.053 -0.4264  0.1738 -1.7800
 6535TIP3    H243801   7.253   5.965  12.119 -3.4854 -0.1676  1.7385
 6536TIP3   OH243802   1.097   2.118  12.206 -0.0581  0.1041 -0.8196
 6536TIP3    H143803   1.023   2.173  12.231  1.4581  1.2701  1.4553
 6536TIP3    H243804   1.063   2.063  12.135 -2.8980  0.9530 -0.2561
 6537TIP3   OH243805   1.813   5.525  10.692 -0.4545 -0.0058  0.3282
 6537TIP3    H143806   1.899   5.497  10.721 -0.1953  0.7012  0.2538
 6537TIP3    H243807   1.784   5.586  10.760 -0.9316 -0.2930  0.3892
 6538TIP3   OH243808   2.420   3.592  10.873 -0.3511  0.5597  0.3686
 6538TIP3    H143809   2.490   3.657  10.869 -0.1589  0.4538  1.5427
 6538TIP3    H243810   2.340   3.641  10.854 -0.0668  0.8811 -0.0026
 6539TIP3   OH243811   2.695   6.268  12.047  0.3691 -0.3919  0.0649
 6539TIP3    H143812   2.697   6.293  11.955 -0.1550 -0.3933  0.0497
 6539TIP3    H243813   2.692   6.351  12.095 -0.7911 -0.3983  0.0319
 6540TIP3   OH243814   3.578   2.275  11.008  0.5302  0.1635 -0.4181
 6540TIP3    H143815   3.661   2.230  10.997 -0.4791 -1.5350 -1.5616
 6540TIP3    H243816   3.555   2.306  10.919  0.1931  1.1079 -0.0232
 6541TIP3   OH243817   2.365   5.567  10.475 -0.4481  0.1246  0.4848
 6541TIP3    H143818   2.296   5.514  10.515 -0.4144 -0.1014  0.2512
 6541TIP3    H243819   2.401   5.618  10.547  1.9797 -2.8017  1.5448
 6542TIP3   OH243820   7.540   7.068  11.717 -0.2070 -0.3052  0.3322
 6542TIP3    H143821   7.546   7.106  11.805 -1.1153  1.0716 -0.1678
 6542TIP3    H243822   7.507   6.979  11.731 -1.8038  0.4033  1.3082
 6543TIP3   OH243823   4.508   7.594  11.513  0.4136  0.3216  0.2546
 6543TIP3    H143824   4.597   7.626  11.499  0.4365 -0.0984 -0.5899
 6543TIP3    H243825   4.509   7.559  11.602  1.1576  0.1120  0.1693
 6544TIP3   OH243826   6.314   6.523  10.709  0.0241 -0.2700 -0.0036
 6544TIP3    H143827   6.331   6.611  10.742 -0.8482  0.0444 -0.3451
 6544TIP3    H243828   6.341   6.465  10.780 -1.4784  0.3794  1.1544
 6545TIP3   OH243829   1.189   6.935  10.641  0.4162 -0.0931  0.2784
 6545TIP3    H143830   1.144   6.973  10.565 -0.3907  0.9611  1.2477
 6545TIP3    H243831   1.276   6.910  10.608 -0.5259 -1.3414 -1.4192
 6546TIP3   OH243832   5.101   1.585  12.323 -0.3693 -0.4631  0.2395
 6546TIP3    H143833   5.093   1.680  12.315  0.3822 -0.3989  0.1677
 6546TIP3    H243834   5.077   1.567  12.414 -1.5562 -0.3360 -0.0319
 6547TIP3   OH243835   2.741   7.059  11.752  0.4144  0.3298  0.0518
 6547TIP3    H143836   2.728   7.082  11.660  1.3973 -0.7898 -0.3799
 6547TIP3    H243837   2.800   7.126  11.786  0.1895  0.6419 -0.1626
 6548TIP3   OH243838   6.598   5.667  12.168 -0.3132  0.2373  0.1471
 6548TIP3    H143839   6.609   5.758  12.198  1.7719 -0.6978  2.6288
 6548TIP3    H243840   6.524   5.634  12.219  0.9139 -0.2948  1.6533
 6549TIP3   OH243841   2.956   1.250  11.943  0.2883 -0.3406  0.0859
 6549TIP3    H143842   2.987   1.340  11.956 -1.2480  0.0219  1.7497
 6549TIP3    H243843   2.924   1.223  12.030 -0.1053 -2.1725 -0.5768
 6550TIP3   OH243844   7.307   3.284  11.842  0.0332 -0.2111 -0.8101
 6550TIP3    H143845   7.365   3.326  11.778 -1.1379 -0.1497 -1.8693
 6550TIP3    H243846   7.240   3.241  11.789  0.1518 -1.8764  0.3251
 6551TIP3   OH243847   1.105   6.046  11.966 -0.3455  0.0005  0.2889
 6551TIP3    H143848   1.189   6.052  12.012 -0.3879  1.4856  0.2032
 6551TIP3    H243849   1.039   6.064  12.034 -0.4082  2.2601 -0.3152
 6552TIP3   OH243850   6.356   4.680  13.390 -0.1126 -0.1515 -0.7537
 6552TIP3    H143851   6.410   4.601  13.385 -1.2827 -0.8876 -3.4083
 6552TIP3    H243852   6.303   4.678  13.310 -1.5367  2.3633  0.0251
 6553TIP3   OH243853   3.374   7.608  11.746  0.6580 -0.2182  0.3399
 6553TIP3    H143854   3.430   7.543  11.789 -0.1626  0.3998  2.4574
 6553TIP3    H243855   3.431   7.683  11.730  1.1753 -0.7683 -0.4956
 6554TIP3   OH243856   2.102   4.291  10.770  0.1168 -0.3846 -0.0994
 6554TIP3    H143857   2.086   4.252  10.856 -0.3187 -0.4958 -0.2290
 6554TIP3    H243858   2.182   4.342  10.782 -1.1015  1.3857  0.9726
 6555TIP3   OH243859   6.260   2.931  13.188  0.2564 -0.0956  0.1600
 6555TIP3    H143860   6.199   3.005  13.186  1.3302  0.8175 -0.1186
 6555TIP3    H243861   6.238   2.881  13.109 -0.2298  0.1392  0.1367
 6556TIP3   OH243862   6.261   5.937  10.379  0.0848  0.3489  0.1779
 6556TIP3    H143863   6.333   5.881  10.409  0.0519  0.5075  0.5583
 6556TIP3    H243864   6.189   5.918  10.438  0.3381  1.4093  0.8600
 6557TIP3   OH243865   6.671   2.398  12.488 -0.3087  0.3364  0.3778
 6557TIP3    H143866   6.668   2.492  12.467 -0.4660  0.1927 -0.2767
 6557TIP3    H243867   6.662   2.355  12.403  0.4273 -0.2703  0.5994
 6558TIP3   OH243868   5.674   0.143  13.106  0.1251 -0.2675 -0.3867
 6558TIP3    H143869   5.747   0.167  13.049  0.1635 -1.0178 -0.6676
 6558TIP3    H243870   5.709   0.150  13.195  0.3661 -0.0877 -0.4944
 6559TIP3   OH243871   1.675   3.468  11.263  0.3689 -0.4362  0.8245
 6559TIP3    H143872   1.658   3.511  11.347  1.3986 -1.3715  1.5333
 6559TIP3    H243873   1.770   3.455  11.261  0.4460  0.1491 -0.7901
 6560TIP3   OH243874   1.585   2.285  12.758  0.1249 -0.4071  0.0748
 6560TIP3    H143875   1.670   2.323  12.735  0.4986 -2.0008 -1.3690
 6560TIP3    H243876   1.521   2.334  12.707  0.5450 -1.3400 -1.3867
 6561TIP3   OH243877   1.741   1.526  13.030 -0.3295  0.5167 -0.9428
 6561TIP3    H143878   1.673   1.480  13.080  0.5126  0.7076  0.4158
 6561TIP3    H243879   1.692   1.579  12.967 -1.4467  0.5676 -0.0715
 6562TIP3   OH243880   5.009   0.764  10.516  0.3065  0.2276  0.1840
 6562TIP3    H143881   5.100   0.755  10.542 -0.1811 -0.5154  1.7627
 6562TIP3    H243882   4.964   0.693  10.561 -0.9900  0.3248 -0.8991
 6563TIP3   OH243883   2.634   3.750  11.812  0.1706 -0.1161  0.4339
 6563TIP3    H143884   2.628   3.669  11.863 -0.7336  0.3377  1.0754
 6563TIP3    H243885   2.684   3.809  11.868  0.1218  0.0329  0.3202
 6564TIP3   OH243886   3.542   3.742  11.786  0.6335 -0.2593  0.1706
 6564TIP3    H143887   3.521   3.749  11.693  1.9772  0.4484 -0.1032
 6564TIP3    H243888   3.608   3.810  11.801  0.1309 -0.0727  1.7422
 6565TIP3   OH243889   1.728   7.054  11.300  0.3824 -0.0076  0.5850
 6565TIP3    H143890   1.670   7.103  11.242  0.5546  0.1105  0.5152
 6565TIP3    H243891   1.806   7.036  11.248  0.8486  0.7363  1.0061
 6566TIP3   OH243892   7.349   6.428  12.263  0.4451 -0.1682  0.1449
 6566TIP3    H143893   7.373   6.338  12.242  0.2413  0.2230 -2.0172
 6566TIP3    H243894   7.339   6.470  12.177 -1.5339  1.3574  1.0492
 6567TIP3   OH243895   1.924   1.155  11.176 -0.1531 -1.3178 -0.2136
 6567TIP3    H143896   2.017   1.172  11.194 -0.4503  1.0435 -0.5094
 6567TIP3    H243897   1.910   1.192  11.088 -1.4833 -1.1126  0.0652
 6568TIP3   OH243898   1.615   5.335  10.608  0.1545  0.0924 -0.0050
 6568TIP3    H143899   1.681   5.404  10.619 -0.7225  0.9722 -0.0866
 6568TIP3    H243900   1.532   5.382  10.604 -0.3673 -0.8850 -1.2998
 6569TIP3   OH243901   7.582   0.552  11.112 -0.1924  0.3678  0.0589
 6569TIP3    H143902   7.616   0.641  11.118  0.0639  0.2709  0.0300
 6569TIP3    H243903   7.659   0.497  11.103 -0.3794  0.1789 -0.3822
 6570TIP3   OH243904   1.953   5.210  11.842 -0.1528  0.2768 -0.0964
 6570TIP3    H143905   1.884   5.208  11.908  0.7594  1.2169  0.9475
 6570TIP3    H243906   1.939   5.132  11.789 -0.5512 -0.8522  1.6062
 6571TIP3   OH243907   2.470   3.063  10.821  0.4388 -0.6163 -0.1155
 6571TIP3    H143908   2.528   3.107  10.759 -0.0058 -0.6380 -0.5500
 6571TIP3    H243909   2.471   3.118  10.899  0.7019 -0.3864 -0.2821
 6572TIP3   OH243910   6.293   4.359  12.638 -0.3081  0.8192  0.7397
 6572TIP3    H143911   6.322   4.289  12.697 -1.3665  0.4019  0.7816
 6572TIP3    H243912   6.277   4.434  12.695 -2.7150  0.0060  1.2464
 6573TIP3   OH243913   6.235   5.091  10.672 -0.2383  0.1438 -0.4593
 6573TIP3    H143914   6.173   5.020  10.655  0.9384 -1.1250  0.3767
 6573TIP3    H243915   6.309   5.072  10.615  0.3839  0.3029  0.2892
 6574TIP3   OH243916   4.288   0.671  12.517 -0.1414 -0.9055  0.5930
 6574TIP3    H143917   4.248   0.745  12.563 -2.0024 -0.9163 -0.8723
 6574TIP3    H243918   4.340   0.626  12.584  0.0288  1.0048  1.8048
 6575TIP3   OH243919   1.268   0.073  12.414  0.6696 -0.7712  0.1343
 6575TIP3    H143920   1.236   0.152  12.372  0.9020 -0.5608  0.3484
 6575TIP3    H243921   1.363   0.084  12.417  0.5500  0.3139  2.7964
 6576TIP3   OH243922   4.208   6.747  10.653 -0.0073  0.2146  0.1328
 6576TIP3    H143923   4.291   6.774  10.613  0.4599 -1.8741 -0.4360
 6576TIP3    H243924   4.233   6.685  10.722 -1.1033 -1.8509 -1.2184
 6577TIP3   OH243925   0.809   1.441  11.756  0.2376  0.2693 -0.3762
 6577TIP3    H143926   0.797   1.507  11.824 -1.0493 -0.4706  0.1428
 6577TIP3    H243927   0.728   1.443  11.706  0.5881 -0.2202 -0.9862
 6578TIP3   OH243928   0.909   7.067  11.002  0.1541  0.3870  0.0255
 6578TIP3    H143929   0.848   7.065  11.075  0.5658 -0.1188  0.3609
 6578TIP3    H243930   0.887   7.147  10.954 -0.0477  0.7790  0.7575
 6579TIP3   OH243931   2.591   2.070  12.604 -0.5864  0.6434  0.0111
 6579TIP3    H143932   2.572   2.133  12.534 -0.0358  0.1163 -0.6322
 6579TIP3    H243933   2.558   2.111  12.683 -0.4392  1.6386 -0.4324
 6580TIP3   OH243934   5.621   0.458  11.050  0.6666 -0.2450  0.1462
 6580TIP3    H143935   5.627   0.547  11.086  0.1293  0.3921 -1.2379
 6580TIP3    H243936   5.538   0.424  11.085  1.6523 -0.8723  2.0121
 6581TIP3   OH243937   4.288   0.980  12.047  0.5881  0.0316 -0.3566
 6581TIP3    H143938   4.253   1.047  12.106  0.4516 -0.5778  0.2667
 6581TIP3    H243939   4.252   1.003  11.961 -0.9950 -0.3200  0.1817
 6582TIP3   OH243940   6.684   6.453  10.842 -0.2833  0.1824  0.4297
 6582TIP3    H143941   6.654   6.370  10.805  0.6034  0.0055  0.0736
 6582TIP3    H243942   6.684   6.514  10.768 -0.6884  0.4379  0.6355
 6583TIP3   OH243943   3.920   6.753  10.721 -0.6776  0.2233 -0.4304
 6583TIP3    H143944   3.919   6.822  10.787 -0.2494 -0.4014  0.2411
 6583TIP3    H243945   4.001   6.767  10.672 -0.6479  0.2553 -0.3714
 6584TIP3   OH243946   0.454   0.791  10.930  0.5553  0.4892 -0.3502
 6584TIP3    H143947   0.494   0.732  10.994 -1.8873 -1.8496 -0.7597
 6584TIP3    H243948   0.379   0.741  10.896 -1.1157  3.5021 -1.4768
 6585TIP3   OH243949   2.354   4.497  12.007  0.0398 -0.3181 -0.4450
 6585TIP3    H143950   2.295   4.436  12.052 -1.2731  0.6472 -0.7816
 6585TIP3    H243951   2.437   4.490  12.054 -0.7529 -0.6780  0.9544
 6586TIP3   OH243952   7.287   6.968  12.777  0.2702  0.0184  0.0067
 6586TIP3    H143953   7.231   6.896  12.746  0.5531 -0.1168 -0.1985
 6586TIP3    H243954   7.345   6.927  12.841  0.1670  0.1495  0.1850
 6587TIP3   OH243955   4.234   5.844  12.852  0.6935 -0.6680  1.0194
 6587TIP3    H143956   4.262   5.762  12.894  1.5208  0.0202  1.8429
 6587TIP3    H243957   4.177   5.886  12.916  0.4746 -0.4786  0.7014
 6588TIP3   OH243958   5.104   1.144  12.026  0.3929  0.1976 -0.2948
 6588TIP3    H143959   5.020   1.159  12.068 -0.1058 -1.0472 -0.7983
 6588TIP3    H243960   5.169   1.163  12.094 -0.2811  1.1129  0.1163
 6589TIP3   OH243961   0.986   5.707  12.653 -0.5354 -0.5404 -0.0630
 6589TIP3    H143962   1.023   5.796  12.656 -2.2792  0.2323 -0.2259
 6589TIP3    H243963   1.049   5.657  12.602 -0.5464  1.1603 -1.8801
 6590TIP3   OH243964   0.435   2.391  10.913 -0.1829 -0.0269  0.5763
 6590TIP3    H143965   0.403   2.480  10.926  0.6872  0.2540  0.8177
 6590TIP3    H243966   0.512   2.384  10.968 -0.2436 -0.9396  0.5711
 6591TIP3   OH243967   7.048   2.221  11.111 -0.1068 -0.4144 -0.3130
 6591TIP3    H143968   7.131   2.252  11.147 -0.5306 -0.3516  0.6206
 6591TIP3    H243969   7.046   2.127  11.132 -0.5411 -0.2932  0.1854
 6592TIP3   OH243970   7.488   2.314  12.119  0.1430 -0.2407 -0.1004
 6592TIP3    H143971   7.417   2.260  12.084 -0.7061  0.8318 -0.0930
 6592TIP3    H243972   7.462   2.333  12.209 -0.1602  1.1011 -0.4459
 6593TIP3   OH243973   3.877   0.006  10.549 -0.3373 -0.3680 -0.3812
 6593TIP3    H143974   3.946   0.061  10.588  1.0447 -1.5771 -1.0241
 6593TIP3    H243975   3.839  -0.041  10.624  1.1286 -1.3874 -0.2290
 6594TIP3   OH243976   2.237   2.381  11.916  0.1631  0.0301 -0.1067
 6594TIP3    H143977   2.263   2.466  11.880  2.9943 -0.3489  0.7477
 6594TIP3    H243978   2.227   2.324  11.840  3.2619 -0.0482 -0.5851
 6595TIP3   OH243979   4.866   4.111  11.878  0.0106  0.7194  0.3443
 6595TIP3    H143980   4.936   4.096  11.941  1.9658  1.4534 -1.5067
 6595TIP3    H243981   4.857   4.028  11.832 -1.2087  0.2717  1.3419
 6596TIP3   OH243982   2.765   0.554  12.336 -0.0943  0.3004  0.1765
 6596TIP3    H143983   2.753   0.521  12.247 -1.2985  1.1785 -0.0102
 6596TIP3    H243984   2.775   0.475  12.390 -1.2142 -0.3224 -0.4906
 6597TIP3   OH243985   3.865   0.534  12.489  0.2674 -0.4717 -0.3649
 6597TIP3    H143986   3.913   0.612  12.460 -0.9416  1.1080  1.5894
 6597TIP3    H243987   3.783   0.537  12.441  0.3438 -0.7554 -0.5194
 6598TIP3   OH243988   3.251   4.790  12.976  0.0854  0.0069 -0.0161
 6598TIP3    H143989   3.335   4.794  13.022  0.9446  1.0174 -1.5934
 6598TIP3    H243990   3.233   4.880  12.951 -1.3124 -0.2500 -0.0063
 6599TIP3   OH243991   1.955   6.967  11.073  0.5766 -0.3250  0.2559
 6599TIP3    H143992   2.000   7.026  11.012 -0.9571  0.6478  0.0045
 6599TIP3    H243993   1.890   6.921  11.020 -0.6590  0.4021  1.0702
 6600TIP3   OH243994   2.853   4.612  12.699 -0.0676  0.1989 -0.1201
 6600TIP3    H143995   2.871   4.583  12.789  0.1200 -0.7788 -0.4616
 6600TIP3    H243996   2.781   4.555  12.670 -1.0212  1.3805 -0.1501
 6601TIP3   OH243997   2.000   5.441  12.724 -0.1389 -0.1018 -0.5533
 6601TIP3    H143998   1.952   5.384  12.664 -0.5578  0.2325 -0.5461
 6601TIP3    H243999   1.934   5.469  12.788 -0.1123  0.9480 -0.9668
 6602TIP3   OH244000   2.108   2.115  11.308  0.4473 -0.4286 -0.0503
 6602TIP3    H144001   2.031   2.169  11.327 -0.9212 -1.7071 -1.6326
 6602TIP3    H244002   2.122   2.126  11.214  3.5295  1.3657  0.4934
 6603TIP3   OH244003   3.619   4.401  11.302  0.4561 -0.0221 -0.5345
 6603TIP3    H144004   3.600   4.443  11.219 -0.8844  2.6415  0.9784
 6603TIP3    H244005   3.629   4.474  11.364  1.6058 -1.8652  1.6252
 6604TIP3   OH244006   2.558   1.450  12.436 -0.2692  0.3613 -0.2805
 6604TIP3    H144007   2.504   1.503  12.495 -0.2082  1.2881 -1.0268
 6604TIP3    H244008   2.643   1.495  12.434  0.4026 -0.8321  0.5318
 6605TIP3   OH244009   5.996   5.184  11.915 -0.0349  0.1586  0.1958
 6605TIP3    H144010   6.060   5.223  11.975  0.5772 -0.3293 -0.1235
 6605TIP3    H244011   6.043   5.111  11.874 -0.0750  1.0872 -1.6450
 6606TIP3   OH244012   2.184   1.692  11.793  0.6299 -0.0807  0.0960
 6606TIP3    H144013   2.165   1.673  11.701 -1.7046  0.0412  0.4834
 6606TIP3    H244014   2.161   1.784  11.804  0.7009 -0.1426  0.8482
 6607TIP3   OH244015   3.160   1.728  12.028 -0.0712 -0.7874  0.6797
 6607TIP3    H144016   3.171   1.715  12.122  0.5504 -0.6036  0.6381
 6607TIP3    H244017   3.248   1.718  11.992  0.0370  1.0137  0.3505
 6608TIP3   OH244018   3.620   4.671  11.427 -0.5330  0.0542  0.0067
 6608TIP3    H144019   3.691   4.730  11.403  1.0779 -1.0981  1.6680
 6608TIP3    H244020   3.558   4.725  11.476  0.9323  0.4241  1.5363
 6609TIP3   OH244021   4.812   6.683  10.996 -0.7822 -0.2524  0.3472
 6609TIP3    H144022   4.885   6.625  11.020 -0.7955  0.0035  1.0586
 6609TIP3    H244023   4.746   6.626  10.958 -0.1986 -0.4863 -0.3359
 6610TIP3   OH244024   4.044   6.048  18.462  0.4628  0.0646  0.0530
 6610TIP3    H144025   3.955   6.082  18.452  0.5342  0.9194  1.9824
 6610TIP3    H244026   4.065   6.061  18.554  3.1065  1.1818 -0.6047
 6611TIP3   OH244027   0.269   3.314  10.564 -0.4627  0.3782  0.2554
 6611TIP3    H144028   0.340   3.319  10.500 -1.3663  2.5363 -0.6864
 6611TIP3    H244029   0.276   3.395  10.614 -1.9875  0.4256  0.4283
 6612TIP3   OH244030   5.308   3.857  11.897 -0.2316 -0.0321  0.1882
 6612TIP3    H144031   5.332   3.856  11.990 -0.9064  0.6335  0.3744
 6612TIP3    H244032   5.383   3.817  11.853  0.4567  0.3927  0.9384
 6613TIP3   OH244033   3.728   1.712  11.751  0.1951  0.0493  0.1281
 6613TIP3    H144034   3.768   1.681  11.832  1.3733 -0.5201 -0.6402
 6613TIP3    H244035   3.751   1.804  11.746  1.8425 -0.3653 -0.5093
 6614TIP3   OH244036   2.209   6.211  12.523 -0.9798  0.4436 -0.0621
 6614TIP3    H144037   2.250   6.124  12.520 -1.6318  0.1423 -0.6157
 6614TIP3    H244038   2.117   6.193  12.544 -1.0547  1.0222  0.1185
 6615TIP3   OH244039   3.479   4.834  13.119 -0.4359  0.2532 -0.1559
 6615TIP3    H144040   3.494   4.912  13.065  1.6856 -1.6412 -2.5206
 6615TIP3    H244041   3.507   4.860  13.206 -1.6848  2.6973 -0.3768
 6616TIP3   OH244042   1.537   6.917  10.848  0.5483  0.0233  0.0344
 6616TIP3    H144043   1.495   6.910  10.934 -1.4797  1.2424 -0.7945
 6616TIP3    H244044   1.528   7.009  10.824 -0.7279 -0.6292 -2.3026
 6617TIP3   OH244045   0.280   4.775  11.759 -0.0389  0.6965 -0.5402
 6617TIP3    H144046   0.193   4.748  11.731 -0.2590 -0.2468  0.9266
 6617TIP3    H244047   0.305   4.712  11.827  2.7440 -0.4017 -2.4056
 6618TIP3   OH244048   5.964   0.921  12.177 -0.1712  0.0320  0.0421
 6618TIP3    H144049   5.876   0.958  12.168  0.3979  1.4408  0.0731
 6618TIP3    H244050   6.017   0.993  12.211  1.3091 -0.3719 -1.3086
 6619TIP3   OH244051   5.751   0.806  12.843 -0.1886  0.6886 -0.4028
 6619TIP3    H144052   5.773   0.737  12.780  0.3064  2.8166 -2.7001
 6619TIP3    H244053   5.681   0.856  12.801  0.0180  2.0752  0.8202
 6620TIP3   OH244054   7.165   5.513  12.378 -0.1412 -0.5223  0.4671
 6620TIP3    H144055   7.147   5.433  12.328  0.9026 -0.6965  0.3462
 6620TIP3    H244056   7.242   5.492  12.431  0.7482  0.6858 -0.2701
 6621TIP3   OH244057   2.527   5.897  10.975 -0.2451  0.3648  0.2916
 6621TIP3    H144058   2.551   5.827  10.914  0.5059  0.6343  0.2625
 6621TIP3    H244059   2.607   5.949  10.983 -0.3030  0.2882  1.5689
 6622TIP3   OH244060   0.221   0.915  11.369  0.4399 -0.3741 -0.1437
 6622TIP3    H144061   0.217   0.828  11.329 -0.8343  0.8000 -2.8397
 6622TIP3    H244062   0.310   0.945  11.352  0.2245 -0.3086 -1.2360
 6623TIP3   OH244063   1.443   1.344  11.673  0.2790 -0.2452  0.4358
 6623TIP3    H144064   1.424   1.424  11.624 -0.1572  0.2514  1.4003
 6623TIP3    H244065   1.428   1.367  11.764  0.2219 -1.4044  0.7386
 6624TIP3   OH244066   2.144   5.763  12.616 -0.3693  0.3654 -0.0821
 6624TIP3    H144067   2.060   5.741  12.576 -0.3149 -0.7913  0.4046
 6624TIP3    H244068   2.151   5.705  12.692  0.9322  0.3397 -0.1924
 6625TIP3   OH244069   2.317   0.376  11.020 -0.1837 -0.0723 -0.0020
 6625TIP3    H144070   2.226   0.353  10.998 -0.4915  0.8394  0.2770
 6625TIP3    H244071   2.317   0.382  11.116  0.6088 -1.8153  0.1331
 6626TIP3   OH244072   4.058   6.418  11.007  0.6077  0.3320  0.2719
 6626TIP3    H144073   4.030   6.327  11.018 -0.6806  0.6534 -0.0920
 6626TIP3    H244074   4.054   6.455  11.095 -1.2849  0.6544  0.0950
 6627TIP3   OH244075   3.378   6.491  11.384 -0.1355 -0.7552  0.5049
 6627TIP3    H144076   3.391   6.563  11.322  1.5771 -0.4155  1.1859
 6627TIP3    H244077   3.320   6.430  11.339  0.3306 -0.0934 -1.0644
 6628TIP3   OH244078   5.177   2.485  12.458  0.2515 -0.1936  0.3596
 6628TIP3    H144079   5.241   2.456  12.395 -0.7107  1.0309 -1.2635
 6628TIP3    H244080   5.196   2.578  12.471 -0.4413 -0.1021  0.7932
 6629TIP3   OH244081   4.898   5.989  13.014  0.6288  0.7325 -0.3928
 6629TIP3    H144082   4.861   6.028  13.093  1.9586 -0.0151  0.6485
 6629TIP3    H244083   4.825   5.945  12.972 -0.1054  1.1667  0.4028
 6630TIP3   OH244084   7.278   0.248  10.612  0.5845  0.4034  0.1271
 6630TIP3    H144085   7.302   0.174  10.556  1.1861  1.2580 -0.7855
 6630TIP3    H244086   7.355   0.263  10.666  0.8602  1.0207 -0.4300
 6631TIP3   OH244087   3.137   2.096  11.924  0.2766 -0.0686 -0.0676
 6631TIP3    H144088   3.100   2.080  12.011  0.9868 -0.0997  0.2404
 6631TIP3    H244089   3.232   2.093  11.938  0.4077 -0.9356 -0.9918
 6632TIP3   OH244090   1.989   0.482  11.223 -0.0970  0.0239  0.0595
 6632TIP3    H144091   2.061   0.419  11.234  0.1480  0.1528 -0.7353
 6632TIP3    H244092   2.028   0.567  11.242  0.1970  0.1904 -1.2209
 6633TIP3   OH244093   0.254   1.746  11.733  0.1091 -0.3715 -0.1675
 6633TIP3    H144094   0.184   1.801  11.770 -0.6072 -0.5316 -1.2226
 6633TIP3    H244095   0.207   1.674  11.691  1.0135 -1.4860  0.6839
 6634TIP3   OH244096   1.325   1.769  12.952 -0.0135 -0.3188 -0.1421
 6634TIP3    H144097   1.285   1.770  13.039 -1.0409  1.3055 -0.5764
 6634TIP3    H244098   1.259   1.732  12.894  0.0394  0.0747 -0.4684
 6635TIP3   OH244099   6.072   2.501  12.289  0.0053 -0.1926 -0.0376
 6635TIP3    H144100   6.001   2.527  12.230  0.2757  2.3140  0.6270
 6635TIP3    H244101   6.143   2.473  12.231  0.0715  1.7004 -0.9259
 6636TIP3   OH244102   1.892   7.316  10.841 -0.6329  0.2246 -0.1154
 6636TIP3    H144103   1.881   7.409  10.861 -0.4125 -0.3174  3.1286
 6636TIP3    H244104   1.805   7.285  10.817 -0.6212  1.2967 -1.6836
 6637TIP3   OH244105   2.188   7.259  11.685  0.2089  0.3278 -0.2410
 6637TIP3    H144106   2.201   7.198  11.758  0.4354 -0.8394 -1.2255
 6637TIP3    H244107   2.105   7.233  11.646  1.0563 -0.4114 -1.6322
 6638TIP3   OH244108   3.924   0.172  12.833 -0.6812  0.7619  0.0115
 6638TIP3    H144109   4.009   0.175  12.877 -1.2159 -1.6589  1.3881
 6638TIP3    H244110   3.892   0.262  12.837  0.4122  1.1284  2.3932
 6639TIP3   OH244111   0.768   3.009  10.773  0.5165 -0.4283  0.4516
 6639TIP3    H144112   0.704   3.059  10.823  1.1137 -0.4324  1.2387
 6639TIP3    H244113   0.845   3.066  10.769  0.8989 -0.9242  0.5942
 6640TIP3   OH244114   5.517   0.798  10.661 -0.2766  0.1396  0.1408
 6640TIP3    H144115   5.519   0.876  10.715 -1.7667  0.5742 -0.3775
 6640TIP3    H244116   5.525   0.725  10.723  0.6170  0.6746  0.6711
 6641TIP3   OH244117   5.077   5.566  11.004 -0.1966  0.0373  0.1450
 6641TIP3    H144118   5.169   5.590  10.996 -0.8621  2.2895 -1.9125
 6641TIP3    H244119   5.060   5.565  11.098  1.7247  0.3046  0.5223
 6642TIP3   OH244120   6.830   3.649  11.406 -0.3878 -0.7301  0.4216
 6642TIP3    H144121   6.823   3.663  11.311 -1.6815  2.4653  0.8670
 6642TIP3    H244122   6.884   3.722  11.437  0.2983 -1.9024  2.1663
 6643TIP3   OH244123   7.179   5.113  11.578  0.1890  0.1598  0.6149
 6643TIP3    H144124   7.179   5.017  11.571 -1.4615  0.1937 -0.2887
 6643TIP3    H244125   7.127   5.132  11.656 -0.7037  0.3329 -0.0074
 6644TIP3   OH244126   2.753   3.178  11.733 -0.4709  0.1865  0.4517
 6644TIP3    H144127   2.667   3.218  11.726 -1.0421 -1.0864 -0.1703
 6644TIP3    H244128   2.807   3.227  11.670 -0.6203  1.2293  1.1147
 6645TIP3   OH244129   0.938   2.906  11.375 -0.0121 -0.6150 -0.3779
 6645TIP3    H144130   0.867   2.954  11.334 -1.2555 -0.8407  1.3761
 6645TIP3    H244131   0.925   2.919  11.469  2.0570 -0.9808  0.0148
 6646TIP3   OH244132   5.604   3.982  11.680  0.5187  0.6248  0.5301
 6646TIP3    H144133   5.553   3.929  11.618 -0.3807  0.2638  1.5435
 6646TIP3    H244134   5.669   4.026  11.626  0.2736 -0.3027 -0.5598
 6647TIP3   OH244135   5.317   4.173  11.725 -0.1188 -0.4385  0.0832
 6647TIP3    H144136   5.366   4.108  11.776  0.0654  0.1452  0.6645
 6647TIP3    H244137   5.379   4.202  11.658 -0.4783 -1.4727 -0.7332
 6648TIP3   OH244138   1.730   5.676  10.901 -0.4454 -0.3816 -0.1277
 6648TIP3    H144139   1.737   5.644  10.991  1.8247 -0.6290 -0.3439
 6648TIP3    H244140   1.662   5.744  10.905 -0.8698 -0.8664  1.6138
 6649TIP3   OH244141   0.529   0.884  11.357  0.3272 -0.3740 -0.4010
 6649TIP3    H144142   0.547   0.978  11.364 -0.6294 -0.1414 -0.9230
 6649TIP3    H244143   0.612   0.842  11.379  1.1190  0.6137 -1.4335
 6650TIP3   OH244144   4.329   3.471  12.923 -0.3203  0.0026 -0.1695
 6650TIP3    H144145   4.366   3.431  13.002 -0.6226 -0.0522 -0.0531
 6650TIP3    H244146   4.277   3.544  12.956 -2.9024 -1.7843 -0.0409
 6651TIP3   OH244147   0.121   0.136  13.497 -0.5461  0.5432 -0.3034
 6651TIP3    H144148   0.133   0.224  13.461  1.3168  0.0467 -0.9653
 6651TIP3    H244149   0.042   0.103  13.453 -1.8703  2.1977  0.6855
 6652TIP3   OH244150   3.361   5.338  11.373  0.1109  0.4321 -0.1834
 6652TIP3    H144151   3.347   5.253  11.414  0.9665  0.4267  0.1176
 6652TIP3    H244152   3.356   5.320  11.279 -2.5407  0.5622 -0.1530
 6653TIP3   OH244153   5.926   3.266  10.518  0.1124  0.5952 -0.6173
 6653TIP3    H144154   6.005   3.219  10.542 -0.3242 -0.5035 -1.2497
 6653TIP3    H244155   5.952   3.358  10.516  0.7507  0.5106  1.5512
 6654TIP3   OH244156   6.650   6.927  10.775 -0.0462  0.5208 -0.2018
 6654TIP3    H144157   6.562   6.955  10.747 -1.3965 -1.6740  1.4757
 6654TIP3    H244158   6.679   6.995  10.835 -1.5062  0.3926  0.7141
 6655TIP3   OH244159   1.335   3.215  12.076  0.4732  0.0454  0.3375
 6655TIP3    H144160   1.262   3.153  12.087  0.4509  0.1106  0.5811
 6655TIP3    H244161   1.413   3.164  12.096  0.4693  0.0506  0.3662
 6656TIP3   OH244162   2.162   7.309  12.304 -0.7037 -0.0678 -1.1573
 6656TIP3    H144163   2.159   7.299  12.399  2.6495  1.6594 -0.6983
 6656TIP3    H244164   2.114   7.390  12.286 -0.3528  0.2340 -0.7529
 6657TIP3   OH244165   3.549   0.777  10.842  0.2716  0.2905  0.0711
 6657TIP3    H144166   3.551   0.758  10.748  1.2947  1.7287 -0.2258
 6657TIP3    H244167   3.456   0.777  10.864  0.0522 -3.3560 -0.1734
 6658TIP3   OH244168   3.379   7.274  11.358  0.0005  0.3238  0.1135
 6658TIP3    H144169   3.416   7.351  11.402  1.9780 -1.1925  1.3330
 6658TIP3    H244170   3.443   7.253  11.290 -0.8465  0.1295 -0.6298
 6659TIP3   OH244171   4.348   4.054  13.053 -0.4063 -0.0154  0.5190
 6659TIP3    H144172   4.261   4.020  13.032 -1.3149  1.6631  1.4406
 6659TIP3    H244173   4.356   4.042  13.148 -0.5326  1.7559  0.7807
 6660TIP3   OH244174   5.405   0.053  12.466  0.0568  0.3085 -0.5998
 6660TIP3    H144175   5.472   0.120  12.460 -0.8076  1.4417  1.2526
 6660TIP3    H244176   5.324   0.097  12.441 -0.2762 -0.5347 -1.0586
 6661TIP3   OH244177   1.131   4.412  10.652  0.6827 -0.1462 -0.2713
 6661TIP3    H144178   1.183   4.426  10.574 -0.0298  0.0263 -0.7263
 6661TIP3    H244179   1.190   4.431  10.725  0.8593  1.4755 -0.7918
 6662TIP3   OH244180   5.051   1.986  10.728  0.2202 -0.2249  0.3613
 6662TIP3    H144181   5.050   2.018  10.818  0.6484 -0.4806  0.4564
 6662TIP3    H244182   5.010   1.900  10.732 -0.0199 -0.1195  0.2607
 6663TIP3   OH244183   4.903   0.656  10.867  0.0028 -0.0675 -0.2776
 6663TIP3    H144184   4.914   0.667  10.962 -0.3431 -0.8029 -0.1468
 6663TIP3    H244185   4.849   0.731  10.841  0.9825  0.7283 -0.0776
 6664TIP3   OH244186   1.730   5.755  11.960 -0.4897 -0.3357 -0.5828
 6664TIP3    H144187   1.725   5.808  11.880 -0.5958 -0.7760 -0.8737
 6664TIP3    H244188   1.696   5.669  11.934 -0.6262 -0.4553 -0.0370
 6665TIP3   OH244189   2.408   2.469  13.065 -0.1082 -0.0758  0.0574
 6665TIP3    H144190   2.453   2.553  13.076  1.7773 -0.9206 -0.8625
 6665TIP3    H244191   2.477   2.404  13.065 -1.5841 -1.7374  1.3688
 6666TIP3   OH244192   1.399   2.924  12.213  0.1197  0.2566  0.1663
 6666TIP3    H144193   1.425   2.832  12.220 -0.2145  0.1272 -0.2801
 6666TIP3    H244194   1.305   2.921  12.193 -0.1336  0.7142  1.2260
 6667TIP3   OH244195   6.551   4.494  13.371  0.0289  0.3308 -0.3398
 6667TIP3    H144196   6.604   4.504  13.292 -1.3771 -1.1913 -1.5550
 6667TIP3    H244197   6.578   4.410  13.408  2.2014  1.9748  2.1024
 6668TIP3   OH244198   2.374   1.642  11.139 -0.0153 -0.3013 -0.5317
 6668TIP3    H144199   2.345   1.708  11.076 -0.2031 -2.0705 -2.4071
 6668TIP3    H244200   2.296   1.622  11.191  0.0109  0.8094 -0.0304
 6669TIP3   OH244201   3.474   5.485  12.566 -0.3959  0.2640 -0.3594
 6669TIP3    H144202   3.539   5.423  12.533  0.2673  1.5094 -1.4765
 6669TIP3    H244203   3.397   5.469  12.511  0.3474  1.5718 -1.8741
 6670TIP3   OH244204   3.123   5.801  12.398 -0.3193 -0.8603  0.0841
 6670TIP3    H144205   3.179   5.780  12.324  1.3062 -0.3079  1.0887
 6670TIP3    H244206   3.064   5.727  12.406 -2.5933  0.3616 -3.5336
 6671TIP3   OH244207   5.076   3.636  10.620 -0.9196 -0.0956 -0.1823
 6671TIP3    H144208   5.106   3.593  10.700 -0.7727  1.1185  0.4292
 6671TIP3    H244209   5.072   3.565  10.555 -0.5705 -1.0034  0.7589
 6672TIP3   OH244210   4.734   5.520  12.262 -0.2078 -0.0198 -0.3154
 6672TIP3    H144211   4.701   5.451  12.320  1.8092 -0.7469  0.0449
 6672TIP3    H244212   4.661   5.538  12.202 -1.2683 -1.4477  0.4813
 6673TIP3   OH244213   0.068   2.626  11.007 -0.1374 -0.3399  0.4799
 6673TIP3    H144214   0.005   2.670  10.950 -0.4747 -1.1903  0.1742
 6673TIP3    H244215   0.018   2.602  11.085 -0.6028 -2.2680 -0.3469
 6674TIP3   OH244216   1.005   1.519  11.582 -0.0079  0.2742 -0.0740
 6674TIP3    H144217   0.931   1.572  11.552 -0.7757  0.0658  1.3705
 6674TIP3    H244218   0.975   1.480  11.664  2.1061  1.0801  1.1571
 6675TIP3   OH244219   1.060   4.938  12.547 -0.5089  0.0743 -0.0664
 6675TIP3    H144220   1.007   4.890  12.484 -0.9447  0.2605  0.1531
 6675TIP3    H244221   0.997   4.986  12.600 -0.4648 -2.4492  2.5557
 6676TIP3   OH244222   1.632   4.014  11.881  0.3545  0.2063  0.0870
 6676TIP3    H144223   1.637   3.951  11.809 -0.3436 -1.1738  1.2002
 6676TIP3    H244224   1.577   3.971  11.947 -0.6054  2.2096  0.6729
 6677TIP3   OH244225   4.661   7.138  11.311 -0.0859 -0.3075 -0.3555
 6677TIP3    H144226   4.684   7.197  11.240  0.8851 -0.3797 -0.1183
 6677TIP3    H244227   4.690   7.052  11.282  0.5344 -0.2992  0.2232
 6678TIP3   OH244228   3.838   6.931  11.050  0.3492  0.5018  0.3890
 6678TIP3    H144229   3.920   6.972  11.023 -0.3974 -0.1238 -3.4742
 6678TIP3    H244230   3.857   6.837  11.048 -0.4128  0.3511 -0.5512
 6679TIP3   OH244231   5.901   3.360  13.655 -0.0488  1.0370  0.1754
 6679TIP3    H144232   5.977   3.394  13.608 -0.4230 -0.5260 -1.6973
 6679TIP3    H244233   5.826   3.398  13.610 -0.4054  0.1089 -0.0336
 6680TIP3   OH244234   0.107   4.376  11.755 -0.2395  0.2442 -0.3690
 6680TIP3    H144235   0.132   4.379  11.663 -1.0414  0.3806 -0.5901
 6680TIP3    H244236   0.101   4.468  11.781  0.7520  0.2026  0.0408
 6681TIP3   OH244237   5.889   0.249  12.952 -0.4096 -0.2607 -0.4375
 6681TIP3    H144238   5.857   0.336  12.975  0.1134 -0.2900  0.4574
 6681TIP3    H244239   5.984   0.255  12.966 -0.5424 -1.4336  1.2858
 6682TIP3   OH244240   7.660   6.131  12.403  0.0174 -0.4403 -0.0817
 6682TIP3    H144241   7.607   6.208  12.421 -1.7228 -1.5759 -0.1389
 6682TIP3    H244242   7.750   6.163  12.404 -0.5598  1.3020  1.3604
 6683TIP3   OH244243   2.522   6.210  11.713 -0.0392 -0.0316 -0.3463
 6683TIP3    H144244   2.510   6.165  11.629 -0.4443 -0.2860 -0.1509
 6683TIP3    H244245   2.480   6.295  11.700 -0.1603 -0.0958 -0.3816
 6684TIP3   OH244246   1.654   1.280  10.680  0.5485  0.4542 -0.7891
 6684TIP3    H144247   1.602   1.200  10.689 -0.2041  0.7930 -1.8845
 6684TIP3    H244248   1.736   1.252  10.641  0.2582  0.2214 -1.2375
 6685TIP3   OH244249   3.577   4.332  10.467 -0.2717  0.2012 -0.0447
 6685TIP3    H144250   3.543   4.267  10.405 -1.8824  0.9145  0.0495
 6685TIP3    H244251   3.535   4.308  10.551  0.2589  0.4996  0.3078
 6686TIP3   OH244252   3.385   3.726  12.127  0.1354 -0.0727 -0.1657
 6686TIP3    H144253   3.373   3.745  12.220 -0.7564 -2.1525  0.1961
 6686TIP3    H244254   3.457   3.663  12.125  0.2948  0.1262 -0.9292
 6687TIP3   OH244255   3.547   5.540  10.396  0.1811  0.1269 -0.0245
 6687TIP3    H144256   3.525   5.476  10.328  0.8967  0.1088 -0.2505
 6687TIP3    H244257   3.478   5.606  10.390  0.6239  0.5059 -1.2635
 6688TIP3   OH244258   3.367   5.008  12.322 -0.5043  0.0232  0.0554
 6688TIP3    H144259   3.390   4.925  12.280 -2.0438 -0.4896  0.1604
 6688TIP3    H244260   3.305   5.049  12.262 -1.7593 -0.1232  1.2156
 6689TIP3   OH244261   2.121   7.011  12.908 -0.1783  0.1998 -0.5373
 6689TIP3    H144262   2.090   7.101  12.912 -0.0795  0.3310 -2.0661
 6689TIP3    H244263   2.121   6.981  12.999 -2.4003  0.9837 -0.2321
 6690TIP3   OH244264   3.891   1.207  10.956 -0.4512 -0.2633  0.2075
 6690TIP3    H144265   3.840   1.240  10.881 -0.6909 -0.6057  0.2202
 6690TIP3    H244266   3.831   1.215  11.031  1.0260  3.8949  1.2198
 6691TIP3   OH244267   0.608   6.593  12.345 -0.2426  0.5343 -0.0613
 6691TIP3    H144268   0.525   6.569  12.303 -0.2215  0.5243 -0.0973
 6691TIP3    H244269   0.654   6.645  12.279  0.5285 -0.9130 -0.6934
 6692TIP3   OH244270   4.596   3.047  11.165  0.0245  0.6283  0.3897
 6692TIP3    H144271   4.607   3.114  11.233  0.4081  1.0967 -0.1259
 6692TIP3    H244272   4.682   3.039  11.124 -0.6007  1.6246 -1.2034
 6693TIP3   OH244273   2.617   3.042  11.935  0.5029 -0.3827  0.2893
 6693TIP3    H144274   2.668   2.980  11.987  0.3957 -1.5467 -0.9290
 6693TIP3    H244275   2.683   3.092  11.886  0.5423 -0.5792  0.1405
 6694TIP3   OH244276   3.716   2.173  12.040  0.9087 -0.4304 -0.2417
 6694TIP3    H144277   3.696   2.264  12.021 -0.9844 -1.2537 -2.6480
 6694TIP3    H244278   3.762   2.176  12.124  1.0288  2.7072 -0.2989
 6695TIP3   OH244279   2.462   0.897  11.710 -0.3535  0.0644  0.0033
 6695TIP3    H144280   2.398   0.829  11.690 -0.9199 -0.0105  1.8606
 6695TIP3    H244281   2.422   0.949  11.779  0.2976  1.9939 -0.9925
 6696TIP3   OH244282   5.460   7.217  12.866  0.3635 -0.3933  0.0251
 6696TIP3    H144283   5.499   7.274  12.932 -1.0528 -0.3580  0.8800
 6696TIP3    H244284   5.466   7.129  12.904 -0.5926 -0.3537  0.3023
 6697TIP3   OH244285   4.848   6.267  12.962 -0.5991  0.7287 -0.1110
 6697TIP3    H144286   4.855   6.204  12.890  0.6985  1.1095 -0.3408
 6697TIP3    H244287   4.816   6.347  12.919  0.2863  0.9908 -0.3117
 6698TIP3   OH244288   3.234   2.808  10.837  0.6502 -0.1917 -0.0902
 6698TIP3    H144289   3.175   2.863  10.888  0.4934 -0.6583  0.2432
 6698TIP3    H244290   3.277   2.752  10.902  0.1193 -1.1024 -0.5027
 6699TIP3   OH244291   3.236   3.479  11.572  0.0963 -0.0081 -0.2597
 6699TIP3    H144292   3.265   3.561  11.533  0.1992 -0.7623 -1.8519
 6699TIP3    H244293   3.145   3.496  11.599 -0.5131  0.1290 -2.2371
 6700TIP3   OH244294   7.229   1.533  12.629  0.0215 -0.1014 -0.5350
 6700TIP3    H144295   7.168   1.591  12.584 -0.3388 -0.5423 -0.6205
 6700TIP3    H244296   7.260   1.473  12.561  0.1950 -0.1748 -0.3937
 6701TIP3   OH244297   2.256   0.625  11.206  0.2832 -0.5384  0.1208
 6701TIP3    H144298   2.223   0.703  11.250 -0.9732 -1.6112  1.1689
 6701TIP3    H244299   2.343   0.611  11.243  0.1902 -0.0940  0.5142
 6702TIP3   OH244300   2.203   2.294  13.492  0.6326  0.2591  0.2135
 6702TIP3    H144301   2.121   2.344  13.498  0.9916  1.0421 -1.0040
 6702TIP3    H244302   2.205   2.262  13.401  1.3321 -0.3724  0.4422
 6703TIP3   OH244303   0.388   4.943  11.309 -0.3056  0.7775 -0.2018
 6703TIP3    H144304   0.415   4.913  11.396 -1.6077  1.1035  0.3432
 6703TIP3    H244305   0.296   4.967  11.320 -0.7707 -0.0952 -1.9174
 6704TIP3   OH244306   3.559   2.137  11.739  0.4119  0.6710  0.2835
 6704TIP3    H144307   3.518   2.132  11.653 -0.5171  2.5688  0.5614
 6704TIP3    H244308   3.486   2.142  11.801  1.0571 -0.9059  1.2546
 6705TIP3   OH244309   5.859   3.332  12.669  0.0821 -0.5087 -0.2454
 6705TIP3    H144310   5.832   3.283  12.747 -0.6514 -1.2341 -0.9322
 6705TIP3    H244311   5.954   3.324  12.667 -0.0103 -1.7894 -0.2584
 6706TIP3   OH244312   1.105   2.133  11.008  0.4124 -0.2781 -0.2089
 6706TIP3    H144313   1.060   2.086  10.939  0.4418 -0.4107 -0.1389
 6706TIP3    H244314   1.120   2.220  10.973 -1.0658  0.1818  0.2435
 6707TIP3   OH244315   6.643   5.817  13.538 -0.4991 -0.0835 -0.7738
 6707TIP3    H144316   6.561   5.807  13.586  0.0637 -0.1667  0.2066
 6707TIP3    H244317   6.636   5.903  13.495 -0.4342  0.6709  0.6656
 6708TIP3   OH244318   2.852   7.299  12.328 -0.1386 -0.6332  0.2183
 6708TIP3    H144319   2.911   7.323  12.400 -0.8795 -1.9842  1.3379
 6708TIP3    H244320   2.780   7.361  12.334  0.6270  0.3426 -0.4699
 6709TIP3   OH244321   7.503   4.794  10.831 -0.0018 -0.0828  0.5138
 6709TIP3    H144322   7.586   4.824  10.794  0.7902  0.3134  2.4822
 6709TIP3    H244323   7.442   4.796  10.758  1.2335  1.6028 -0.5399
 6710TIP3   OH244324   3.892   0.100  10.281  0.3867 -0.3598  0.0429
 6710TIP3    H144325   3.866   0.060  10.365 -0.6758 -0.9910 -0.5667
 6710TIP3    H244326   3.960   0.042  10.247  1.0573  0.0775  0.6093
 6711TIP3   OH244327   1.768   0.293  10.532  0.1898 -0.5745 -0.0321
 6711TIP3    H144328   1.704   0.242  10.582  1.0159 -1.6159 -0.0109
 6711TIP3    H244329   1.737   0.288  10.441 -0.0680 -0.5960  0.0550
 6712TIP3   OH244330   3.610   6.961  11.234 -0.4714  0.2437 -0.4579
 6712TIP3    H144331   3.688   6.941  11.182 -0.8606 -0.7375 -0.6954
 6712TIP3    H244332   3.546   6.992  11.170  0.4707  3.6439  0.0223
 6713TIP3   OH244333   0.216   3.034  12.741 -0.0622  0.0817  0.1471
 6713TIP3    H144334   0.272   2.992  12.806 -0.0214 -0.9644 -0.5420
 6713TIP3    H244335   0.129   2.998  12.758 -0.0531 -0.1905 -0.3527
 6714TIP3   OH244336   1.540   0.753  10.942  0.2191  0.4314  0.4061
 6714TIP3    H144337   1.500   0.839  10.930 -0.8479 -0.1439 -0.3652
 6714TIP3    H244338   1.470   0.699  10.979  0.9091 -0.0851  0.9783
 6715TIP3   OH244339   7.607   0.454  12.738 -0.5106 -0.3808  0.3249
 6715TIP3    H144340   7.627   0.416  12.823  1.1471 -1.0428 -0.3321
 6715TIP3    H244341   7.637   0.545  12.744 -0.1799 -0.4925  0.3757
 6716TIP3   OH244342   5.072   4.196  12.521  0.4159  0.0378 -0.6373
 6716TIP3    H144343   5.057   4.209  12.615 -0.5377 -3.3049 -0.1775
 6716TIP3    H244344   4.985   4.199  12.482  0.4989 -1.2517 -0.9516
 6717TIP3   OH244345   3.228   6.671  11.917 -0.2731 -0.3639 -0.3663
 6717TIP3    H144346   3.289   6.599  11.933 -0.4743 -0.2285  1.1960
 6717TIP3    H244347   3.259   6.711  11.836  1.9199 -0.1365  0.5107
 6718TIP3   OH244348   4.928   2.910  11.345 -0.2051  0.4357  0.5770
 6718TIP3    H144349   4.862   2.964  11.301  0.7882  0.6854 -0.6652
 6718TIP3    H244350   4.965   2.856  11.276 -1.3356 -2.1129  1.8232
 6719TIP3   OH244351   2.200   2.207  11.667 -0.6593 -1.1114  0.2326
 6719TIP3    H144352   2.128   2.247  11.617 -0.5445  0.7234  1.4323
 6719TIP3    H244353   2.279   2.231  11.617 -0.5506  0.6548  1.1829
 6720TIP3   OH244354   3.299   5.435  10.619  0.0720 -0.2767  0.4320
 6720TIP3    H144355   3.302   5.528  10.596  0.6821 -0.7001 -1.3595
 6720TIP3    H244356   3.361   5.427  10.691  1.9455  0.3230 -1.0350
 6721TIP3   OH244357   6.962   7.178  12.037  0.2560  0.1586 -0.0231
 6721TIP3    H144358   6.971   7.083  12.044 -1.1526 -0.1356 -1.5387
 6721TIP3    H244359   7.040   7.206  11.989  0.0237 -0.4378 -0.7726
 6722TIP3   OH244360   7.365   2.865  10.956  0.8736 -0.2685 -0.0660
 6722TIP3    H144361   7.441   2.923  10.963  0.4502  0.7491 -2.9470
 6722TIP3    H244362   7.330   2.881  10.869 -1.8387 -1.7647  0.6440
 6723TIP3   OH244363   0.107   1.901  12.671 -0.3558 -0.4801  0.2960
 6723TIP3    H144364   0.015   1.912  12.647 -0.4719  0.3584  1.0541
 6723TIP3    H244365   0.156   1.931  12.595 -0.6957 -1.6649 -0.4123
 6724TIP3   OH244366   6.321   0.056  10.751  0.3870  0.4742 -0.0097
 6724TIP3    H144367   6.244   0.045  10.695  0.7336 -1.7382 -0.1520
 6724TIP3    H244368   6.388   0.094  10.694  0.7603 -1.8286 -1.2155
 6725TIP3   OH244369   6.959   3.151  10.755 -0.6742  0.5811  0.1332
 6725TIP3    H144370   7.037   3.176  10.704  0.3598 -0.3490  1.2080
 6725TIP3    H244371   6.966   3.202  10.836 -1.0208  0.2662  0.3655
 6726TIP3   OH244372   7.463   2.021  12.104 -0.1413 -0.4311 -0.4640
 6726TIP3    H144373   7.469   1.968  12.025 -2.6954 -0.2880 -0.8269
 6726TIP3    H244374   7.389   2.079  12.089  1.7061  2.3823  0.4661
 6727TIP3   OH244375   2.002   6.680  11.968 -0.4442  0.3578  0.4516
 6727TIP3    H144376   1.995   6.700  12.061 -0.9465  2.2004  0.0483
 6727TIP3    H244377   1.997   6.765  11.924  1.3959 -0.2957 -1.1944
 6728TIP3   OH244378   0.998   2.822  10.901 -0.1008 -0.3744  0.1858
 6728TIP3    H144379   1.009   2.777  10.985 -0.3036 -1.6805 -0.4810
 6728TIP3    H244380   0.997   2.915  10.925  0.0329 -0.7130  1.6104
 6729TIP3   OH244381   3.042   0.439  11.385  0.2262 -0.0781 -0.4010
 6729TIP3    H144382   3.047   0.493  11.464 -0.5780  0.5571 -0.7678
 6729TIP3    H244383   3.050   0.501  11.312 -0.7659 -0.4373 -0.8296
 6730TIP3   OH244384   5.535   1.574  11.482 -0.1951  0.3048 -0.0281
 6730TIP3    H144385   5.498   1.534  11.403 -1.8438  1.1988  0.2510
 6730TIP3    H244386   5.529   1.505  11.549  0.9405 -0.3576 -0.5825
 6731TIP3   OH244387   1.534   4.528  12.574  0.3562  0.5921 -0.1429
 6731TIP3    H144388   1.460   4.468  12.586  0.1268  0.9559  0.2837
 6731TIP3    H244389   1.599   4.475  12.527  0.2849 -0.1053  0.5123
 6732TIP3   OH244390   3.921   0.254  12.010  0.0653  0.5674 -0.2398
 6732TIP3    H144391   3.912   0.346  11.983 -4.0784 -0.0098 -1.4904
 6732TIP3    H244392   3.934   0.206  11.928 -1.5549 -0.2548 -0.0338
 6733TIP3   OH244393   5.294   2.776  11.024  0.2001 -0.6413 -0.1781
 6733TIP3    H144394   5.306   2.845  10.959 -0.0819 -1.7178 -1.4240
 6733TIP3    H244395   5.366   2.787  11.086  1.4804 -0.6107 -1.6270
 6734TIP3   OH244396   6.177   6.337  11.789 -0.1787  0.4171 -0.6623
 6734TIP3    H144397   6.264   6.309  11.819 -0.5643  0.7143  0.8205
 6734TIP3    H244398   6.121   6.261  11.801 -0.5551  0.8469  0.3669
 6735TIP3   OH244399   3.869   1.694  12.010 -0.4078  0.6028 -0.8342
 6735TIP3    H144400   3.892   1.615  12.059  0.5925  1.5137  0.2295
 6735TIP3    H244401   3.819   1.747  12.072  1.1632  1.9290 -0.6433
 6736TIP3   OH244402   1.677   1.003  11.119 -0.7086  0.4894 -0.8521
 6736TIP3    H144403   1.735   0.975  11.047  0.7808 -2.2614  1.2189
 6736TIP3    H244404   1.736   1.040  11.184 -1.9809  2.3965 -0.7145
 6737TIP3   OH244405   6.668   5.338  11.247 -0.4028  0.3939  0.0818
 6737TIP3    H144406   6.690   5.299  11.331  0.4049 -0.1403 -0.3579
 6737TIP3    H244407   6.749   5.330  11.196 -1.1610 -0.1820 -1.0739
 6738TIP3   OH244408   5.788   4.632  12.194  0.0334 -0.1631 -0.2390
 6738TIP3    H144409   5.873   4.662  12.227 -0.2332  0.0512  0.2638
 6738TIP3    H244410   5.768   4.555  12.247 -0.0183 -0.2972 -0.4554
 6739TIP3   OH244411   5.028   2.782  11.119  0.1701  0.0646  0.2010
 6739TIP3    H144412   5.000   2.693  11.099  0.3330 -0.3821  1.7791
 6739TIP3    H244413   5.124   2.779  11.113  0.1828  0.0935  0.3680
 6740TIP3   OH244414   4.027   1.273  11.648  0.3590 -0.2339  0.0534
 6740TIP3    H144415   4.093   1.267  11.578 -0.6602  0.3177 -1.0071
 6740TIP3    H244416   3.977   1.192  11.641  0.3677 -0.2596  0.2793
 6741TIP3   OH244417   3.809   4.604  13.176  0.1778 -0.2562  0.4010
 6741TIP3    H144418   3.815   4.509  13.164  0.2435 -0.2089  0.0502
 6741TIP3    H244419   3.887   4.639  13.133  0.3888 -0.0758  0.9278
 6742TIP3   OH244420   7.533   1.495  12.551  0.3095 -0.1103  0.0035
 6742TIP3    H144421   7.537   1.511  12.646 -1.2698 -0.8973  0.2224
 6742TIP3    H244422   7.482   1.568  12.517  1.0548  0.2878 -0.3018
 6743TIP3   OH244423   0.424   0.024  11.761 -0.2119 -0.0541  0.6504
 6743TIP3    H144424   0.363   0.095  11.779 -2.5942 -1.6211 -0.6183
 6743TIP3    H244425   0.506   0.067  11.735 -1.1501  2.1645  1.2137
 6744TIP3   OH244426   6.515   1.747  12.321  0.1865  0.0743  0.6750
 6744TIP3    H144427   6.426   1.764  12.290  0.5467  0.3654 -0.2476
 6744TIP3    H244428   6.571   1.786  12.254  1.0239 -1.6426  0.3060
 6745TIP3   OH244429   1.429   0.893  11.451 -0.6725 -0.0135 -0.1023
 6745TIP3    H144430   1.453   0.827  11.385  1.5299  0.1400  0.4685
 6745TIP3    H244431   1.466   0.859  11.532 -2.2455  0.4374  0.8360
 6746TIP3   OH244432   1.409   2.466  10.684 -0.0462 -0.3096  0.0652
 6746TIP3    H144433   1.458   2.543  10.714  0.2563 -0.2959 -0.4522
 6746TIP3    H244434   1.346   2.501  10.621 -1.6846 -0.1316  1.7170
 6747TIP3   OH244435   2.122   1.046  10.467  0.1126 -0.3448  0.0004
 6747TIP3    H144436   2.175   0.971  10.441 -1.6738 -1.4048 -0.7122
 6747TIP3    H244437   2.133   1.052  10.562  1.0222 -0.8950 -0.0608
 6748TIP3   OH244438   5.050   1.503  12.626  0.1138 -0.6968 -0.2429
 6748TIP3    H144439   5.020   1.591  12.603  2.3987  0.5675  1.2154
 6748TIP3    H244440   4.972   1.461  12.664 -1.1872  0.4401 -1.5016
 6749TIP3   OH244441   2.402   5.649  11.517 -0.3918  0.8834  0.0550
 6749TIP3    H144442   2.496   5.632  11.510 -0.7471 -1.1532 -0.4172
 6749TIP3    H244443   2.396   5.743  11.536  1.7133  1.1100 -0.1385
 6750TIP3   OH244444   0.768   5.953  11.135 -0.4653  0.0518  0.2813
 6750TIP3    H144445   0.675   5.945  11.154 -0.3192  0.1666  1.0608
 6750TIP3    H244446   0.808   5.877  11.179 -0.2777 -0.4516 -0.7183
 6751TIP3   OH244447   0.554   7.116  12.289  0.1464  0.6070 -0.4951
 6751TIP3    H144448   0.512   7.141  12.371 -0.0158 -0.9516 -0.0680
 6751TIP3    H244449   0.558   7.197  12.238  0.3565  1.6244  1.0820
 6752TIP3   OH244450   4.057   6.565  12.357  0.8328  0.5567  0.3483
 6752TIP3    H144451   4.119   6.526  12.420  1.7636 -1.7989 -1.8310
 6752TIP3    H244452   4.100   6.553  12.272 -1.5492  1.1345 -1.0078
 6753TIP3   OH244453   6.665   7.522  12.071 -0.1336  0.5309 -0.4061
 6753TIP3    H144454   6.606   7.586  12.034 -1.8186 -0.9537 -0.4267
 6753TIP3    H244455   6.681   7.460  12.000  0.3272  0.1512  0.0169
 6754TIP3   OH244456   4.019   0.014  12.489 -0.2175 -0.0509  0.0614
 6754TIP3    H144457   4.027   0.077  12.418 -1.7155 -1.6716 -1.6436
 6754TIP3    H244458   3.929  -0.018  12.482  0.5309 -2.4953  0.7314
 6755TIP3   OH244459   6.244   1.865  11.378 -0.2527  0.1956 -0.2256
 6755TIP3    H144460   6.338   1.874  11.395 -0.3802  1.6546 -0.1038
 6755TIP3    H244461   6.218   1.785  11.423  0.5743  0.8264  1.4385
 6756TIP3   OH244462   2.547   7.517  12.746 -0.7277 -0.0999 -0.9347
 6756TIP3    H144463   2.463   7.514  12.791 -1.9513  0.8097 -3.0127
 6756TIP3    H244464   2.586   7.431  12.762 -0.5832  0.4775  2.5993
 6757TIP3   OH244465   5.905   3.917  11.725  0.2162  0.0834 -0.0492
 6757TIP3    H144466   5.830   3.865  11.696  0.1003 -0.8313  1.7381
 6757TIP3    H244467   5.980   3.859  11.716  0.3450  0.1760  0.3827
 6758TIP3   OH244468   2.108   0.087  12.138 -0.2893  0.1641 -0.5203
 6758TIP3    H144469   2.073   0.002  12.161 -0.2639  0.5251  0.9440
 6758TIP3    H244470   2.197   0.070  12.107  0.3143 -0.2075  1.3285
 6759TIP3   OH244471   2.302   1.325  12.253  0.1985 -0.6085  0.2580
 6759TIP3    H144472   2.291   1.388  12.182 -0.8957 -0.8758  0.1753
 6759TIP3    H244473   2.396   1.328  12.273  0.4806 -0.3153 -0.9908
 6760TIP3   OH244474   0.182   2.873  13.549 -0.2636 -0.4610 -0.1427
 6760TIP3    H144475   0.231   2.795  13.523  0.5259  0.2511 -0.8472
 6760TIP3    H244476   0.107   2.875  13.489  0.4489  0.0512 -1.0464
 6761TIP3   OH244477   3.222   3.743  11.460  0.6879 -0.1419 -0.2152
 6761TIP3    H144478   3.182   3.748  11.373 -0.5322 -1.8134  0.2016
 6761TIP3    H244479   3.152   3.766  11.520  0.8150 -1.3820  0.4346
 6762TIP3   OH244480   3.877   0.218  13.163  0.9555 -0.2081  0.1263
 6762TIP3    H144481   3.972   0.207  13.167  0.9635 -1.9958 -2.3072
 6762TIP3    H244482   3.865   0.306  13.129  1.8322 -0.4145 -0.7967
 6763TIP3   OH244483   2.561   3.376  11.712  0.1033 -0.6776  0.3712
 6763TIP3    H144484   2.602   3.418  11.637  0.5054 -1.8511 -0.0898
 6763TIP3    H244485   2.553   3.446  11.777  1.3856 -0.0477 -0.1099
 6764TIP3   OH244486   3.376   4.603  11.037 -0.3077  0.1532 -0.6466
 6764TIP3    H144487   3.382   4.698  11.038 -1.3141  0.3134 -3.0888
 6764TIP3    H244488   3.314   4.582  11.106  1.9356  0.9720  1.7915
 6765TIP3   OH244489   3.880   7.233  12.431  0.5206  0.4610  0.0381
 6765TIP3    H144490   3.934   7.200  12.503 -0.5962  0.3236  0.8444
 6765TIP3    H244491   3.914   7.321  12.414  0.1833  0.8898  1.4193
 6766TIP3   OH244492   4.304   6.765  11.774 -0.4016 -0.1688  0.6175
 6766TIP3    H144493   4.396   6.741  11.781 -0.0329  0.5414 -1.1937
 6766TIP3    H244494   4.269   6.753  11.862  1.4858 -0.1507  1.4098
 6767TIP3   OH244495   1.553   4.408  10.694  0.5238  0.2261 -0.2545
 6767TIP3    H144496   1.499   4.339  10.732  0.4592 -1.1544 -2.6209
 6767TIP3    H244497   1.596   4.449  10.769 -1.4320 -0.6342  1.4472
 6768TIP3   OH244498   2.771   5.741  11.972 -0.1048 -0.2315 -0.0649
 6768TIP3    H144499   2.728   5.784  12.046  0.2950 -0.9955  0.6340
 6768TIP3    H244500   2.746   5.649  11.980  1.1069 -0.5769 -0.0298
 6769TIP3   OH244501   1.856   6.667  11.354  0.1515 -0.1965 -0.2057
 6769TIP3    H144502   1.874   6.761  11.357  1.3107 -0.4288  0.4721
 6769TIP3    H244503   1.760   6.662  11.359  0.1416  0.8856  2.4151
 6770TIP3   OH244504   7.574   4.059  13.141 -1.0149 -0.3345  0.1749
 6770TIP3    H144505   7.595   4.151  13.127 -0.5588 -0.2294  1.4533
 6770TIP3    H244506   7.487   4.060  13.181 -1.1032 -0.4821 -0.0078
 6771TIP3   OH244507   0.473   5.192  11.246  0.1640 -1.0868 -0.1565
 6771TIP3    H144508   0.432   5.107  11.261  1.1993 -1.7876 -1.1671
 6771TIP3    H244509   0.549   5.192  11.305 -1.2327  0.2500  1.7915
 6772TIP3   OH244510   6.049   5.822  10.562 -0.1099  0.1638 -0.1497
 6772TIP3    H144511   5.998   5.749  10.527 -0.3605  0.2383  0.0605
 6772TIP3    H244512   6.073   5.794  10.651  1.8651 -0.7056 -0.8897
 6773TIP3   OH244513   6.507   7.142  11.969  0.1058 -0.4412  0.2795
 6773TIP3    H144514   6.549   7.130  11.884  0.5464  1.4956  0.1740
 6773TIP3    H244515   6.579   7.152  12.031 -0.1274  1.2846  0.3454
 6774TIP3   OH244516   5.141   7.431  11.363  0.7174 -0.1803  0.2144
 6774TIP3    H144517   5.085   7.467  11.432  2.1057  2.5675  0.0308
 6774TIP3    H244518   5.215   7.392  11.410  0.3063 -0.8358  0.3343
 6775TIP3   OH244519   7.258   4.921  11.952 -0.1008  0.5400 -0.5261
 6775TIP3    H144520   7.334   4.949  11.901  1.4224 -1.6863  0.3665
 6775TIP3    H244521   7.230   4.840  11.910 -1.7662  1.0875 -0.5622
 6776TIP3   OH244522   2.179   4.516  11.125  0.0602 -0.0567 -0.4488
 6776TIP3    H144523   2.139   4.503  11.211 -2.1209  1.7619 -1.0825
 6776TIP3    H244524   2.257   4.569  11.142 -0.8557  1.0645  0.3349
 6777TIP3   OH244525   1.587   2.074  12.450  0.1395 -0.3658  0.2388
 6777TIP3    H144526   1.626   2.160  12.435  1.7310 -1.4721 -2.8331
 6777TIP3    H244527   1.494   2.092  12.466  0.6358  1.9393  0.8857
 6778TIP3   OH244528   3.772   7.292  11.875 -0.3042 -0.4183  0.3436
 6778TIP3    H144529   3.694   7.237  11.876 -0.6568  0.0467  2.1608
 6778TIP3    H244530   3.755   7.357  11.806 -1.7522 -0.0404  1.0222
 6779TIP3   OH244531   0.327   6.004  11.915 -0.4838  0.4827 -0.7168
 6779TIP3    H144532   0.365   5.927  11.956  0.4861  1.2111 -0.1793
 6779TIP3    H244533   0.281   5.971  11.838  0.4305 -0.5581 -0.8429
 6780TIP3   OH244534   3.406   6.580  10.792  0.4142 -0.4961 -0.4163
 6780TIP3    H144535   3.479   6.560  10.733 -0.0939 -0.1753 -1.1716
 6780TIP3    H244536   3.339   6.616  10.734 -0.3917 -0.9187  0.2489
 6781TIP3   OH244537   4.716   6.652  13.000  0.4487  0.3163 -0.1671
 6781TIP3    H144538   4.629   6.637  13.036  1.0589 -1.7157  0.5837
 6781TIP3    H244539   4.723   6.591  12.928  2.0935 -1.3824  1.3291
 6782TIP3   OH244540   1.903   6.967  12.497 -0.0028  0.3068 -0.5957
 6782TIP3    H144541   1.917   7.008  12.583 -0.4735  0.6003 -0.6630
 6782TIP3    H244542   1.873   7.037  12.440 -0.5153 -0.0596 -0.7885
 6783TIP3   OH244543   0.386   6.099  10.741  0.0472 -0.2572 -0.4819
 6783TIP3    H144544   0.349   6.182  10.710 -0.1424  0.1362  0.7456
 6783TIP3    H244545   0.316   6.035  10.727 -1.3312  0.5363  2.1338
 6784TIP3   OH244546   5.861   3.460  11.457  0.2108  0.7992  0.7384
 6784TIP3    H144547   5.894   3.423  11.375 -0.6396 -1.2069  1.2441
 6784TIP3    H244548   5.939   3.472  11.511  0.4974 -0.5248  0.6369
 6785TIP3   OH244549   3.349   3.861  10.468 -0.2026 -0.8223 -0.5238
 6785TIP3    H144550   3.285   3.808  10.421  3.0560 -2.6672 -3.3493
 6785TIP3    H244551   3.420   3.800  10.489  0.5018  0.9548  3.0072
 6786TIP3   OH244552   1.048   6.626  11.851 -0.9115 -0.3183 -0.3968
 6786TIP3    H144553   0.988   6.591  11.785 -1.2692 -2.3180  0.8885
 6786TIP3    H244554   1.001   6.698  11.891 -0.9023  0.5825 -1.9135
 6787TIP3   OH244555   5.874   6.192  11.569  0.9895  0.2226 -0.2720
 6787TIP3    H144556   5.926   6.229  11.498  1.8702  2.0314  1.2329
 6787TIP3    H244557   5.862   6.264  11.630 -1.9132 -0.5732  0.2652
 6788TIP3   OH244558   6.485   5.093  12.444 -0.2398  0.0020  0.3240
 6788TIP3    H144559   6.503   5.173  12.394  0.4670  0.1773  0.8458
 6788TIP3    H244560   6.490   5.023  12.379 -1.8924  0.4469 -0.3510
 6789TIP3   OH244561   0.308   6.354  10.673 -0.6708 -0.4448  0.0153
 6789TIP3    H144562   0.230   6.393  10.711  0.9184  1.7225  1.3431
 6789TIP3    H244563   0.335   6.416  10.604 -0.4328 -1.4579 -0.8292
 6790TIP3   OH244564   1.160   0.050  11.754  0.4173 -0.3886  0.2119
 6790TIP3    H144565   1.113  -0.014  11.807  1.0120  0.4182  1.7753
 6790TIP3    H244566   1.212  -0.003  11.693  0.6403 -1.3978  1.2456
 6791TIP3   OH244567   0.806   1.719  11.518 -0.0982  0.2640 -0.5522
 6791TIP3    H144568   0.821   1.707  11.612 -0.3452  0.5686 -0.4747
 6791TIP3    H244569   0.712   1.708  11.507 -0.4285  2.5027 -0.4131
 6792TIP3   OH244570   0.018   2.122  12.206  0.6675 -0.0435 -0.0524
 6792TIP3    H144571  -0.077   2.117  12.194  0.3985  0.9786  1.3292
 6792TIP3    H244572   0.048   2.181  12.137  0.5723 -1.6689 -1.5499
 6793TIP3   OH244573   2.369   6.675  12.249 -0.3413  0.5736 -0.2244
 6793TIP3    H144574   2.317   6.627  12.314  0.6250 -0.0174  0.1348
 6793TIP3    H244575   2.432   6.726  12.300  0.0491  0.5515 -0.6722
 6794TIP3   OH244576   3.437   4.803  10.461  0.0417 -0.7482  0.4940
 6794TIP3    H144577   3.503   4.858  10.420 -0.5052  0.0542  0.6576
 6794TIP3    H244578   3.443   4.823  10.554 -1.2410  0.2875  0.3941
 6795TIP3   OH244579   2.444   1.730  12.881 -0.5068 -0.3996  0.1511
 6795TIP3    H144580   2.421   1.822  12.867 -0.5499 -0.2583  1.1045
 6795TIP3    H244581   2.418   1.686  12.800  0.5503  0.6053 -0.7821
 6796TIP3   OH244582   3.660   4.832  10.914  0.5534  0.1439 -0.2051
 6796TIP3    H144583   3.620   4.842  10.828  1.0665 -1.2801 -0.6341
 6796TIP3    H244584   3.755   4.836  10.897  0.6784 -0.9342  0.1565
 6797TIP3   OH244585   2.771   1.749  11.063 -0.0932 -0.0692  0.1009
 6797TIP3    H144586   2.820   1.804  11.002 -0.2207  0.8654  0.8314
 6797TIP3    H244587   2.775   1.795  11.146 -2.4537  0.1914  0.1402
 6798TIP3   OH244588   6.798   4.942  10.896  0.1704  0.3048 -0.2327
 6798TIP3    H144589   6.728   5.005  10.911  0.8089  1.3310 -1.3608
 6798TIP3    H244590   6.849   4.943  10.977 -0.1124  0.8578 -0.0576
 6799TIP3   OH244591   0.616   1.264  11.014 -0.4194  0.0585  0.0897
 6799TIP3    H144592   0.617   1.335  10.950 -1.3305  0.8893  0.9555
 6799TIP3    H244593   0.687   1.206  10.988  0.0433  1.0512 -0.9070
 6800TIP3   OH244594   0.841   4.152  10.717  0.5908 -0.1822  0.4225
 6800TIP3    H144595   0.784   4.080  10.742  0.8771 -0.5273  0.0813
 6800TIP3    H244596   0.927   4.113  10.706  0.3772 -0.1790 -1.7073
 6801TIP3   OH244597   2.200   2.584  10.781  0.2803 -0.2388  0.6678
 6801TIP3    H144598   2.137   2.657  10.786 -0.5551 -0.8561 -0.4836
 6801TIP3    H244599   2.146   2.508  10.761  1.5115 -0.5572 -1.7959
 6802TIP3   OH244600   7.337   7.115  10.650  0.4305  0.6684 -0.5715
 6802TIP3    H144601   7.323   7.192  10.595 -1.0553  0.3693 -0.6477
 6802TIP3    H244602   7.255   7.065  10.643  0.7378 -0.0729  0.8006
 6803TIP3   OH244603   1.846   0.843  11.669 -0.5527 -0.0295  0.0916
 6803TIP3    H144604   1.799   0.812  11.747  0.3648 -0.2884  0.5559
 6803TIP3    H244605   1.778   0.878  11.612 -1.4427 -1.4316  0.2476
 6804TIP3   OH244606   4.915   2.129  11.989  0.3768 -0.3119  1.0225
 6804TIP3    H144607   4.868   2.118  11.906  0.6959 -4.4932  1.1995
 6804TIP3    H244608   4.857   2.185  12.042  0.3636  2.8528 -1.9794
 6805TIP3   OH244609   6.846   6.561  13.059  0.5128  0.0785  0.1814
 6805TIP3    H144610   6.888   6.567  13.144  2.1143 -2.7538 -0.2744
 6805TIP3    H244611   6.796   6.479  13.063  1.2130 -0.5096 -1.7728
 6806TIP3   OH244612   5.911   2.229  12.866  0.0979  0.4592  0.1401
 6806TIP3    H144613   5.964   2.308  12.878  0.6366  0.2229 -0.5758
 6806TIP3    H244614   5.826   2.250  12.903  0.2523  1.3614 -0.0105
 6807TIP3   OH244615   0.948   1.149  11.495 -0.2139  0.3294 -0.8723
 6807TIP3    H144616   0.984   1.073  11.540  0.1770  1.3157  0.5311
 6807TIP3    H244617   0.853   1.138  11.502 -0.2123 -0.9607 -2.3374
 6808TIP3   OH244618   1.074   0.347  10.504  0.2793  0.4550 -0.1552
 6808TIP3    H144619   1.046   0.257  10.491 -0.5834  0.8967 -1.5976
 6808TIP3    H244620   1.000   0.390  10.547  0.7049  0.4822  0.5697
 6809TIP3   OH244621   6.890   2.973  11.117  0.0770 -0.2748  0.7535
 6809TIP3    H144622   6.844   2.891  11.136 -1.6952  0.6805  0.7902
 6809TIP3    H244623   6.932   2.997  11.200  0.8457 -1.2825  0.6619
 6810TIP3   OH244624   0.734   6.699  11.156 -0.1749 -0.9670 -0.1429
 6810TIP3    H144625   0.795   6.629  11.179  1.5160  0.4654 -0.0513
 6810TIP3    H244626   0.696   6.727  11.239  0.0348 -1.0005 -0.0360
 6811TIP3   OH244627   6.433   6.831  10.510 -0.2044 -0.0834 -0.1306
 6811TIP3    H144628   6.361   6.787  10.465  1.0259 -1.1531 -1.1398
 6811TIP3    H244629   6.395   6.913  10.541 -2.0527 -0.9721  0.0744
 6812TIP3   OH244630   6.013   3.049  12.178  0.4852  0.4334 -0.0642
 6812TIP3    H144631   6.050   3.064  12.265  1.6010  1.6558 -0.7207
 6812TIP3    H244632   6.082   3.074  12.118  0.2788 -1.7927 -1.3401
 6813TIP3   OH244633   7.267   5.244  12.686  0.3605  0.3749 -0.0813
 6813TIP3    H144634   7.182   5.255  12.729  0.1817  0.0459 -0.3447
 6813TIP3    H244635   7.305   5.332  12.685  0.1691  0.4653  0.3391
 6814TIP3   OH244636   2.780   0.307  12.434 -0.2290 -0.2647 -0.1938
 6814TIP3    H144637   2.837   0.244  12.479 -0.2491 -0.1890 -0.0611
 6814TIP3    H244638   2.734   0.255  12.368 -0.0521 -0.3374 -0.2595
 6815TIP3   OH244639   1.265   5.890  10.363  0.1777  0.5089  0.2141
 6815TIP3    H144640   1.197   5.945  10.403  0.6318  0.8795  0.4884
 6815TIP3    H244641   1.221   5.807  10.344 -0.2267  0.5700  0.8510
 6816TIP3   OH244642   5.447   4.834  11.440 -0.5615  0.5145  0.2755
 6816TIP3    H144643   5.459   4.854  11.347 -1.5043  2.2749  0.4881
 6816TIP3    H244644   5.535   4.810  11.471  0.4938  3.1047 -0.3900
 6817TIP3   OH244645   0.233   5.866  10.720 -0.7088 -0.3485  0.4127
 6817TIP3    H144646   0.303   5.806  10.746 -0.8482  0.1338  2.0157
 6817TIP3    H244647   0.189   5.889  10.802 -0.2548  2.4213 -0.0117
 6818TIP3   OH244648   0.145   6.295  11.079 -0.1908  0.2750 -0.1654
 6818TIP3    H144649   0.181   6.345  11.006 -3.2226 -0.1748 -2.1590
 6818TIP3    H244650   0.066   6.342  11.104 -1.4026 -1.7463  0.0662
 6819TIP3   OH244651   1.110   3.817  11.390  0.1751  0.3602 -0.7656
 6819TIP3    H144652   1.195   3.773  11.397 -0.5719 -0.9304  0.4552
 6819TIP3    H244653   1.128   3.907  11.417  1.0440 -0.0274 -0.0053
 6820TIP3   OH244654   1.473   6.814  11.830  0.0808 -0.3206 -1.0301
 6820TIP3    H144655   1.427   6.860  11.900  0.8123  0.4496 -1.0501
 6820TIP3    H244656   1.492   6.727  11.866 -2.6789 -1.2266 -1.5268
 6821TIP3   OH244657   6.991   3.986  13.372  0.0227 -0.8235  0.4429
 6821TIP3    H144658   7.024   3.984  13.282 -1.1297 -2.9229  0.0010
 6821TIP3    H244659   6.994   4.078  13.396 -0.9554  0.0376 -2.2618
 6822TIP3   OH244660   1.907   3.766  10.542  0.4672 -0.7915 -0.2558
 6822TIP3    H144661   1.840   3.766  10.610  0.1903  2.6415 -0.3662
 6822TIP3    H244662   1.979   3.817  10.579  0.4335  0.8991 -2.3789
 6823TIP3   OH244663   2.685   0.145  11.015 -0.0666 -0.2608  0.0871
 6823TIP3    H144664   2.775   0.113  11.007 -0.1666 -0.3329 -0.9052
 6823TIP3    H244665   2.632   0.080  10.969 -0.6853 -0.4389  1.0251
 6824TIP3   OH244666   5.605   4.184  16.816  0.2005  0.0491  0.1588
 6824TIP3    H144667   5.615   4.261  16.872 -0.8612  1.0332 -0.9594
 6824TIP3    H244668   5.517   4.191  16.781  0.8307 -0.5322 -1.6442
 6825TIP3   OH244669   1.649   5.228  10.859  0.3561 -0.0081 -0.8176
 6825TIP3    H144670   1.690   5.241  10.774 -0.1880  2.1831 -0.8005
 6825TIP3    H244671   1.711   5.266  10.921  0.2325 -0.5692 -0.3443
 6826TIP3   OH244672   0.817   0.593  12.077 -0.4086 -0.1474  0.0928
 6826TIP3    H144673   0.853   0.518  12.030 -2.2216  0.7019 -2.8858
 6826TIP3    H244674   0.722   0.589  12.062 -0.5515  2.9827 -0.6649
 6827TIP3   OH244675   3.410   1.832  11.957  0.2791  0.0547 -1.1377
 6827TIP3    H144676   3.414   1.773  12.033  0.5113  0.8021 -0.5622
 6827TIP3    H244677   3.415   1.773  11.881  0.1954 -0.6898 -0.5761
 6828TIP3   OH244678   6.434   5.059  12.122 -0.2210  0.2995  0.0764
 6828TIP3    H144679   6.415   4.977  12.076  0.4215 -0.2188  0.7152
 6828TIP3    H244680   6.504   5.100  12.071  0.7914 -0.4790  0.7862
 6829TIP3   OH244681   0.786   4.386  10.923 -0.6375  0.3651  0.7905
 6829TIP3    H144682   0.819   4.393  10.834 -1.3914 -2.3783  0.2139
 6829TIP3    H244683   0.723   4.458  10.931 -0.0594  1.0750 -0.6152
 6830TIP3   OH244684   6.750   5.175  11.498 -0.2782 -0.2499  0.0769
 6830TIP3    H144685   6.811   5.108  11.530  0.0160  0.4049  0.9351
 6830TIP3    H244686   6.665   5.132  11.499 -0.0611 -0.6818  0.4233
 6831TIP3   OH244687   4.533   4.700  12.296 -0.7429  0.7326  0.3325
 6831TIP3    H144688   4.606   4.737  12.347 -0.4628 -0.2568  0.6603
 6831TIP3    H244689   4.455   4.736  12.337 -0.5491 -0.4734  1.8412
 6832TIP3   OH244690   3.731   0.420  11.071 -0.2048 -0.1170 -0.3803
 6832TIP3    H144691   3.661   0.480  11.096  0.0329 -0.6596  1.8060
 6832TIP3    H244692   3.698   0.333  11.095  1.6220 -0.2777  1.9032
 6833TIP3   OH244693   6.339   1.069  12.744  0.0375 -0.0043  0.1532
 6833TIP3    H144694   6.404   1.000  12.729 -0.6782 -0.8647  0.8942
 6833TIP3    H244695   6.274   1.029  12.803 -2.1990  0.1464 -2.0127
 6834TIP3   OH244696   6.241   0.208  12.193 -0.2461  0.3296  0.0049
 6834TIP3    H144697   6.211   0.129  12.149 -0.0309 -0.5863  1.4298
 6834TIP3    H244698   6.183   0.277  12.162 -0.1131 -0.2550 -1.6617
 6835TIP3   OH244699   1.985   3.912  11.637 -0.0009 -0.3525  0.1566
 6835TIP3    H144700   2.055   3.853  11.609  0.4729  0.4021 -0.2901
 6835TIP3    H244701   1.909   3.886  11.586  0.8710  1.0774 -2.0130
 6836TIP3   OH244702   6.070   0.061  12.412 -0.2965  0.4202 -0.4244
 6836TIP3    H144703   6.017  -0.006  12.454  0.2832 -0.2055 -0.6777
 6836TIP3    H244704   6.050   0.053  12.318 -0.9319  1.2358 -0.3740
 6837TIP3   OH244705   6.828   2.590  12.215  0.3657  0.1715 -0.3178
 6837TIP3    H144706   6.755   2.625  12.266  0.3957  0.6194 -0.5721
 6837TIP3    H244707   6.835   2.650  12.141 -0.3585 -1.0360 -1.4154
 6838TIP3   OH244708   6.992   2.308  12.080 -0.1818  0.4694  0.1137
 6838TIP3    H144709   6.959   2.263  12.158 -0.2661 -1.4168 -0.9577
 6838TIP3    H244710   6.938   2.275  12.008  1.7839 -0.1023 -1.1873
 6839TIP3   OH244711   4.045   4.376  12.778  0.2908 -0.2231  0.3060
 6839TIP3    H144712   4.076   4.368  12.688 -2.4120 -0.4628 -0.6774
 6839TIP3    H244713   4.050   4.469  12.797 -1.3507  0.1682 -0.9952
 6840TIP3   OH244714   3.188   2.646  11.529  0.2404 -0.4405 -0.2494
 6840TIP3    H144715   3.274   2.650  11.487 -1.4334 -0.5827 -4.1330
 6840TIP3    H244716   3.176   2.733  11.567  1.1470  0.4327 -1.8519
 6841TIP3   OH244717   5.092   0.086  12.591 -0.4784 -1.1411  0.5070
 6841TIP3    H144718   5.009   0.040  12.577 -1.6410  0.9547  0.1179
 6841TIP3    H244719   5.081   0.131  12.674 -0.6392  0.9079 -0.5679
 6842TIP3   OH244720   2.684   4.166  11.908 -0.5205  0.3377  0.0407
 6842TIP3    H144721   2.732   4.087  11.934 -0.5646  0.7509  1.5066
 6842TIP3    H244722   2.719   4.189  11.822 -1.9086 -2.3805 -1.3811
 6843TIP3   OH244723   5.654   2.240  12.984  0.2661  0.4361 -0.5851
 6843TIP3    H144724   5.615   2.239  12.896 -0.8743  0.2454 -0.0938
 6843TIP3    H244725   5.635   2.153  13.019 -0.0307  0.8046  0.1737
 6844TIP3   OH244726   0.126   6.918  11.694  0.2898 -0.0211 -0.0927
 6844TIP3    H144727   0.038   6.948  11.718  0.7532  1.3708 -0.0253
 6844TIP3    H244728   0.141   6.841  11.748 -0.5769  0.2006  0.4869
 6845TIP3   OH244729   2.785   1.274  13.142  0.2184 -0.3340  0.1459
 6845TIP3    H144730   2.876   1.261  13.116  0.7075  0.9881  1.0716
 6845TIP3    H244731   2.736   1.207  13.093  1.3487  0.4956 -2.2616
 6846TIP3   OH244732   1.846   2.004  10.977 -0.4679 -0.6923 -0.3627
 6846TIP3    H144733   1.915   1.947  11.012 -0.9500 -0.6649  0.6714
 6846TIP3    H244734   1.839   2.075  11.041 -1.9983 -1.1127 -0.0282
 6847TIP3   OH244735   5.439   6.202  12.164  0.2228  0.2646 -1.0724
 6847TIP3    H144736   5.370   6.165  12.219  0.4828 -0.2212 -1.0685
 6847TIP3    H244737   5.467   6.130  12.108  0.8020  0.4266 -0.9998
 6848TIP3   OH244738   4.033   3.965  12.013  0.0754 -0.2074  0.1403
 6848TIP3    H144739   3.960   4.005  12.061  0.9918  0.3292  1.1152
 6848TIP3    H244740   3.998   3.951  11.924 -1.5429 -0.9110  0.8336
 6849TIP3   OH244741   0.015   3.503  11.677 -0.2429 -0.3031 -0.5391
 6849TIP3    H144742   0.096   3.465  11.642 -0.1231 -0.9998  0.4535
 6849TIP3    H244743   0.045   3.571  11.738 -0.3352 -1.4991  0.8966
 6850TIP3   OH244744   4.437   6.257  12.107  0.0864 -0.6358 -0.2517
 6850TIP3    H144745   4.415   6.290  12.020  0.3988 -0.2427 -0.1824
 6850TIP3    H244746   4.385   6.177  12.116 -1.5744  0.4523  0.0613
 6851TIP3   OH244747   1.303   2.745  12.538 -0.0010  0.2971  0.7473
 6851TIP3    H144748   1.328   2.700  12.457 -0.5215 -1.9749  1.7876
 6851TIP3    H244749   1.208   2.743  12.539 -0.0274 -2.3098  2.7068
 6852TIP3   OH244750   1.196   7.181  10.297  0.6131 -0.5764  0.7142
 6852TIP3    H144751   1.282   7.192  10.338  0.0126  1.9125  1.5020
 6852TIP3    H244752   1.207   7.213  10.207  0.6686 -0.9768  0.5755
 6853TIP3   OH244753   1.617   1.167  12.698 -0.5295 -0.5967 -0.1702
 6853TIP3    H144754   1.660   1.140  12.779  0.2090 -1.5497 -0.8518
 6853TIP3    H244755   1.684   1.159  12.631 -1.6849 -1.9670 -1.2364
 6854TIP3   OH244756   0.712   2.951  12.223 -0.4006  0.2227  0.0621
 6854TIP3    H144757   0.738   2.970  12.133  1.0527 -1.4960  0.0656
 6854TIP3    H244758   0.700   3.037  12.263  0.6748  1.0482 -1.3042
 6855TIP3   OH244759   3.182   4.050  10.672 -0.1204 -0.4104  0.0103
 6855TIP3    H144760   3.210   4.007  10.752  1.1294 -1.4461 -0.9439
 6855TIP3    H244761   3.205   3.988  10.602 -1.6449  0.2232 -1.1247
 6856TIP3   OH244762   6.872   3.855  12.880 -0.0891  0.1819  0.6331
 6856TIP3    H144763   6.938   3.887  12.942  0.5885  1.8975 -0.8822
 6856TIP3    H244764   6.913   3.779  12.839  1.0991  1.3593 -0.4508
 6857TIP3   OH244765   4.672   7.355  12.454 -0.5228  0.5464 -0.8470
 6857TIP3    H144766   4.693   7.271  12.415  0.9629  0.7946 -0.6412
 6857TIP3    H244767   4.688   7.419  12.384  0.3828  0.8277 -0.4013
 6858TIP3   OH244768   2.802   4.537  11.865 -0.6077 -0.0873 -0.1944
 6858TIP3    H144769   2.805   4.515  11.773  1.8986 -1.0146  0.0389
 6858TIP3    H244770   2.732   4.483  11.901 -0.3134 -1.1790 -1.2191
 6859TIP3   OH244771   4.837   6.935  11.682 -0.3658 -0.3516 -0.3812
 6859TIP3    H144772   4.900   6.977  11.625 -1.3201  1.1829 -0.3751
 6859TIP3    H244773   4.879   6.854  11.710  1.2152  0.2016 -1.0669
 6860TIP3   OH244774   2.721   0.600  10.727 -0.0129 -0.0306  0.1396
 6860TIP3    H144775   2.658   0.540  10.766  0.1151 -0.3831 -0.1901
 6860TIP3    H244776   2.756   0.650  10.801 -0.8900  0.3765  0.2892
 6861TIP3   OH244777   1.462   1.493  12.622 -0.0369 -0.1620  0.4994
 6861TIP3    H144778   1.445   1.578  12.583  1.4015 -0.6688 -1.3553
 6861TIP3    H244779   1.422   1.498  12.709  0.1568  2.4361  0.5078
 6862TIP3   OH244780   5.599   7.169  11.437  0.2016  0.0777 -0.1963
 6862TIP3    H144781   5.631   7.097  11.384  1.6239  0.6938 -0.2038
 6862TIP3    H244782   5.550   7.127  11.507  0.9323 -0.8911 -0.2457
 6863TIP3   OH244783   6.337   3.887  11.251 -0.2226 -0.0993 -0.9194
 6863TIP3    H144784   6.340   3.804  11.204 -2.2737  0.7810 -2.7941
 6863TIP3    H244785   6.401   3.877  11.322  1.9357 -2.0653 -2.9781
 6864TIP3   OH244786   7.477   5.780  11.729 -0.2469  0.1989  0.0576
 6864TIP3    H144787   7.381   5.782  11.724 -0.3375  1.4314  1.4832
 6864TIP3    H244788   7.504   5.866  11.695  0.1732  0.8074  1.8149
 6865TIP3   OH244789   7.161   6.403  11.187  0.3579 -0.9400  0.2649
 6865TIP3    H144790   7.244   6.356  11.198  0.3553 -0.6493  1.8533
 6865TIP3    H244791   7.107   6.374  11.261 -0.5460 -0.2714 -0.1072
 6866TIP3   OH244792   4.338   5.539  11.824 -0.6640  0.5498  0.1329
 6866TIP3    H144793   4.421   5.586  11.830  0.6676 -1.7551  1.0877
 6866TIP3    H244794   4.318   5.515  11.914 -2.2333  0.7984 -0.1331
 6867TIP3   OH244795   5.990   1.037  11.906 -0.4771  0.6829 -0.4693
 6867TIP3    H144796   5.993   1.031  12.001  0.7672 -1.0516 -0.5679
 6867TIP3    H244797   5.896   1.036  11.885 -0.7631 -1.2245  0.6703
 6868TIP3   OH244798   3.968   5.537  12.257 -0.2526  0.6024  0.5075
 6868TIP3    H144799   3.948   5.444  12.260  0.5504  0.4196  0.3456
 6868TIP3    H244800   4.058   5.542  12.224 -0.2874  1.4325  0.5022
 6869TIP3   OH244801   1.747   4.717  10.899  0.0908 -0.2785 -0.0311
 6869TIP3    H144802   1.824   4.662  10.914 -0.4985 -0.6649  1.9773
 6869TIP3    H244803   1.777   4.805  10.919  0.0755 -0.4027  0.5602
 6870TIP3   OH244804   3.209   1.210  12.784  0.0879 -0.6534 -0.7512
 6870TIP3    H144805   3.145   1.233  12.852  0.6107 -0.5464 -0.2815
 6870TIP3    H244806   3.293   1.242  12.819  0.7446 -2.6534 -0.3694
 6871TIP3   OH244807   1.994   5.649  11.276  0.6895  0.3070  0.9297
 6871TIP3    H144808   2.020   5.565  11.239 -2.2379 -1.9752  3.5230
 6871TIP3    H244809   1.944   5.692  11.207  0.2619 -1.1564  0.3071
 6872TIP3   OH244810   3.479   5.375  10.799 -0.3386 -1.0268  0.0304
 6872TIP3    H144811   3.526   5.363  10.882 -0.8673  0.7339  0.6157
 6872TIP3    H244812   3.548   5.371  10.732  0.0033 -3.2186  0.4244
 6873TIP3   OH244813   6.415   0.838  11.001 -0.1357 -0.1075  0.4758
 6873TIP3    H144814   6.501   0.866  11.033  0.1081 -1.3300  0.9293
 6873TIP3    H244815   6.359   0.838  11.079 -0.7946  1.4854  0.0459
 6874TIP3   OH244816   3.648   6.630  12.281 -0.1140  0.3920  0.8083
 6874TIP3    H144817   3.667   6.543  12.316  0.6661  0.2387  0.0348
 6874TIP3    H244818   3.707   6.688  12.328  0.0952  0.3574  0.5864
 6875TIP3   OH244819   6.552   1.014  10.803 -0.7634 -0.0418  0.2326
 6875TIP3    H144820   6.514   0.956  10.738 -0.5071 -0.0534  0.0928
 6875TIP3    H244821   6.482   1.077  10.822 -0.7816  0.0717 -0.1871
 6876TIP3   OH244822   2.343   2.474  11.532  0.2265 -0.0432 -0.7943
 6876TIP3    H144823   2.412   2.410  11.516 -0.9256 -1.1798 -1.3844
 6876TIP3    H244824   2.372   2.553  11.487  1.9374  0.0607  0.4094
 6877TIP3   OH244825   1.682   3.810  11.688  0.0574  0.2953  0.0745
 6877TIP3    H144826   1.645   3.884  11.639  0.9751  0.4173 -0.4526
 6877TIP3    H244827   1.664   3.734  11.633  1.2078  0.4503 -0.5381
 6878TIP3   OH244828   5.202   6.161  11.854  0.0011  0.3362 -0.2963
 6878TIP3    H144829   5.232   6.147  11.765 -1.8450  0.9149 -1.0554
 6878TIP3    H244830   5.192   6.256  11.862 -1.2481  0.1908  0.0254
 6879TIP3   OH244831   1.991   2.768  10.725  0.0364 -0.4153 -0.1727
 6879TIP3    H144832   1.990   2.815  10.641  0.5965  0.7969  0.4689
 6879TIP3    H244833   1.903   2.779  10.760  0.0136 -0.2778 -0.2715
 6880TIP3   OH244834   3.084   2.633  11.025 -0.1034 -0.0845  0.1606
 6880TIP3    H144835   3.005   2.667  10.984 -1.2978 -0.9168  1.6641
 6880TIP3    H244836   3.129   2.585  10.955 -0.6176  0.8904 -0.8526
 6881TIP3   OH244837   2.646   2.515  11.538  0.1863  0.2310  0.1971
 6881TIP3    H144838   2.650   2.610  11.534  1.1809  0.2218  0.7399
 6881TIP3    H244839   2.729   2.486  11.500  0.5387 -0.3721  1.3819
 6882TIP3   OH244840   3.283   4.631  12.283  0.1011 -0.1169  0.5027
 6882TIP3    H144841   3.202   4.584  12.300  0.9061 -0.9238  2.4209
 6882TIP3    H244842   3.297   4.685  12.361  0.9984  0.6210 -0.1385
 6883TIP3   OH244843   7.544   2.088  11.514  0.0722 -0.2172  0.4525
 6883TIP3    H144844   7.579   2.066  11.601 -1.4409 -0.3064  1.0702
 6883TIP3    H244845   7.604   2.046  11.453  0.8721 -0.6010  1.4751
 6884TIP3   OH244846   0.086   3.282  10.808 -0.3574  0.1233 -0.3291
 6884TIP3    H144847   0.150   3.291  10.879 -0.5800 -0.4077 -0.0545
 6884TIP3    H244848   0.125   3.329  10.735 -0.2086  0.8388  0.1987
 6885TIP3   OH244849   6.307   5.711  11.418  0.7699 -0.0187 -0.6740
 6885TIP3    H144850   6.342   5.700  11.506 -0.8641 -0.1967 -0.0149
 6885TIP3    H244851   6.322   5.626  11.376  0.4466 -0.3368 -0.1505
 6886TIP3   OH244852   6.782   6.821  12.308  0.1016 -0.3012  0.5751
 6886TIP3    H144853   6.752   6.851  12.394 -0.1142  0.2354  0.3221
 6886TIP3    H244854   6.705   6.781  12.268  0.3826 -1.1930  0.8998
 6887TIP3   OH244855   3.884   7.015  11.962 -0.0283 -0.0856  0.0053
 6887TIP3    H144856   3.792   7.024  11.937  0.0525  0.5798 -0.0578
 6887TIP3    H244857   3.917   6.945  11.906  0.0313  1.0607 -1.4578
 6888TIP3   OH244858   4.106   6.711  11.570 -0.5516  0.3964  0.1615
 6888TIP3    H144859   4.167   6.740  11.638 -0.8297  0.7149  0.2826
 6888TIP3    H244860   4.033   6.773  11.576 -0.3602  0.7336 -0.7498
 6889TIP3   OH244861   4.992   7.352  11.980 -0.8253 -0.2827  0.2390
 6889TIP3    H144862   4.958   7.365  12.068  1.3359  1.6877  0.8807
 6889TIP3    H244863   5.032   7.265  11.982 -0.4357 -0.0908  1.3383
 6890TIP3   OH244864   0.699   3.922  10.790 -0.4336  0.3563 -1.4589
 6890TIP3    H144865   0.626   3.887  10.841 -0.5099 -0.6576 -2.2115
 6890TIP3    H244866   0.701   3.867  10.711  1.5672 -0.1106 -1.1401
 6891TIP3   OH244867   4.732   7.271  11.043  0.4171  0.0872  0.0744
 6891TIP3    H144868   4.669   7.340  11.065  0.6211  0.9899 -1.9551
 6891TIP3    H244869   4.787   7.310  10.975  2.1760 -1.2316  0.6896
 6892TIP3   OH244870   7.490   4.541  11.830  0.5408 -0.7438  0.3694
 6892TIP3    H144871   7.484   4.582  11.916  1.2185 -0.2735  0.2010
 6892TIP3    H244872   7.452   4.454  11.842 -0.1632 -0.3641  0.9293
 6893TIP3   OH244873   6.525   3.493  10.683 -0.1896  0.6208 -0.5860
 6893TIP3    H144874   6.611   3.455  10.698 -0.3692  0.1041 -0.8436
 6893TIP3    H244875   6.528   3.578  10.726  0.6072  0.8028 -0.9891
 6894TIP3   OH244876   4.009   4.534  10.769  0.3631 -0.2592 -0.0395
 6894TIP3    H144877   3.915   4.545  10.754  0.1720 -1.7617 -0.0594
 6894TIP3    H244878   4.019   4.541  10.864  0.7048  2.9119 -0.1780
 6895TIP3   OH244879   2.395   2.405  12.194 -0.0429 -0.0382 -0.5435
 6895TIP3    H144880   2.328   2.432  12.131 -0.0769 -0.9814 -0.9381
 6895TIP3    H244881   2.476   2.444  12.161 -0.2717  0.4808 -0.4915
 6896TIP3   OH244882   1.835   1.156  11.920  0.1454 -0.1650 -0.3165
 6896TIP3    H144883   1.760   1.173  11.864 -1.5986 -0.2673  1.8251
 6896TIP3    H244884   1.837   1.231  11.981  1.3914 -0.4860  0.0786
 6897TIP3   OH244885   1.758   2.762  11.719  0.5261  0.4091 -0.1395
 6897TIP3    H144886   1.716   2.826  11.777  0.7304 -0.3406  0.8594
 6897TIP3    H244887   1.847   2.754  11.753  1.1741  1.1632 -1.5660
 6898TIP3   OH244888   3.831   7.270  10.988  0.2278  0.4909 -0.0914
 6898TIP3    H144889   3.844   7.257  11.082  0.2048 -2.8539 -0.4428
 6898TIP3    H244890   3.920   7.270  10.952  0.1921 -2.1424 -0.3803
 6899TIP3   OH244891   0.231   2.714  13.152 -0.2989  0.1842 -0.1543
 6899TIP3    H144892   0.276   2.697  13.070  0.6788  1.4086  0.0978
 6899TIP3    H244893   0.294   2.763  13.205 -0.3236 -1.8208  1.9396
 6900TIP3   OH244894   6.681   0.951  11.010  0.3375  0.4634  0.5063
 6900TIP3    H144895   6.684   1.032  11.062 -0.3430  0.5252  0.4544
 6900TIP3    H244896   6.647   0.978  10.925 -0.8925 -0.0281  0.8129
 6901TIP3   OH244897   0.876   5.955  13.290  0.3304 -0.0318  0.3212
 6901TIP3    H144898   0.813   5.997  13.231  0.5806  0.9928  0.7694
 6901TIP3    H244899   0.956   6.006  13.279  0.3424  0.2764  1.6504
 6902TIP3   OH244900   6.008   5.074  12.588  0.1606 -0.0614 -0.1737
 6902TIP3    H144901   6.088   5.051  12.540 -0.3465  0.0443 -1.0890
 6902TIP3    H244902   6.023   5.039  12.676  2.4087  2.3707  0.5443
 6903TIP3   OH244903   3.070   4.983  11.448 -0.0558  0.1187  0.0204
 6903TIP3    H144904   3.091   5.000  11.356  1.1134 -0.8145  0.0955
 6903TIP3    H244905   3.154   4.989  11.493 -0.5211 -0.0714  0.9319
 6904TIP3   OH244906   7.095   0.489  11.392  0.2272 -0.6478  0.2936
 6904TIP3    H144907   7.131   0.464  11.477  2.2488  0.2359 -0.2396
 6904TIP3    H244908   7.138   0.572  11.371 -0.9917 -0.3301 -1.1482
 6905TIP3   OH244909   2.549   5.206  12.533 -0.0361 -0.0259 -0.2471
 6905TIP3    H144910   2.637   5.173  12.517 -0.0262  0.5685 -1.5347
 6905TIP3    H244911   2.493   5.129  12.529  0.5454 -0.6511  2.0908
 6906TIP3   OH244912   7.571   3.777  12.018  0.2371 -0.0559  0.2399
 6906TIP3    H144913   7.542   3.783  12.109 -0.6472 -0.2513 -0.0205
 6906TIP3    H244914   7.520   3.705  11.981 -0.6478  1.0840 -0.8547
 6907TIP3   OH244915   5.901   5.907  12.050 -0.1058 -0.5508  0.5617
 6907TIP3    H144916   5.812   5.925  12.019  0.3893  1.6685  0.2902
 6907TIP3    H244917   5.911   5.960  12.129  0.6575 -1.5808  1.1887
 6908TIP3   OH244918   3.362   4.365  11.407  0.7921  0.0105 -0.0628
 6908TIP3    H144919   3.358   4.290  11.466 -0.4711  1.0714  1.2666
 6908TIP3    H244920   3.451   4.363  11.372  0.7730 -2.1175 -0.1205
 6909TIP3   OH244921   3.562   7.129  11.892 -0.4187  0.3561  0.2187
 6909TIP3    H144922   3.502   7.106  11.964  0.7564 -0.7346  0.9012
 6909TIP3    H244923   3.510   7.117  11.813 -0.8677 -1.5644  0.7374
 6910TIP3   OH244924   4.071   2.264  12.054  0.2965 -0.3652  0.4627
 6910TIP3    H144925   4.001   2.221  12.103 -0.4183 -0.9914 -1.0188
 6910TIP3    H244926   4.148   2.255  12.109 -0.2700 -1.8401  1.0665
 6911TIP3   OH244927   6.048   2.885  11.282 -0.5851  0.3851 -0.4462
 6911TIP3    H144928   6.061   2.946  11.210  0.0039  2.8007  1.5956
 6911TIP3    H244929   6.133   2.842  11.293 -0.9860 -0.8769 -1.8487
 6912TIP3   OH244930   7.172   1.402  12.872  0.0705 -0.8345  0.2825
 6912TIP3    H144931   7.255   1.359  12.853  0.9000  0.1371  1.5327
 6912TIP3    H244932   7.154   1.455  12.795 -0.1480 -2.1581 -0.5995
 6913TIP3   OH244933   1.755   7.162  12.330 -0.2699  0.5085  0.0381
 6913TIP3    H144934   1.687   7.136  12.268  0.0125  0.9216 -0.4460
 6913TIP3    H244935   1.751   7.258  12.330  0.0421  0.5214  0.3124
 6914TIP3   OH244936   3.357   1.538  11.485  0.3103 -0.1698  0.0300
 6914TIP3    H144937   3.316   1.624  11.483  0.0023 -0.3037  0.4740
 6914TIP3    H244938   3.301   1.486  11.542  2.1547  0.1890  2.3315
 6915TIP3   OH244939   6.256   5.657  11.952 -0.2961 -0.2977  0.1943
 6915TIP3    H144940   6.229   5.733  11.901 -1.4340 -0.1365  0.9904
 6915TIP3    H244941   6.178   5.633  12.002  0.3590 -1.3372  0.7542
 6916TIP3   OH244942   5.791   2.897  13.029 -0.4685  0.6578  0.3990
 6916TIP3    H144943   5.871   2.905  12.977 -0.4883 -0.5748  0.1415
 6916TIP3    H244944   5.816   2.838  13.101 -1.3533 -0.4221 -0.1504
 6917TIP3   OH244945   5.280   4.388  11.907 -0.8805  0.5660 -0.1826
 6917TIP3    H144946   5.338   4.355  11.976  0.0024  0.7658 -0.8111
 6917TIP3    H244947   5.282   4.320  11.840 -2.2511  0.0704  0.2396
 6918TIP3   OH244948   0.670   1.440  11.274  0.4476  0.2411 -0.3246
 6918TIP3    H144949   0.657   1.401  11.187  2.8956 -2.3082  0.2861
 6918TIP3    H244950   0.603   1.399  11.328  0.5772 -0.2137 -0.4968
 6919TIP3   OH244951   5.297   1.402  12.698 -0.0257 -0.5785  0.3854
 6919TIP3    H144952   5.304   1.404  12.603 -1.2763  1.1881  0.2808
 6919TIP3    H244953   5.207   1.428  12.716  0.5087  0.2771  2.0798
 6920TIP3   OH244954   1.944   5.030  11.625  0.4108  0.2452  0.2862
 6920TIP3    H144955   1.981   5.053  11.540  1.2115  1.1543  0.8614
 6920TIP3    H244956   1.919   4.938  11.616 -0.9496  0.7334 -1.4199
 6921TIP3   OH244957   0.702   3.985  11.312  0.4157  0.3501  0.2125
 6921TIP3    H144958   0.753   3.926  11.368 -0.7670  0.1136  1.1018
 6921TIP3    H244959   0.745   4.070  11.320 -0.3802  0.6160  2.5010
 6922TIP3   OH244960   4.322   0.006  10.921 -0.8522  0.4324  0.1764
 6922TIP3    H144961   4.330  -0.086  10.896 -3.8902  0.0335  0.3261
 6922TIP3    H244962   4.228   0.021  10.928 -0.5726  3.9679 -1.3287
 6923TIP3   OH244963   4.561   6.195  11.817  0.4027  0.4720 -0.1122
 6923TIP3    H144964   4.543   6.117  11.764 -0.5091  0.3409  0.3640
 6923TIP3    H244965   4.619   6.165  11.887  1.1615  0.5269 -0.7042
 6924TIP3   OH244966   0.630   2.639  12.967 -0.5840 -0.4605  0.4198
 6924TIP3    H144967   0.658   2.560  13.014 -3.1216 -1.0454  1.1396
 6924TIP3    H244968   0.679   2.710  13.007  0.5009 -1.4756  0.9457
 6925TIP3   OH244969   1.055   7.597  12.460 -0.0242 -0.1430  0.6488
 6925TIP3    H144970   1.033   7.566  12.372 -0.7373 -3.0158  1.7055
 6925TIP3    H244971   1.146   7.625  12.453 -0.1083 -0.1977 -1.0409
 6926TIP3   OH244972   3.648   5.937  10.673 -0.1843  0.3778 -0.5118
 6926TIP3    H144973   3.675   5.910  10.761  1.0534 -0.2828 -1.0737
 6926TIP3    H244974   3.557   5.965  10.684 -0.1893 -0.0911  0.8957
 6927TIP3   OH244975   1.444   4.277  12.826 -0.5964 -0.1522 -0.4004
 6927TIP3    H144976   1.462   4.194  12.782 -0.2622 -2.3797  3.5080
 6927TIP3    H244977   1.351   4.273  12.847 -0.7814  0.9190 -0.9720
 6928TIP3   OH244978   4.016   5.639  11.384 -0.2221 -0.0852 -0.2225
 6928TIP3    H144979   4.051   5.721  11.349  0.5551  0.1785  1.1143
 6928TIP3    H244980   4.057   5.630  11.470 -3.1468  0.0484  1.3420
 6929TIP3   OH244981   1.071   0.698  11.433  0.3463  0.3386 -0.6227
 6929TIP3    H144982   1.163   0.701  11.409  0.3515  2.2957 -0.5081
 6929TIP3    H244983   1.034   0.627  11.381  1.6887  0.2799 -1.5195
 6930TIP3   OH244984   5.772   3.089  12.393  0.0604 -0.3594  0.1446
 6930TIP3    H144985   5.778   3.039  12.311 -1.4946 -0.9537  0.3470
 6930TIP3    H244986   5.838   3.050  12.450  0.4053 -0.6766 -0.4562
 6931TIP3   OH244987   7.565   4.005  12.467 -0.2371  0.8045  0.2362
 6931TIP3    H144988   7.630   4.063  12.507 -1.0024  1.5227  0.4598
 6931TIP3    H244989   7.608   3.973  12.388  0.1600  1.7660  0.0463
 6932TIP3   OH244990   7.129   2.279  12.889 -0.2885  0.1284 -0.0991
 6932TIP3    H144991   7.208   2.293  12.941 -0.5521  1.9315 -0.1173
 6932TIP3    H244992   7.065   2.244  12.951  0.9772 -3.1047 -0.4575
 6933TIP3   OH244993   3.460   1.784  10.890 -0.0199  0.0744 -0.0434
 6933TIP3    H144994   3.391   1.719  10.898 -0.3673  0.5619  0.9742
 6933TIP3    H244995   3.416   1.864  10.861  0.1021  0.3968  0.6406
 6934TIP3   OH244996   1.135   6.352  12.633 -0.4930 -0.0418 -0.4724
 6934TIP3    H144997   1.159   6.352  12.541  1.1291  0.2275 -0.0741
 6934TIP3    H244998   1.144   6.443  12.660  0.7853 -0.3994  0.3657
 6935TIP3   OH244999   6.635   3.911  13.022 -0.2786  0.5282 -0.0724
 6935TIP3    H145000   6.693   3.869  12.958 -0.9990 -2.2090  0.9039
 6935TIP3    H245001   6.579   3.968  12.970  0.1297 -0.4907 -1.6994
 6936TIP3   OH245002   3.024   2.863  11.641 -0.3052  0.4985  0.4583
 6936TIP3    H145003   3.024   2.890  11.549  1.7545  1.4491  0.6926
 6936TIP3    H245004   3.058   2.939  11.689 -1.9938  0.2874  2.1221
 6937TIP3   OH245005   1.901   1.556  11.858 -0.0028 -0.4094  0.2962
 6937TIP3    H145006   1.848   1.634  11.873  1.3592  0.6312 -0.1212
 6937TIP3    H245007   1.919   1.522  11.945  0.0725  0.2093  0.5261
 6938TIP3   OH245008   6.259   5.329  11.096 -0.2061  0.5627 -0.3864
 6938TIP3    H145009   6.210   5.257  11.055  2.2750 -1.4458 -0.0540
 6938TIP3    H245010   6.292   5.380  11.022  0.5364 -0.4461 -0.7767
 6939TIP3   OH245011   4.898   5.560  10.545 -0.1976 -0.3948 -0.2240
 6939TIP3    H145012   4.851   5.480  10.522  0.3261 -0.6315 -0.5039
 6939TIP3    H245013   4.846   5.630  10.507  1.1444 -0.8107 -3.1417
 6940TIP3   OH245014   7.482   5.095  11.555  0.4901  0.4949  0.4311
 6940TIP3    H145015   7.527   5.145  11.486 -1.2677 -2.8509 -3.5641
 6940TIP3    H245016   7.389   5.112  11.540 -0.0969 -2.6311 -0.1579
 6941TIP3   OH245017   3.609   6.112  13.697  0.0767  0.1953 -0.0108
 6941TIP3    H145018   3.587   6.064  13.617  3.2601 -0.6571 -0.4993
 6941TIP3    H245019   3.600   6.048  13.767  1.6191 -0.4031 -0.3169
 6942TIP3   OH245020   0.978   3.482  12.518  0.0962  0.3340 -0.5590
 6942TIP3    H145021   0.920   3.496  12.593  0.4192  0.6860 -0.3714
 6942TIP3    H245022   1.064   3.470  12.557  0.1000 -0.5544 -0.8132
 6943TIP3   OH245023   4.005   0.883  12.456  0.0166  1.1490  0.1417
 6943TIP3    H145024   3.956   0.865  12.536  1.3904  2.5686  1.3637
 6943TIP3    H245025   4.073   0.944  12.483  0.9706  1.1049 -1.9837
 6944TIP3   OH245026   3.872   5.801  11.979  0.2411 -0.2924  0.4285
 6944TIP3    H145027   3.913   5.812  11.893 -0.7401 -1.4054 -0.2282
 6944TIP3    H245028   3.808   5.872  11.985  0.2033 -0.3034  0.1623
 6945TIP3   OH245029   2.228   0.402  10.633 -0.1504  0.4353  0.4774
 6945TIP3    H145030   2.296   0.463  10.607  0.9817 -1.0320 -0.1639
 6945TIP3    H245031   2.152   0.426  10.579  1.4194 -1.0420 -2.7031
 6946TIP3   OH245032   3.776   1.682  10.929  0.0912 -0.2691  0.0640
 6946TIP3    H145033   3.828   1.762  10.934  0.9015 -0.8303  0.8251
 6946TIP3    H245034   3.698   1.700  10.981  0.0754  0.1609 -0.1036
 6947TIP3   OH245035   4.385   2.749  11.489 -0.2127  0.1142 -0.0139
 6947TIP3    H145036   4.404   2.785  11.402 -0.0395 -0.7670 -0.3599
 6947TIP3    H245037   4.442   2.672  11.495 -1.0495 -0.4866  0.4094
 6948TIP3   OH245038   3.512   6.861  11.450 -0.1602 -0.1064 -0.3797
 6948TIP3    H145039   3.513   6.896  11.361  2.0062  1.9759  0.3474
 6948TIP3    H245040   3.593   6.812  11.458 -0.6962 -0.9192  0.2343
 6949TIP3   OH245041   2.726   0.717  11.010  0.6152  0.1952 -0.1604
 6949TIP3    H145042   2.681   0.651  11.063 -0.0442  1.5088  1.0138
 6949TIP3    H245043   2.815   0.719  11.045  0.7069 -0.2360 -0.3670
 6950TIP3   OH245044   5.569   6.615  12.403  0.1014  0.4454 -0.1841
 6950TIP3    H145045   5.534   6.643  12.488 -0.7452  0.0823 -0.3980
 6950TIP3    H245046   5.493   6.618  12.344  0.2894 -0.9468 -0.5275
 6951TIP3   OH245047   5.759   5.081  11.961 -0.0084  0.4919  0.7390
 6951TIP3    H145048   5.843   5.127  11.968  0.5045 -0.4989  1.4895
 6951TIP3    H245049   5.764   5.036  11.876  0.2394  0.4239  0.7866
 6952TIP3   OH245050   4.915   6.848  10.798  0.1242 -0.5550  0.2658
 6952TIP3    H145051   4.853   6.846  10.725 -0.9036 -0.6934  1.1089
 6952TIP3    H245052   4.866   6.810  10.871  1.0676 -0.2454  1.0744
 6953TIP3   OH245053   7.048   6.756  12.432  0.0107  0.4761 -0.2262
 6953TIP3    H145054   7.108   6.737  12.360 -0.0527 -1.5047  0.1860
 6953TIP3    H245055   6.962   6.764  12.390 -0.0512 -0.8306 -0.3719
 6954TIP3   OH245056   3.340   4.129  11.557  0.0144 -0.0139 -0.2450
 6954TIP3    H145057   3.399   4.068  11.513  1.0445  0.3029  0.6612
 6954TIP3    H245058   3.278   4.072  11.604 -0.3123 -0.3485 -1.0651
 6955TIP3   OH245059   0.091   1.437  11.937  0.0224  0.0603  0.5199
 6955TIP3    H145060   0.068   1.347  11.913  1.1047 -0.4239  1.1919
 6955TIP3    H245061   0.008   1.477  11.962 -0.7064 -0.2742 -1.2284
 6956TIP3   OH245062   7.644   4.079  10.968  0.3417  0.3066  0.3866
 6956TIP3    H145063   7.625   4.068  10.875  0.6738  3.0257 -0.0743
 6956TIP3    H245064   7.643   3.990  11.003 -2.3670 -0.6268 -1.6907
 6957TIP3   OH245065   6.051   3.410  12.188  1.0065  0.0642  0.4352
 6957TIP3    H145066   6.020   3.325  12.156 -0.2787  0.4817  0.5187
 6957TIP3    H245067   6.122   3.433  12.128  0.4312 -0.4277 -0.4670
 6958TIP3   OH245068   5.231   6.198  12.568 -0.4902  0.0822  0.2625
 6958TIP3    H145069   5.234   6.131  12.637  0.1082 -1.4465 -1.1768
 6958TIP3    H245070   5.166   6.262  12.600 -2.0649 -1.8341  1.1470
 6959TIP3   OH245071   3.600   2.224  12.406  0.0420 -0.2535 -0.0283
 6959TIP3    H145072   3.580   2.152  12.465 -0.5381  0.9005  1.2462
 6959TIP3    H245073   3.518   2.240  12.359 -0.0254 -0.0061  0.1704
 6960TIP3   OH245074   6.729   5.476  10.969  0.7007 -0.1219  0.0295
 6960TIP3    H145075   6.800   5.419  10.999 -1.9948 -2.6968  1.9620
 6960TIP3    H245076   6.686   5.506  11.049  0.0572  2.1235 -1.0596
 6961TIP3   OH245077   4.632   0.623  12.689  0.2254 -0.0512 -0.3866
 6961TIP3    H145078   4.628   0.541  12.639  0.3856 -1.0127  1.0986
 6961TIP3    H245079   4.715   0.663  12.661  0.4638 -0.7187 -0.6722
 6962TIP3   OH245080   3.726   4.741  12.852 -0.4430 -0.2100 -0.4495
 6962TIP3    H145081   3.776   4.797  12.912  1.5309 -1.6425 -0.6501
 6962TIP3    H245082   3.660   4.700  12.907  0.3797 -0.3627  0.4510
 6963TIP3   OH245083   6.346   1.788  11.674  0.7249  0.2682  0.3805
 6963TIP3    H145084   6.421   1.783  11.615  0.6161 -0.4387  0.3001
 6963TIP3    H245085   6.287   1.718  11.646  0.8618 -0.3642  1.5725
 6964TIP3   OH245086   3.130   3.047  10.968  0.5076  0.0220 -0.0097
 6964TIP3    H145087   3.045   3.063  11.008  1.0354 -0.4518  1.3603
 6964TIP3    H245088   3.193   3.090  11.027  1.1016  2.4680 -2.2082
 6965TIP3   OH245089   6.135   3.691  10.990 -0.0402 -0.2775  0.2282
 6965TIP3    H145090   6.113   3.602  10.964 -1.1761 -0.4949  1.7749
 6965TIP3    H245091   6.063   3.744  10.958  0.9105  0.2134 -1.1893
 6966TIP3   OH245092   6.708   7.174  12.143 -0.5933  0.0667 -0.2837
 6966TIP3    H145093   6.728   7.186  12.236 -1.0313 -0.6508 -0.0807
 6966TIP3    H245094   6.793   7.169  12.100 -0.3935  0.7575  0.0320
 6967TIP3   OH245095   7.147   6.031  12.891  0.1522  0.6220  0.8554
 6967TIP3    H145096   7.117   6.048  12.801  0.3717  1.8191  0.9920
 6967TIP3    H245097   7.214   6.098  12.906  0.4653  0.1143  1.7428
 6968TIP3   OH245098   4.123   1.286  10.823  0.5112  0.0670 -0.0051
 6968TIP3    H145099   4.047   1.250  10.868 -0.1614  1.3423 -0.0582
 6968TIP3    H245100   4.196   1.273  10.884 -0.2693  1.2396  1.2531
 6969TIP3   OH245101   0.656   4.139  11.819  0.1408  0.1594  0.0926
 6969TIP3    H145102   0.587   4.198  11.790  0.8989  1.3367  0.6300
 6969TIP3    H245103   0.657   4.147  11.915 -0.2052 -1.2629  0.2441
 6970TIP3   OH245104   2.557   5.838  12.530 -0.4297  0.0352 -0.4612
 6970TIP3    H145105   2.600   5.875  12.607 -1.3042 -1.1404  0.6503
 6970TIP3    H245106   2.522   5.754  12.561 -1.3233 -0.1889 -1.9921
 6971TIP3   OH245107   4.362   2.246  11.804  0.1472  0.4911 -0.1233
 6971TIP3    H145108   4.267   2.237  11.803  0.0576  1.3673 -0.2612
 6971TIP3    H245109   4.386   2.237  11.896 -0.0528  0.1452 -0.1033
 6972TIP3   OH245110   5.558   1.870  11.368 -0.5748 -0.5788 -0.5871
 6972TIP3    H145111   5.519   1.907  11.447 -0.3896  0.3858 -0.9350
 6972TIP3    H245112   5.526   1.779  11.366 -1.2230 -0.3805  0.1599
 6973TIP3   OH245113   5.395   3.209  11.790  0.1741 -0.3426  0.5229
 6973TIP3    H145114   5.320   3.150  11.789  1.3231 -1.8558 -0.5037
 6973TIP3    H245115   5.382   3.265  11.714 -0.6057  0.3503  1.1503
 6974TIP3   OH245116   6.495   6.088  11.611 -0.2955 -0.1362  0.1699
 6974TIP3    H145117   6.464   6.132  11.532  1.3062 -0.3079 -0.5711
 6974TIP3    H245118   6.460   5.999  11.605  0.1321 -0.2570 -0.5291
 6975TIP3   OH245119   5.173   3.469  12.211 -0.3265  0.2378 -0.3039
 6975TIP3    H145120   5.096   3.525  12.197  0.3874  1.2791 -0.1589
 6975TIP3    H245121   5.159   3.394  12.153 -1.2405  0.6281 -0.6064
 6976TIP3   OH245122   7.432   4.218  10.637  0.0174  0.1748 -0.1787
 6976TIP3    H145123   7.440   4.137  10.688  1.3473 -0.3539 -1.1520
 6976TIP3    H245124   7.521   4.233  10.603 -0.5229  1.2676 -1.1623
 6977TIP3   OH245125   6.447   4.014  12.776  0.3699  0.1803  1.3944
 6977TIP3    H145126   6.414   4.014  12.686  1.1849 -1.0030  1.0699
 6977TIP3    H245127   6.383   4.065  12.825 -0.0593  0.8906  0.1363
 6978TIP3   OH245128   6.220   1.780  12.954 -0.0200 -0.1189  0.6569
 6978TIP3    H145129   6.288   1.846  12.940 -1.4859  1.0703 -1.4291
 6978TIP3    H245130   6.212   1.736  12.869 -3.0307  1.0323  0.2225
 6979TIP3   OH245131   6.197   6.676  11.312  0.0247 -0.0179 -0.1742
 6979TIP3    H145132   6.289   6.664  11.335 -0.5550 -2.3396  1.2284
 6979TIP3    H245133   6.180   6.609  11.245 -0.7976 -0.0843  0.0906
 6980TIP3   OH245134   5.355   7.646  11.428  0.1587  0.4941  0.1324
 6980TIP3    H145135   5.330   7.578  11.365  0.0252  0.7346 -0.0765
 6980TIP3    H245136   5.300   7.629  11.505 -0.9980  1.2734 -0.4798
 6981TIP3   OH245137   5.219   1.318  12.315  0.1765 -0.5751  0.3629
 6981TIP3    H145138   5.192   1.410  12.314 -0.0704 -0.6355 -1.2395
 6981TIP3    H245139   5.171   1.279  12.389 -0.3420  0.3911  0.5492
 6982TIP3   OH245140   4.109   5.174  11.050  0.2399  0.1657 -0.4988
 6982TIP3    H145141   4.033   5.140  11.003  1.2948 -1.5727 -1.0499
 6982TIP3    H245142   4.080   5.183  11.140 -0.6937 -0.1627 -0.7584
 6983TIP3   OH245143   2.760   4.433  11.254 -0.1788 -0.5756 -0.0804
 6983TIP3    H145144   2.765   4.422  11.159  0.9592 -1.1904  0.0379
 6983TIP3    H245145   2.668   4.416  11.274 -0.2385 -1.4265 -0.9680
 6984TIP3   OH245146   5.165   3.058  11.418  0.2356  0.0342 -0.1986
 6984TIP3    H145147   5.222   3.031  11.346  0.4647 -1.5014  0.5208
 6984TIP3    H245148   5.093   2.995  11.417 -1.5905  2.0275 -1.1841
 6985TIP3   OH245149   1.523   1.454  13.178  0.0838 -0.3679 -0.4088
 6985TIP3    H145150   1.509   1.392  13.107 -0.1058 -1.7639  0.8003
 6985TIP3    H245151   1.440   1.455  13.226  0.6394 -0.5055  0.5851
 6986TIP3   OH245152   6.034   4.142  12.548  0.4957  0.4475  0.0253
 6986TIP3    H145153   5.975   4.079  12.507 -0.1043 -0.3832  2.0456
 6986TIP3    H245154   6.055   4.204  12.478 -1.3128 -0.2722 -1.2297
 6987TIP3   OH245155   1.784   2.754  11.233 -0.7328  0.0223  0.2162
 6987TIP3    H145156   1.850   2.821  11.250  1.3965 -1.9104  0.0751
 6987TIP3    H245157   1.717   2.770  11.300 -0.2319  2.1515  0.2801
 6988TIP3   OH245158   5.237   1.695  10.996 -0.6204 -0.3709  0.3584
 6988TIP3    H145159   5.273   1.693  10.908  0.3656  1.4728  0.6815
 6988TIP3    H245160   5.143   1.711  10.983 -0.4147  0.2950 -0.3365
 6989TIP3   OH245161   5.289   0.357  11.318 -0.9201  0.1789  0.1597
 6989TIP3    H145162   5.298   0.448  11.348 -1.4405 -1.1372  5.2176
 6989TIP3    H245163   5.202   0.330  11.347  0.0467 -2.5334  0.8468
 6990TIP3   OH245164   2.352   3.329  11.277  0.2229 -0.1549  0.5193
 6990TIP3    H145165   2.413   3.256  11.290 -1.1554 -1.0812  2.2111
 6990TIP3    H245166   2.401   3.407  11.300  0.8232 -0.8633  1.7037
 6991TIP3   OH245167   0.409   2.589  12.572 -0.3864 -0.1276 -0.6480
 6991TIP3    H145168   0.346   2.647  12.615  1.0129  1.5616 -0.7664
 6991TIP3    H245169   0.384   2.590  12.480 -0.0615  0.7535 -0.7368
 6992TIP3   OH245170   3.414   6.005  11.059 -0.1256  0.4386 -0.3451
 6992TIP3    H145171   3.440   6.096  11.064  2.4976 -0.2950  0.8179
 6992TIP3    H245172   3.362   5.990  11.138 -1.5805  1.1628 -1.1289
 6993TIP3   OH245173   7.488   5.033  13.312  0.0058  0.6801 -0.0035
 6993TIP3    H145174   7.485   4.974  13.237 -0.8471  0.7603 -0.0460
 6993TIP3    H245175   7.556   4.997  13.369  0.6087  0.5803 -0.7791
 6994TIP3   OH245176   5.382   5.936  10.754  0.1961  0.4989 -0.0291
 6994TIP3    H145177   5.291   5.920  10.781  0.6837  0.6284  1.8002
 6994TIP3    H245178   5.404   5.859  10.701 -0.3635 -0.5435  1.1788
 6995TIP3   OH245179   4.864   5.990  11.712  0.0238  0.2879 -0.2512
 6995TIP3    H145180   4.781   5.943  11.717  0.1720 -0.1350 -1.3658
 6995TIP3    H245181   4.841   6.076  11.676 -0.1232  0.7348  0.8901
 6996TIP3   OH245182   7.084   4.551  11.173 -0.0675  0.0251  0.2127
 6996TIP3    H145183   7.085   4.494  11.250  0.8889  0.0003  0.1906
 6996TIP3    H245184   7.171   4.592  11.171 -0.3503  0.6348 -0.4068
 6997TIP3   OH245185   5.032   6.115  12.199 -0.1684  0.1644  0.2847
 6997TIP3    H145186   5.037   6.143  12.107 -0.2857  1.4481  0.6470
 6997TIP3    H245187   5.108   6.059  12.211 -0.7341 -0.8952 -0.8711
 6998TIP3   OH245188   3.124   6.675  12.913  0.2245 -0.1374 -0.5560
 6998TIP3    H145189   3.087   6.748  12.864 -0.7459  1.1489  1.9280
 6998TIP3    H245190   3.051   6.614  12.924  1.0436 -1.6450 -2.6754
 6999TIP3   OH245191   6.894   6.048  11.130  0.1710 -0.1882 -0.0055
 6999TIP3    H145192   6.973   6.021  11.084  0.2001  1.1864 -0.8355
 6999TIP3    H245193   6.850   6.108  11.070 -0.5748  0.4793  1.1442
 7000TIP3   OH245194   4.427   0.937  12.389  0.1519 -0.6602  1.1221
 7000TIP3    H145195   4.503   0.905  12.438  1.2349 -1.1493 -0.7995
 7000TIP3    H245196   4.426   0.885  12.309 -0.3182  1.4758 -0.3453
 7001TIP3   OH245197   5.852   6.508  12.467  0.7072 -0.3855  0.1469
 7001TIP3    H145198   5.876   6.568  12.538  2.4781  2.0110 -2.2404
 7001TIP3    H245199   5.769   6.543  12.434 -0.1664 -1.5562  1.0330
 7002TIP3   OH245200   0.553   6.404  10.870 -0.2306  0.5070 -0.4897
 7002TIP3    H145201   0.529   6.426  10.960  1.7914 -0.2047  0.2778
 7002TIP3    H245202   0.469   6.395  10.824 -1.4209 -1.0303  1.7904
 7003TIP3   OH245203   0.173   4.600  10.755  0.0119  0.0837 -0.4015
 7003TIP3    H145204   0.188   4.584  10.661  1.8419 -0.3641 -0.0776
 7003TIP3    H245205   0.256   4.575  10.796 -0.7064  0.4554  1.3261
 7004TIP3   OH245206   7.525   6.045  12.824  0.0033 -0.3848  0.0145
 7004TIP3    H145207   7.462   6.069  12.891 -1.7723  1.1610 -2.0425
 7004TIP3    H245208   7.558   5.959  12.850  1.6734  1.3215  4.3473
 7005TIP3   OH245209   4.595   3.009  12.441 -0.3599  0.4786 -0.4501
 7005TIP3    H145210   4.588   3.094  12.484 -0.8282 -0.7346  2.1019
 7005TIP3    H245211   4.522   2.958  12.476  1.8310 -2.0380  0.9277
 7006TIP3   OH245212   1.099   4.860  10.935  0.3744  0.3837  0.3805
 7006TIP3    H145213   1.119   4.859  10.841  2.5320 -0.2446  0.7682
 7006TIP3    H245214   1.126   4.773  10.965 -2.4532 -0.2880  1.2338
 7007TIP3   OH245215   7.636   3.763  13.471  0.3531  0.5611 -0.5840
 7007TIP3    H145216   7.546   3.755  13.502  0.3757 -0.1860 -0.6887
 7007TIP3    H245217   7.689   3.748  13.549  0.4079  2.9279 -0.0836
 7008TIP3   OH245218   0.952   5.937  12.390 -0.1772 -0.4576  0.0750
 7008TIP3    H145219   0.889   5.959  12.321 -1.4349 -2.0159  0.6439
 7008TIP3    H245220   1.033   5.981  12.364 -1.3932  1.3667 -0.8544
 7009TIP3   OH245221   0.548   7.580  12.852 -0.2845 -0.1878 -0.0274
 7009TIP3    H145222   0.590   7.666  12.845  0.8383 -0.7420 -0.3348
 7009TIP3    H245223   0.474   7.585  12.792 -0.3608  0.6305  0.1135
 7010TIP3   OH245224   7.463   6.090  10.807 -0.8836 -0.1881  0.2459
 7010TIP3    H145225   7.402   6.142  10.859  0.9189  0.7015  1.5717
 7010TIP3    H245226   7.440   6.110  10.716 -1.3920  1.5303  0.7239
 7011TIP3   OH245227   1.693   4.714  12.961  0.3404 -0.0878  0.0103
 7011TIP3    H145228   1.789   4.712  12.969  0.3877  1.1631 -0.0334
 7011TIP3    H245229   1.667   4.622  12.959  1.4265 -0.4514  1.3176
 7012TIP3   OH245230   3.792   6.464  11.405 -0.8730 -0.2350  0.6315
 7012TIP3    H145231   3.833   6.462  11.318 -1.1626 -1.4585  0.5066
 7012TIP3    H245232   3.781   6.557  11.424  0.4771  0.0939 -0.0351
 7013TIP3   OH245233   1.653   3.556  11.509 -0.1392  0.6292  0.0714
 7013TIP3    H145234   1.735   3.521  11.544  0.0918  1.2284  0.1392
 7013TIP3    H245235   1.585   3.504  11.552  0.2102 -0.1089 -0.2573
 7014TIP3   OH245236   2.386   6.668  11.550 -0.0645 -0.3338  0.5366
 7014TIP3    H145237   2.387   6.577  11.581 -1.6514 -1.1050 -1.4465
 7014TIP3    H245238   2.308   6.706  11.589  0.8346  0.3952  1.7313
 7015TIP3   OH245239   5.176   7.584  11.655 -0.0388 -0.0637 -0.7436
 7015TIP3    H145240   5.122   7.657  11.683 -0.9787 -0.3442 -1.7310
 7015TIP3    H245241   5.237   7.569  11.728  1.3244  2.7454 -1.1814
 7016TIP3   OH245242   6.237   1.429  11.956  0.0379 -0.0603 -0.3482
 7016TIP3    H145243   6.307   1.494  11.958  0.3723 -0.4452  0.9133
 7016TIP3    H245244   6.279   1.348  11.985 -0.8814 -0.3478  0.2060
 7017TIP3   OH245245   5.722   2.901  11.641  0.6841  0.2631 -0.2424
 7017TIP3    H145246   5.784   2.831  11.622  1.0147  0.2688  0.7611
 7017TIP3    H245247   5.772   2.982  11.630  0.8371  0.2712  0.4507
 7018TIP3   OH245248   4.112   1.128  12.235 -0.4969 -0.3706 -0.6134
 7018TIP3    H145249   4.163   1.209  12.221  0.2647 -0.8035 -0.4246
 7018TIP3    H245250   4.134   1.102  12.324 -0.4052 -1.0101 -0.8165
 7019TIP3   OH245251   2.104   6.975  11.286 -0.3478 -0.4118  0.2471
 7019TIP3    H145252   2.058   6.941  11.209 -1.5483 -0.5342  0.9798
 7019TIP3    H245253   2.059   7.058  11.306  1.0655  0.4851 -0.1752
 7020TIP3   OH245254   4.026   5.218  11.297 -0.1639 -0.4546  0.1767
 7020TIP3    H145255   4.001   5.181  11.382 -2.1652 -0.8056 -0.5059
 7020TIP3    H245256   3.960   5.286  11.280  2.1255  1.9530  0.3565
 7021TIP3   OH245257   6.695   5.671  10.794  0.3606 -0.4524  0.1849
 7021TIP3    H145258   6.689   5.604  10.862  0.0366 -1.8828 -1.2102
 7021TIP3    H245259   6.608   5.673  10.754  0.1172  1.4044  0.7130
 7022TIP3   OH245260   2.201   0.385  13.123 -0.3271 -0.0610  0.4800
 7022TIP3    H145261   2.125   0.375  13.066  1.4047 -0.5519 -1.9120
 7022TIP3    H245262   2.247   0.301  13.116  1.5760  0.9642  0.0403
 7023TIP3   OH245263   0.393   0.602  10.702 -0.1581  0.1172  0.9291
 7023TIP3    H145264   0.370   0.516  10.667 -0.8185  0.7291 -0.2369
 7023TIP3    H245265   0.332   0.616  10.775 -0.8871  0.0927  0.3419
 7024TIP3   OH245266   2.410   5.564  10.808 -0.3518  0.8536  0.1992
 7024TIP3    H145267   2.326   5.582  10.849 -1.1701 -0.6618 -0.7301
 7024TIP3    H245268   2.436   5.478  10.842  0.1906  0.7298 -0.5001
 7025TIP3   OH245269   2.860   3.340  12.317  0.0011  0.2669  0.3183
 7025TIP3    H145270   2.812   3.298  12.389 -0.3523  0.2191  0.0607
 7025TIP3    H245271   2.864   3.432  12.341 -0.1252  0.2521  0.3975
 7026TIP3   OH245272   3.943   0.344  11.650 -0.1034  0.2404 -0.3868
 7026TIP3    H145273   3.947   0.328  11.555  0.8571  0.5138 -0.4086
 7026TIP3    H245274   4.026   0.309  11.683 -0.0931  0.8326  0.2376
 7027TIP3   OH245275   2.222   4.263  12.127 -0.5322 -0.1437  0.3044
 7027TIP3    H145276   2.232   4.251  12.221  1.3012  0.1869  0.1775
 7027TIP3    H245277   2.290   4.209  12.088  1.2774  2.6296 -0.6615
 7028TIP3   OH245278   6.757   6.631  11.659 -0.6988  0.3893  0.5776
 7028TIP3    H145279   6.689   6.596  11.716 -1.5966  0.8256 -0.2198
 7028TIP3    H245280   6.726   6.615  11.570  0.1097  0.8476  0.1971
 7029TIP3   OH245281   5.261   1.658  11.810 -0.0908  0.3436  0.0061
 7029TIP3    H145282   5.195   1.722  11.837 -1.6052 -1.5262  1.0129
 7029TIP3    H245283   5.342   1.690  11.848 -0.9697  1.2406  1.2091
 7030TIP3   OH245284   4.024   4.188  12.991 -0.4104  0.0560 -0.4731
 7030TIP3    H145285   4.048   4.246  12.918  0.2087  0.1279 -0.2162
 7030TIP3    H245286   4.062   4.103  12.967  2.3355  0.7370  1.0850
 7031TIP3   OH245287   2.199   6.740  12.528 -0.1463  0.0612  0.2609
 7031TIP3    H145288   2.245   6.824  12.519  0.5681 -0.1137  1.8537
 7031TIP3    H245289   2.175   6.736  12.621  0.1588 -1.6604  0.3036
 7032TIP3   OH245290   3.845   3.934  11.290  0.0226 -0.6821 -0.2590
 7032TIP3    H145291   3.813   3.856  11.245 -1.8448  0.3256 -0.8058
 7032TIP3    H245292   3.793   4.006  11.253  0.6261  0.6171  1.2869
 7033TIP3   OH245293   6.713   6.321  13.074  0.2019  0.3820 -0.2535
 7033TIP3    H145294   6.693   6.238  13.117  1.1832  0.1121 -0.2939
 7033TIP3    H245295   6.628   6.356  13.048 -0.1988 -0.8829 -0.7365
 7034TIP3   OH245296   3.355   0.573  12.123 -0.3686  0.2429  0.1903
 7034TIP3    H145297   3.350   0.513  12.049  0.6578 -0.4191  0.6458
 7034TIP3    H245298   3.264   0.582  12.153 -0.8407  0.7694 -1.3239
 7035TIP3   OH245299   4.885   3.857  11.773 -0.2362 -0.2099 -0.1735
 7035TIP3    H145300   4.794   3.854  11.743 -0.8065  0.1517  1.4441
 7035TIP3    H245301   4.895   3.781  11.829  0.0903  0.4289  0.6488
 7036TIP3   OH245302   1.037   1.995  12.888  1.1817 -0.0415  0.0623
 7036TIP3    H145303   0.984   1.916  12.897  2.0984 -0.6151  0.6543
 7036TIP3    H245304   1.033   2.035  12.975  0.0423  1.0316 -0.4587
 7037TIP3   OH245305   7.339   3.499  12.600  0.4819  0.5806 -0.0774
 7037TIP3    H145306   7.296   3.435  12.658  0.9373 -0.3316 -0.7265
 7037TIP3    H245307   7.279   3.574  12.600 -0.1292  0.1156  0.6041
 7038TIP3   OH245308   3.790   2.286  18.007  0.6337  0.1376  0.0921
 7038TIP3    H145309   3.764   2.278  18.099  1.4594  0.0260  0.3224
 7038TIP3    H245310   3.790   2.380  17.990  2.3570  0.2898  0.7754
 7039TIP3   OH245311   1.770   7.620  11.566 -0.2065  0.1086  0.3145
 7039TIP3    H145312   1.774   7.715  11.563 -1.3459  0.1472 -1.7297
 7039TIP3    H245313   1.816   7.596  11.646  0.9430  2.3155  0.3685
 7040TIP3   OH245314   4.704   0.212  11.140 -0.1826  0.5615  0.0199
 7040TIP3    H145315   4.715   0.117  11.144  0.5917  0.5950 -0.8822
 7040TIP3    H245316   4.609   0.226  11.147 -0.5484 -0.4402 -2.0819
 7041TIP3   OH245317   1.615   0.113  11.960 -0.5016 -0.2354  0.0861
 7041TIP3    H145318   1.589   0.165  12.036 -0.2839  1.6622 -1.0705
 7041TIP3    H245319   1.711   0.108  11.966 -0.5168 -0.4164  0.1586
 7042TIP3   OH245320   2.826   6.230  11.618 -0.1444 -1.0333 -0.4273
 7042TIP3    H145321   2.744   6.274  11.642  0.7199  1.5682 -1.9291
 7042TIP3    H245322   2.861   6.198  11.701 -0.9267  0.9944  0.7467
 7043TIP3   OH245323   4.424   5.542  12.610  0.2936  0.1720 -0.4749
 7043TIP3    H145324   4.419   5.480  12.537  0.2577  0.3125 -0.5932
 7043TIP3    H245325   4.447   5.625  12.568  2.0195 -0.1011 -0.1443
 7044TIP3   OH245326   7.062   2.660  11.386  0.3596  0.6374  0.4414
 7044TIP3    H145327   7.145   2.624  11.420  0.1381  1.0279  1.4326
 7044TIP3    H245328   7.030   2.593  11.326  1.3477  0.4385  0.1184
 7045TIP3   OH245329   3.368   0.166  10.513 -0.1574 -0.2717  0.3431
 7045TIP3    H145330   3.432   0.148  10.445 -0.9977 -0.1037 -0.5139
 7045TIP3    H245331   3.367   0.087  10.567  0.3441 -0.5034  0.0229
 7046TIP3   OH245332   3.922   2.125  11.232  0.3037  0.1315  0.5004
 7046TIP3    H145333   3.968   2.175  11.299  0.3635  1.1007 -0.2499
 7046TIP3    H245334   3.849   2.085  11.279  0.2308  0.9420  1.1072
 7047TIP3   OH245335   1.591   6.623  13.128 -0.2489  0.5398 -0.4534
 7047TIP3    H145336   1.580   6.611  13.222  2.3506  2.3170  0.1707
 7047TIP3    H245337   1.532   6.696  13.106 -0.8591  0.1226 -0.2114
 7048TIP3   OH245338   7.348   2.693  11.949 -0.7897  0.0325  0.2343
 7048TIP3    H145339   7.424   2.653  11.908 -1.7378  0.0409 -1.6505
 7048TIP3    H245340   7.281   2.625  11.948 -1.8830  1.0679 -1.4253
 7049TIP3   OH245341   4.368   6.751  12.297  0.6501  0.2792  0.3061
 7049TIP3    H145342   4.409   6.671  12.264 -1.5748 -0.5787 -0.5284
 7049TIP3    H245343   4.318   6.784  12.224 -0.7305  0.8762  1.4830
 7050TIP3   OH245344   2.976   3.306  12.627  0.2143  0.6816  0.2127
 7050TIP3    H145345   3.062   3.273  12.654  0.4786  1.3857  0.2725
 7050TIP3    H245346   2.921   3.298  12.705 -0.5342 -2.1310 -0.4919
 7051TIP3   OH245347   1.623   4.400  11.150  0.0874 -0.3952  0.1286
 7051TIP3    H145348   1.672   4.408  11.068  0.3607  0.2669  0.3463
 7051TIP3    H245349   1.564   4.475  11.150  0.3450 -0.1865  0.7031
 7052TIP3   OH245350   6.669   1.286  11.722  0.0228  0.1443 -0.3172
 7052TIP3    H145351   6.736   1.276  11.655  0.2793 -1.0094  0.0806
 7052TIP3    H245352   6.705   1.351  11.783  0.4156  0.1420 -0.5457
 7053TIP3   OH245353   7.426   1.398  11.117  0.0451 -0.4117 -0.4592
 7053TIP3    H145354   7.343   1.362  11.149 -0.0007  0.5126  0.5127
 7053TIP3    H245355   7.402   1.481  11.074  0.2629 -1.0298 -1.8372
 7054TIP3   OH245356   5.457   4.684  12.182  0.2402 -0.1577  0.5435
 7054TIP3    H145357   5.485   4.606  12.229  0.7762  0.3022  0.9974
 7054TIP3    H245358   5.469   4.662  12.090  1.4975 -0.2061  0.7038
 7055TIP3   OH245359   0.398   3.299  11.343  0.3482  0.2707  0.3563
 7055TIP3    H145360   0.485   3.259  11.336  0.5716  0.8798 -0.6389
 7055TIP3    H245361   0.401   3.353  11.422  0.3343 -0.9569  1.2201
 7056TIP3   OH245362   1.373   5.890  11.715 -0.6602 -0.0575 -0.2539
 7056TIP3    H145363   1.372   5.916  11.623 -0.4896  0.4469 -0.1167
 7056TIP3    H245364   1.417   5.804  11.715  0.4159  0.4684 -0.5143
 7057TIP3   OH245365   0.222   3.617  12.096 -0.2647  0.0903 -0.4574
 7057TIP3    H145366   0.165   3.620  12.173 -2.3449 -2.3078 -1.7529
 7057TIP3    H245367   0.303   3.659  12.125 -2.1715  2.5572  1.8996
 7058TIP3   OH245368   0.021   3.186  10.538  0.5953 -0.2526 -0.0219
 7058TIP3    H145369   0.018   3.205  10.632  2.5927  0.0182  0.0256
 7058TIP3    H245370   0.099   3.232  10.507 -0.3938  0.2053 -1.9604
 7059TIP3   OH245371   0.499   7.416  10.791 -0.5407  0.7230 -0.6950
 7059TIP3    H145372   0.523   7.351  10.857  0.8412  0.6777 -1.2205
 7059TIP3    H245373   0.432   7.470  10.834 -0.1908  0.2469  0.4804
 7060TIP3   OH245374   6.511   2.333  12.946 -0.4247  0.1253 -0.1155
 7060TIP3    H145375   6.492   2.310  12.855 -2.8446  1.4920 -0.0158
 7060TIP3    H245376   6.478   2.422  12.956  0.6724  0.3586  1.8703
 7061TIP3   OH245377   6.161   1.091  12.196 -0.0658 -0.4830 -0.9880
 7061TIP3    H145378   6.186   1.126  12.282 -1.6933  0.5339 -0.8897
 7061TIP3    H245379   6.224   1.130  12.135  0.2289 -0.0746 -0.4334
 7062TIP3   OH245380   5.509   1.588  12.610  0.6215  0.5173  0.0902
 7062TIP3    H145381   5.545   1.676  12.610  1.1893  0.4510  3.4520
 7062TIP3    H245382   5.444   1.589  12.680  1.4688 -1.9694  1.0527
 7063TIP3   OH245383   5.461   1.279  12.113 -0.1087 -0.4003  0.5481
 7063TIP3    H145384   5.403   1.313  12.181 -0.1316  0.6340  0.0247
 7063TIP3    H245385   5.450   1.184  12.118 -3.5933 -0.2291 -1.0057
 7064TIP3   OH245386   3.532   1.696  12.176 -0.3659  0.1426 -0.3777
 7064TIP3    H145387   3.571   1.783  12.191 -1.2649  0.4947 -0.0397
 7064TIP3    H245388   3.574   1.640  12.242 -1.6196  0.8853  1.1188
 7065TIP3   OH245389   0.380   4.385  11.005 -0.1622 -0.8772 -0.0215
 7065TIP3    H145390   0.390   4.367  10.912 -2.8530  0.0847 -0.5699
 7065TIP3    H245391   0.390   4.479  11.014  2.3137 -1.1438  1.1015
 7066TIP3   OH245392   4.204   4.935  11.507 -0.4122  0.2243  0.0031
 7066TIP3    H145393   4.219   4.843  11.528  3.2539  0.7980  0.5359
 7066TIP3    H245394   4.110   4.948  11.519 -0.9140 -3.2319  0.6360
 7067TIP3   OH245395   4.355   1.910  12.243  0.1268  0.1263  0.0845
 7067TIP3    H145396   4.266   1.946  12.243 -1.3433 -3.1004 -1.5468
 7067TIP3    H245397   4.387   1.925  12.332 -2.4918  0.4220  1.0558
 7068TIP3   OH245398   2.046   5.523  10.877  0.5313 -0.1743 -0.0172
 7068TIP3    H145399   2.071   5.462  10.946  1.5489  0.6300  0.3487
 7068TIP3    H245400   2.095   5.603  10.896  0.2583  0.3157 -1.2552
 7069TIP3   OH245401   7.082   3.837  11.184  0.4883 -0.2118 -0.0387
 7069TIP3    H145402   7.098   3.767  11.121  0.6230 -1.7029  1.5676
 7069TIP3    H245403   6.987   3.843  11.189  0.4697 -0.6211  0.1560
 7070TIP3   OH245404   7.226   2.981  11.831 -0.1132  0.2067  0.2307
 7070TIP3    H145405   7.171   2.944  11.900 -0.7924 -0.8730 -0.8500
 7070TIP3    H245406   7.315   2.979  11.867 -0.2840 -1.4503  0.6508
 7071TIP3   OH245407   0.673   5.435  11.561 -0.4370  0.5300 -1.0665
 7071TIP3    H145408   0.615   5.437  11.637  0.8030  2.6279 -0.0637
 7071TIP3    H245409   0.631   5.495  11.498 -1.1506 -0.7360 -1.8301
 7072TIP3   OH245410   6.798   2.280  10.967 -0.2756  0.3323  0.4819
 7072TIP3    H145411   6.887   2.272  11.003  0.4541  2.3118 -0.6876
 7072TIP3    H245412   6.784   2.375  10.961 -0.8026  0.1651 -3.2102
 7073TIP3   OH245413   4.418   5.450  13.447  0.4596 -0.1937  0.7286
 7073TIP3    H145414   4.393   5.509  13.376  1.3432  0.0559  0.6172
 7073TIP3    H245415   4.380   5.366  13.423  1.8812 -0.4654 -0.7469
 7074TIP3   OH245416   0.553   0.614  12.030  0.6371 -0.3170 -0.1480
 7074TIP3    H145417   0.517   0.525  12.026  1.0013 -0.6860  2.7590
 7074TIP3    H245418   0.488   0.664  12.079  0.3851  1.1159 -1.8380
 7075TIP3   OH245419   2.140   6.766  12.825  0.2709 -0.5088  0.3073
 7075TIP3    H145420   2.120   6.857  12.847  0.8128 -0.4357  0.5258
 7075TIP3    H245421   2.058   6.731  12.792  0.0381  0.0417  0.2823
 7076TIP3   OH245422   3.067   3.941  12.289  0.1561 -0.1552 -0.3507
 7076TIP3    H145423   3.115   3.991  12.355 -0.9348  0.9996 -0.4085
 7076TIP3    H245424   3.135   3.904  12.233  1.0331  0.1275  0.5061
 7077TIP3   OH245425   1.699   4.005  10.972 -0.0529 -0.0250  1.0350
 7077TIP3    H145426   1.728   3.935  11.030 -0.7025 -0.1534  1.2038
 7077TIP3    H245427   1.639   4.058  11.025 -0.1145  0.2554  0.6919
 7078TIP3   OH245428   0.603   3.079  12.467 -0.1940  0.3569 -0.4559
 7078TIP3    H145429   0.525   3.024  12.480 -0.3632  0.0511 -2.3966
 7078TIP3    H245430   0.648   3.078  12.551 -1.8695 -0.1171  0.4773
 7079TIP3   OH245431   1.395   1.718  12.498  0.2296 -0.3263  0.9030
 7079TIP3    H145432   1.482   1.755  12.513  1.0811 -1.6050 -0.4600
 7079TIP3    H245433   1.367   1.756  12.415  0.6637 -1.8400  0.0192
 7080TIP3   OH245434   5.709   5.919  10.664  0.0735  0.2665 -0.0806
 7080TIP3    H145435   5.666   5.993  10.621  1.2954  0.5271 -0.9255
 7080TIP3    H245436   5.788   5.957  10.703  0.1763 -0.4095  0.3947
 7081TIP3   OH245437   0.553   6.180  11.925  0.1243 -0.6137 -0.2180
 7081TIP3    H145438   0.480   6.120  11.910  1.3556 -2.1176 -0.4556
 7081TIP3    H245439   0.552   6.195  12.020 -0.8765 -0.0767 -0.2967
 7082TIP3   OH245440   7.205   5.991  11.268  0.1290  0.4696 -0.0409
 7082TIP3    H145441   7.225   5.897  11.275 -1.3062  0.1028 -0.5228
 7082TIP3    H245442   7.115   5.998  11.298 -0.3543  1.4219 -1.5927
 7083TIP3   OH245443   4.804   1.203  11.972  0.2970  0.0749 -0.3897
 7083TIP3    H145444   4.724   1.173  11.928 -0.1947  0.1553  0.4400
 7083TIP3    H245445   4.829   1.282  11.924 -0.8331  0.7648  0.1097
 7084TIP3   OH245446   7.362   4.476  10.532  0.1422  0.7261 -0.0681
 7084TIP3    H145447   7.388   4.414  10.600 -1.6009  1.2003  1.1037
 7084TIP3    H245448   7.345   4.422  10.455 -2.1281 -0.4498  1.1436
 7085TIP3   OH245449   0.104   4.343  12.399 -0.1454 -0.3413 -0.4333
 7085TIP3    H145450   0.089   4.309  12.311  0.9346 -0.1602 -0.6968
 7085TIP3    H245451   0.199   4.346  12.408 -0.2457 -0.6595  0.8652
 7086TIP3   OH245452   1.549   1.664  12.027  0.1635  0.0850  0.5022
 7086TIP3    H145453   1.640   1.654  11.998 -0.3093 -4.9740 -0.1672
 7086TIP3    H245454   1.553   1.661  12.122  0.7279 -0.4224  0.4687
 7087TIP3   OH245455   1.037   7.345  11.102 -0.0443  0.3421  0.2408
 7087TIP3    H145456   0.960   7.326  11.156  0.5412 -0.0567  0.9493
 7087TIP3    H245457   1.007   7.332  11.012 -0.5829 -0.6043  0.5485
 7088TIP3   OH245458   7.329   4.370  11.513 -0.1301  0.1817 -0.5660
 7088TIP3    H145459   7.244   4.412  11.499  0.2559  2.0520  1.9164
 7088TIP3    H245460   7.389   4.419  11.458 -0.1541  1.1040  0.2002
 7089TIP3   OH245461   4.778   6.077  13.256 -0.3444 -0.7221 -0.3098
 7089TIP3    H145462   4.730   6.149  13.297  0.9200  0.4101 -0.7761
 7089TIP3    H245463   4.740   5.998  13.296  0.5371  0.2771  2.8125
 7090TIP3   OH245464   7.470   6.816  12.238  1.1841 -0.5603  0.6880
 7090TIP3    H145465   7.468   6.836  12.144  0.8735  0.7277  0.9491
 7090TIP3    H245466   7.379   6.800  12.261  1.0596  0.6129  1.0575
 7091TIP3   OH245467   7.455   6.791  10.816  0.0526  0.1921  0.5033
 7091TIP3    H145468   7.537   6.831  10.786  0.8962 -0.9801  1.1768
 7091TIP3    H245469   7.434   6.837  10.897 -0.9431  1.7202 -0.5837
 7092TIP3   OH245470   3.582   2.886  10.749 -0.4223 -0.1830  0.8989
 7092TIP3    H145471   3.597   2.795  10.772  0.2191  0.0924  1.6116
 7092TIP3    H245472   3.641   2.936  10.805 -0.9741  0.6947  0.7366
 7093TIP3   OH245473   6.151   3.372  12.675 -0.3829  0.4651 -0.3028
 7093TIP3    H145474   6.164   3.412  12.761 -1.3169 -0.2075  0.1714
 7093TIP3    H245475   6.238   3.373  12.635  0.5364 -1.0624  1.4643
 7094TIP3   OH245476   1.914   6.599  12.725  0.0452  0.9069 -0.5983
 7094TIP3    H145477   1.953   6.514  12.745 -1.3624  0.5387  0.8448
 7094TIP3    H245478   1.867   6.585  12.643 -2.1538 -0.4863  0.7827
 7095TIP3   OH245479   6.920   2.931  10.571 -0.0299  0.3447  0.0936
 7095TIP3    H145480   6.861   2.909  10.499  0.1241  1.7323 -0.4690
 7095TIP3    H245481   6.879   3.006  10.614 -0.8799 -1.3144  2.3892
 7096TIP3   OH245482   1.603   4.291  11.413  0.0621 -0.0505  0.2659
 7096TIP3    H145483   1.619   4.306  11.320  0.5914  2.0309  0.6389
 7096TIP3    H245484   1.510   4.312  11.425  0.1687  0.4275  0.3081
 7097TIP3   OH245485   6.720   7.386  11.080  1.0191  0.0327  0.2331
 7097TIP3    H145486   6.775   7.410  11.154  0.1323 -1.8169  1.5975
 7097TIP3    H245487   6.631   7.404  11.110  0.5609 -1.8613  0.1559
 7098TIP3   OH245488   5.731   2.570  11.264  0.1505  0.6570 -0.6251
 7098TIP3    H145489   5.790   2.542  11.194  0.9697  1.4140 -0.2702
 7098TIP3    H245490   5.649   2.590  11.219  0.3743  0.2521 -1.2369
 7099TIP3   OH245491   7.038   3.995  13.095 -0.1349 -0.1629  0.4249
 7099TIP3    H145492   7.116   4.038  13.129 -0.1945 -0.5464  1.0751
 7099TIP3    H245493   6.995   4.061  13.041  0.3078  0.2529  0.5772
 7100TIP3   OH245494   4.309   6.744  11.364  0.4823 -0.0259 -0.0808
 7100TIP3    H145495   4.388   6.782  11.403 -0.2422  0.8804  0.5618
 7100TIP3    H245496   4.247   6.739  11.437  0.3219 -1.8376 -0.3075
 7101TIP3   OH245497   4.046   0.774  12.209 -0.4703  0.8524 -0.7232
 7101TIP3    H145498   3.951   0.771  12.198 -0.4415 -0.0663 -0.8173
 7101TIP3    H245499   4.060   0.810  12.297 -0.9506 -0.2011 -0.1929
 7102TIP3   OH245500   2.898   1.634  12.858 -0.3567 -0.7438  0.2993
 7102TIP3    H145501   2.846   1.596  12.929  0.2372 -1.6424  0.2702
 7102TIP3    H245502   2.860   1.720  12.844  0.4386  0.0829  2.7234
 7103TIP3   OH245503   2.990   6.070  10.540 -0.0621 -0.4471  0.3319
 7103TIP3    H145504   3.046   6.143  10.516 -1.1655  0.3752  0.1708
 7103TIP3    H245505   3.040   6.021  10.605  0.9783  0.0391 -0.0807
 7104TIP3   OH245506   3.287   2.276  11.405  0.9273  0.1861 -0.1512
 7104TIP3    H145507   3.359   2.333  11.430  0.0068  1.4332 -0.2802
 7104TIP3    H245508   3.295   2.267  11.310  1.1500 -0.0364 -0.1145
 7105TIP3   OH245509   5.343   6.498  12.614 -0.1906 -0.7218 -0.0090
 7105TIP3    H145510   5.297   6.562  12.558 -0.3504 -0.8401 -0.0140
 7105TIP3    H245511   5.279   6.476  12.681  0.2823  0.0594  0.7289
 7106TIP3   OH245512   5.738   4.644  11.045  0.4042  0.2188  0.4845
 7106TIP3    H145513   5.757   4.578  11.112 -2.8189 -1.3878 -0.0072
 7106TIP3    H245514   5.671   4.700  11.085 -0.3106  0.2818 -0.7431
 7107TIP3   OH245515   2.402   2.968  12.858  0.3228 -0.4476  0.1551
 7107TIP3    H145516   2.405   2.946  12.765  0.2173 -0.6376  0.1959
 7107TIP3    H245517   2.482   3.018  12.873 -0.7644  1.5838 -0.5344
 7108TIP3   OH245518   1.346   2.621  12.290  0.0753 -0.1490 -0.2876
 7108TIP3    H145519   1.349   2.591  12.199 -0.3946  1.1788 -0.7592
 7108TIP3    H245520   1.284   2.562  12.332  1.0779 -1.4457 -0.5490
 7109TIP3   OH245521   1.338   0.661  11.730 -0.0406  0.2839  0.0946
 7109TIP3    H145522   1.287   0.579  11.731  0.0964  0.1945  1.1021
 7109TIP3    H245523   1.288   0.720  11.787  0.7176  0.3542  0.6991
 7110TIP3   OH245524   6.944   6.590  10.516 -0.0548 -0.4456  0.4295
 7110TIP3    H145525   6.895   6.627  10.442 -0.7749  0.7589  1.4702
 7110TIP3    H245526   6.925   6.496  10.512  0.2068 -0.4637 -1.1030
 7111TIP3   OH245527   0.568   1.248  10.643  0.4386  0.6031  0.2212
 7111TIP3    H145528   0.507   1.319  10.663  0.9035  0.6194  1.6486
 7111TIP3    H245529   0.521   1.168  10.670  1.0212  0.6149  1.3159
 7112TIP3   OH245530   7.359   2.840  10.591  0.0873 -0.6354 -0.0178
 7112TIP3    H145531   7.299   2.850  10.517  1.0669 -1.0541 -0.9036
 7112TIP3    H245532   7.333   2.909  10.652 -0.0169  0.4902 -1.2772
 7113TIP3   OH245533   5.636   0.438  11.993 -0.3884 -0.6249  0.3390
 7113TIP3    H145534   5.670   0.457  12.080  0.0501  0.0802  0.0234
 7113TIP3    H245535   5.544   0.416  12.007 -0.7921  1.2336  0.7845
 7114TIP3   OH245536   6.251   4.624  12.099 -0.2124  0.1833 -0.1170
 7114TIP3    H145537   6.317   4.687  12.070  0.6181 -0.3955  0.4562
 7114TIP3    H245538   6.179   4.677  12.132  0.4255  0.8341  0.2578
 7115TIP3   OH245539   3.300   0.694  13.275  0.5036  0.4857 -0.0431
 7115TIP3    H145540   3.381   0.714  13.323  1.6020 -0.1182 -1.5353
 7115TIP3    H245541   3.331   0.667  13.188 -1.1000 -2.8486  0.2836
 7116TIP3   OH245542   6.076   2.060  12.257  0.3334 -0.2425  0.3920
 7116TIP3    H145543   6.156   2.084  12.305  0.5202 -0.4006  0.1613
 7116TIP3    H245544   6.010   2.123  12.288  0.2464 -0.8186  1.4347
 7117TIP3   OH245545   6.832   4.920  12.509  0.4793 -0.1451  0.4027
 7117TIP3    H145546   6.816   4.833  12.471  0.7870  0.1274 -0.3660
 7117TIP3    H245547   6.770   4.926  12.582 -0.5678 -0.4257 -0.4422
 7118TIP3   OH245548   3.392   5.170  11.130  0.2912  0.2709 -0.6319
 7118TIP3    H145549   3.389   5.198  11.038  0.1762  1.3544 -0.3175
 7118TIP3    H245550   3.303   5.139  11.149  1.0777 -3.1185 -1.7727
 7119TIP3   OH245551   1.094   5.229  12.318 -0.7050  0.3691 -0.1017
 7119TIP3    H145552   1.112   5.305  12.262 -2.9655 -0.9652 -2.9293
 7119TIP3    H245553   1.172   5.174  12.310 -0.9899  0.1885 -2.0934
 7120TIP3   OH245554   0.723   0.270  13.923  0.1625 -0.3808 -0.5209
 7120TIP3    H145555   0.739   0.345  13.866 -0.3380 -0.8295 -1.2667
 7120TIP3    H245556   0.679   0.206  13.867  0.8541 -1.3570  0.0149
 7121TIP3   OH245557   7.659   3.654  10.703  0.2613 -0.0566  0.1847
 7121TIP3    H145558   7.725   3.722  10.713  0.2781 -0.3566  3.2054
 7121TIP3    H245559   7.640   3.626  10.793 -2.5452 -1.3566 -0.6952
 7122TIP3   OH245560   3.996   1.226  11.251  0.1094 -0.0825 -0.3121
 7122TIP3    H145561   4.025   1.317  11.256 -1.5236  0.5733 -1.7673
 7122TIP3    H245562   4.058   1.185  11.191  1.6082 -0.3040  1.3107
 7123TIP3   OH245563   5.299   0.807  10.308 -0.3059  0.4594  0.2398
 7123TIP3    H145564   5.392   0.831  10.304  0.3027 -1.8184 -1.8149
 7123TIP3    H245565   5.260   0.849  10.232 -0.7937  0.8208  0.6927
 7124TIP3   OH245566   3.071   0.525  11.716 -0.1033 -0.5933 -0.4619
 7124TIP3    H145567   3.137   0.589  11.743 -1.4837  0.1336  1.4425
 7124TIP3    H245568   2.987   0.565  11.740 -1.0542 -2.8347  0.2490
 7125TIP3   OH245569   7.163   6.515  10.640 -0.6987  0.6677 -0.3008
 7125TIP3    H145570   7.106   6.542  10.568 -2.0740  2.8126  1.4740
 7125TIP3    H245571   7.224   6.588  10.650  0.8678 -0.5483 -0.6053
 7126TIP3   OH245572   4.595   2.719  12.396 -0.0884 -0.3041  0.0544
 7126TIP3    H145573   4.659   2.739  12.464 -1.6308 -1.0433  1.7907
 7126TIP3    H245574   4.510   2.725  12.440 -1.0176 -3.9580 -0.9299
 7127TIP3   OH245575   2.147   0.643  10.959 -0.1956 -0.3661 -0.0383
 7127TIP3    H145576   2.199   0.640  11.039  0.4119  0.6570 -0.3762
 7127TIP3    H245577   2.134   0.552  10.935 -0.0273 -0.6703  0.9973
 7128TIP3   OH245578   0.537   2.360  11.879  0.2741 -0.0216 -0.0265
 7128TIP3    H145579   0.452   2.329  11.911  1.5546 -1.7868  1.8921
 7128TIP3    H245580   0.527   2.361  11.784 -1.8166 -0.4216  0.1367
 7129TIP3   OH245581   0.015   5.466  10.708  0.2778  0.1440  0.0961
 7129TIP3    H145582  -0.018   5.386  10.749 -0.7184  0.4703 -0.0322
 7129TIP3    H245583   0.058   5.436  10.627  1.2851 -0.3946  0.8143
 7130TIP3   OH245584   5.086   6.868  11.156  0.1941  0.1297  0.0982
 7130TIP3    H145585   5.009   6.925  11.148 -2.0774 -2.6924  0.2763
 7130TIP3    H245586   5.127   6.871  11.069 -0.1579  1.5665 -0.0434
 7131TIP3   OH245587   3.151   6.848  11.328 -0.2302 -0.4390 -0.1599
 7131TIP3    H145588   3.170   6.807  11.412 -1.9682  1.6481  1.3397
 7131TIP3    H245589   3.059   6.827  11.311 -0.5170  0.9508 -0.4446
 7132TIP3   OH245590   2.700   1.922  11.780 -0.2690  0.4749  0.2263
 7132TIP3    H145591   2.751   1.992  11.821 -0.9749  0.7313  0.6885
 7132TIP3    H245592   2.611   1.957  11.776 -0.1654  0.6164 -1.8921
 7133TIP3   OH245593   2.963   3.463  11.530 -0.2086 -0.4615 -0.2688
 7133TIP3    H145594   2.978   3.368  11.526 -1.1502 -0.6869  0.8740
 7133TIP3    H245595   2.970   3.483  11.624 -3.1655  0.0163 -0.0547
 7134TIP3   OH245596   3.788   4.446  11.958 -0.1673  0.9578  0.3162
 7134TIP3    H145597   3.755   4.416  12.042 -1.6586  3.1022  0.5497
 7134TIP3    H245598   3.713   4.440  11.899  1.1393 -1.6385 -1.2641
 7135TIP3   OH245599   0.864   3.633  13.316 -0.5944  0.1293 -0.2206
 7135TIP3    H145600   0.908   3.558  13.277 -1.6980  0.8110 -3.0054
 7135TIP3    H245601   0.934   3.697  13.331  0.0611 -0.7098  0.4078
 7136TIP3   OH245602   6.367   3.672  11.668  0.4784 -0.3851 -0.0465
 7136TIP3    H145603   6.363   3.636  11.757 -0.9516  0.0876  0.1066
 7136TIP3    H245604   6.408   3.603  11.616  0.6251 -0.9741  0.8303
 7137TIP3   OH245605   2.950   4.837  11.040  0.2450  1.1589  0.4709
 7137TIP3    H145606   2.882   4.904  11.029  0.0304  0.9927  0.7691
 7137TIP3    H245607   2.942   4.781  10.963  0.8967  1.8891 -0.1433
 7138TIP3   OH245608   0.579   6.751  11.385  0.2368 -0.1208  0.0096
 7138TIP3    H145609   0.496   6.768  11.430 -0.6399 -0.3662 -1.4700
 7138TIP3    H245610   0.642   6.807  11.430 -0.3730 -1.0886  2.1923
 7139TIP3   OH245611   5.220   4.988  11.853 -0.9639  0.1355  0.0011
 7139TIP3    H145612   5.208   4.925  11.925 -2.0648  0.8188  0.4426
 7139TIP3    H245613   5.303   4.963  11.813 -1.0657 -1.2045  0.5657
 7140TIP3   OH245614   1.723   0.916  11.416  0.5032  0.7111 -0.2558
 7140TIP3    H145615   1.655   0.851  11.430  0.4546  0.8619  0.2353
 7140TIP3    H245616   1.677   0.991  11.378  0.5206  0.5456 -0.6048
 7141TIP3   OH245617   6.828   5.782  12.830 -0.1391  0.1855  0.2407
 7141TIP3    H145618   6.760   5.737  12.780  0.4140 -0.8327  0.3602
 7141TIP3    H245619   6.910   5.754  12.789  0.2058  2.3896 -0.7268
 7142TIP3   OH245620   4.403   0.679  10.920 -0.1624  0.3955  0.0378
 7142TIP3    H145621   4.468   0.620  10.881  0.0272 -0.3679  1.4357
 7142TIP3    H245622   4.319   0.638  10.898 -0.0849  0.2788 -0.0495
 7143TIP3   OH245623   1.297   7.348  10.836  0.5622  0.3709 -0.1594
 7143TIP3    H145624   1.254   7.263  10.843  0.5226  0.5182  2.1631
 7143TIP3    H245625   1.386   7.328  10.809  0.3147 -0.3197 -0.4905
 7144TIP3   OH245626   5.541   1.224  11.007 -0.6042  0.5483  0.3635
 7144TIP3    H145627   5.476   1.180  10.953 -0.6738 -0.8142  1.4813
 7144TIP3    H245628   5.545   1.172  11.087 -0.3991  2.3974  1.6224
 7145TIP3   OH245629   5.228   0.477  10.706 -0.5958 -0.4404 -0.7120
 7145TIP3    H145630   5.261   0.400  10.752 -0.6967 -0.7782 -1.1931
 7145TIP3    H245631   5.307   0.520  10.672 -0.5190 -0.1650 -0.1885
 7146TIP3   OH245632   7.148   4.187  10.706  0.3104  0.2065  0.0560
 7146TIP3    H145633   7.175   4.277  10.725 -1.1150  1.1605 -1.9753
 7146TIP3    H245634   7.228   4.143  10.677  0.9198  1.0023  0.4881
 7147TIP3   OH245635   5.071   7.616  12.015 -0.3213 -0.1380  0.1620
 7147TIP3    H145636   5.049   7.528  11.987  1.5613 -0.3706 -0.7750
 7147TIP3    H245637   5.156   7.633  11.975  0.4446  1.2288  2.1744
 7148TIP3   OH245638   0.711   7.095  10.713  0.0880 -0.1572 -0.1964
 7148TIP3    H145639   0.620   7.076  10.738  0.0837  0.6060  0.4121
 7148TIP3    H245640   0.734   7.172  10.765  1.5912 -1.2233  0.7812
 7149TIP3   OH245641   0.711   2.099  12.075 -0.1992  0.5046 -0.1990
 7149TIP3    H145642   0.741   2.063  11.991  0.0822  0.0052  0.1114
 7149TIP3    H245643   0.659   2.029  12.114  1.4100 -0.1103  0.9915
 7150TIP3   OH245644   1.361   3.818  10.924 -0.9633 -0.3637 -0.2242
 7150TIP3    H145645   1.331   3.908  10.938 -1.0454 -0.4798  0.3374
 7150TIP3    H245646   1.309   3.765  10.983 -0.2094 -0.6600  0.1908
 7151TIP3   OH245647   6.117   6.029  10.947  0.6994  0.0303  0.0798
 7151TIP3    H145648   6.121   6.092  11.019  1.9557  0.3809 -0.2767
 7151TIP3    H245649   6.190   5.970  10.963  2.2396  1.2489 -1.9054
 7152TIP3   OH245650   3.284   1.969  12.362  0.0557 -0.0107  0.0245
 7152TIP3    H145651   3.257   2.061  12.367 -0.2625 -0.0613 -0.6874
 7152TIP3    H245652   3.373   1.969  12.398  0.6902  0.8579 -1.4573
 7153TIP3   OH245653   0.946   6.669  11.399 -0.3503  0.1567  0.0692
 7153TIP3    H145654   1.026   6.621  11.378  0.4638  0.7516  1.6608
 7153TIP3    H245655   0.903   6.615  11.465 -1.1600 -0.0319 -0.5955
 7154TIP3   OH245656   3.750   3.925  11.814  0.0699 -0.0040 -0.1433
 7154TIP3    H145657   3.813   3.943  11.745 -1.3073  0.8311 -1.2072
 7154TIP3    H245658   3.740   4.008  11.861 -0.1995 -0.1472  0.0602
 7155TIP3   OH245659   6.391   5.380  12.041 -0.5663  0.3239  0.4482
 7155TIP3    H145660   6.322   5.423  12.092 -0.4849  0.0483  0.7979
 7155TIP3    H245661   6.379   5.413  11.952  0.0029  1.7013  0.8480
 7156TIP3   OH245662   6.674   1.687  10.717 -0.0419 -0.4316  0.1542
 7156TIP3    H145663   6.628   1.639  10.785  0.0226  0.4129  0.8107
 7156TIP3    H245664   6.606   1.740  10.675 -0.0903 -0.9859 -0.4802
 7157TIP3   OH245665   0.356   7.481  10.552 -0.1924  0.9110 -0.1957
 7157TIP3    H145666   0.378   7.496  10.460 -0.8269  0.5369 -0.4093
 7157TIP3    H245667   0.441   7.469  10.595  0.2873  3.4874 -0.2800
 7158TIP3   OH245668   0.983   7.525  11.377 -0.4174 -0.1446 -0.1152
 7158TIP3    H145669   1.064   7.476  11.387  0.6436  1.7833  1.2573
 7158TIP3    H245670   0.927   7.467  11.324  1.4220 -1.9711 -0.2010
 7159TIP3   OH245671   5.854   6.826  11.849 -0.2561 -0.6940  0.0764
 7159TIP3    H145672   5.786   6.854  11.788  0.1787 -1.8211 -0.9903
 7159TIP3    H245673   5.809   6.766  11.909 -0.1316 -1.8667 -0.9620
 7160TIP3   OH245674   4.536   3.666  10.857  0.4211 -0.0594 -0.0756
 7160TIP3    H145675   4.479   3.743  10.860  1.3756  0.6461  0.3522
 7160TIP3    H245676   4.477   3.594  10.834 -0.5874  0.6990  0.0564
 7161TIP3   OH245677   0.431   6.994  10.740  0.1473  0.2440  0.1098
 7161TIP3    H145678   0.421   6.953  10.826  0.5159  0.7340  0.3855
 7161TIP3    H245679   0.380   6.937  10.682 -1.1541  0.5967  0.8489
 7162TIP3   OH245680   1.218   1.372  10.746 -0.5119 -0.6853 -0.4349
 7162TIP3    H145681   1.286   1.397  10.683  1.9696 -3.0500  1.1116
 7162TIP3    H245682   1.239   1.421  10.825 -1.4437 -0.4612 -0.3149
 7163TIP3   OH245683   5.854   4.341  13.026 -0.2525  0.3029  0.5051
 7163TIP3    H145684   5.880   4.302  12.943  0.6940  0.1560  0.8593
 7163TIP3    H245685   5.806   4.420  13.001  2.4629  1.8350 -0.2144
 7164TIP3   OH245686   3.695   0.243  11.630  0.0984 -0.6702  0.7054
 7164TIP3    H145687   3.659   0.273  11.547 -0.4071  1.6817  1.6845
 7164TIP3    H245688   3.778   0.289  11.638  0.1836 -0.9427  1.4508
 7165TIP3   OH245689   5.633   2.142  11.109  0.3675 -0.1378 -0.4137
 7165TIP3    H145690   5.540   2.160  11.094  0.5288  0.8782 -0.2442
 7165TIP3    H245691   5.679   2.203  11.052  0.9343  0.1777  0.3639
 7166TIP3   OH245692   3.843   0.634  11.604 -0.0592 -0.3335  0.0864
 7166TIP3    H145693   3.865   0.554  11.651 -1.9221 -1.1603 -0.3646
 7166TIP3    H245694   3.894   0.630  11.523  0.6708 -0.5236  0.5546
 7167TIP3   OH245695   5.229   5.126  12.647  0.1324 -0.0966  0.0826
 7167TIP3    H145696   5.213   5.057  12.583 -0.8420  0.9244 -0.8151
 7167TIP3    H245697   5.302   5.176  12.611 -0.4369  0.4972 -0.2951
 7168TIP3   OH245698   0.901   6.281  13.152 -0.1327 -0.9951 -0.0742
 7168TIP3    H145699   0.989   6.244  13.161  0.3472  0.1934  0.2721
 7168TIP3    H245700   0.847   6.208  13.121  0.7527 -2.0132  0.7175
 7169TIP3   OH245701   3.407   5.840  11.654  0.3574 -0.2908 -0.7510
 7169TIP3    H145702   3.398   5.829  11.749  0.1457  2.3161 -0.3911
 7169TIP3    H245703   3.480   5.783  11.630  1.4400  0.1499  1.2616
 7170TIP3   OH245704   6.351   6.985  12.290  0.8920 -0.2160 -0.1151
 7170TIP3    H145705   6.257   7.001  12.288  0.6645 -1.4684 -0.5419
 7170TIP3    H245706   6.364   6.914  12.227  2.0661 -0.3309  0.2375
 7171TIP3   OH245707   2.034   7.201  10.273  0.1759 -0.4994 -0.2214
 7171TIP3    H145708   1.974   7.144  10.225  0.1806  1.1795 -2.3818
 7171TIP3    H245709   1.978   7.273  10.303  0.7645  0.1647 -0.6866
 7172TIP3   OH245710   2.196   4.808  10.346 -0.1062 -0.3560 -0.8876
 7172TIP3    H145711   2.164   4.799  10.436  0.3463  2.5535 -0.3133
 7172TIP3    H245712   2.117   4.812  10.292 -0.4938  0.3810 -0.2821
 7173TIP3   OH245713   1.053   7.425  12.203 -0.1452 -0.0399 -0.0636
 7173TIP3    H145714   1.117   7.401  12.136  0.8313 -0.1636  0.8840
 7173TIP3    H245715   0.985   7.359  12.196  0.5354 -0.7469 -0.1568
 7174TIP3   OH245716   2.620   2.506  12.061 -0.1563  0.0063  0.5544
 7174TIP3    H145717   2.641   2.480  11.971 -0.9209 -0.3098  0.4650
 7174TIP3    H245718   2.691   2.469  12.114 -0.6562 -1.3591  0.3026
 7175TIP3   OH245719   1.209   5.495  12.343  0.3721 -0.2025 -0.1865
 7175TIP3    H145720   1.156   5.502  12.263  1.3836  0.5694 -0.8100
 7175TIP3    H245721   1.233   5.586  12.363 -0.8034 -0.2430  1.6668
 7176TIP3   OH245722   2.236   3.535  12.804  0.2317  0.6797  0.2387
 7176TIP3    H145723   2.220   3.629  12.793 -1.6878  0.2900 -0.6924
 7176TIP3    H245724   2.283   3.529  12.887 -0.9130  2.3713  1.0731
 7177TIP3   OH245725   4.669   5.886  12.907 -0.8300  0.8649  0.3660
 7177TIP3    H145726   4.681   5.931  12.823  0.7688 -1.6845 -0.9033
 7177TIP3    H245727   4.600   5.822  12.891  0.0320 -0.1828  0.7256
 7178TIP3   OH245728   3.129   3.119  11.709  0.2497  0.8676 -0.2670
 7178TIP3    H145729   3.128   3.091  11.801 -1.8478 -2.2477 -1.0615
 7178TIP3    H245730   3.201   3.181  11.704  4.3061 -3.0214  2.3723
 7179TIP3   OH245731   0.973   3.312  12.819 -0.2318 -0.0855 -0.0671
 7179TIP3    H145732   0.928   3.396  12.806 -0.7350 -0.6310 -2.1727
 7179TIP3    H245733   1.065   3.336  12.826 -0.5219  0.7765  1.1241
 7180TIP3   OH245734   4.301   2.312  11.051 -0.5778 -0.5599  0.5250
 7180TIP3    H145735   4.318   2.296  10.958  0.9601 -1.1980  0.8828
 7180TIP3    H245736   4.356   2.388  11.072  0.8891 -1.8110  1.4052
 7181TIP3   OH245737   4.578   7.022  11.603  0.4282 -0.3251 -0.0718
 7181TIP3    H145738   4.653   7.028  11.662  1.5198 -1.0036 -1.3370
 7181TIP3    H245739   4.591   6.939  11.557 -0.0077  0.4999 -1.7544
 7182TIP3   OH245740   2.833   2.389  12.245 -0.0280  0.3640  0.4371
 7182TIP3    H145741   2.922   2.378  12.210 -0.1787 -0.3798  0.2684
 7182TIP3    H245742   2.798   2.300  12.248 -0.5323  0.5830  1.1258
 7183TIP3   OH245743   3.526   5.053  12.938  0.2484 -0.0854 -0.2381
 7183TIP3    H145744   3.617   5.079  12.922  0.2332 -0.3487 -0.8095
 7183TIP3    H245745   3.483   5.132  12.970  0.4208  0.3394 -1.0372
 7184TIP3   OH245746   4.809   0.093  10.486 -0.0229 -0.4902 -0.0697
 7184TIP3    H145747   4.730   0.141  10.510 -0.4359 -0.0642 -2.1329
 7184TIP3    H245748   4.829   0.122  10.398  0.2867 -3.3722 -1.0503
 7185TIP3   OH245749   7.322   5.078  11.269  0.1011 -0.6878 -0.4557
 7185TIP3    H145750   7.363   5.142  11.211  0.7901 -0.1081  0.6316
 7185TIP3    H245751   7.229   5.082  11.248 -0.0337  1.4522  0.2826
 7186TIP3   OH245752   1.543   6.619  11.269  0.7319 -0.0520  0.0912
 7186TIP3    H145753   1.551   6.550  11.335  2.6794 -0.2589 -0.2908
 7186TIP3    H245754   1.558   6.700  11.316 -0.6782  0.0553  0.3816
 7187TIP3   OH245755   6.890   3.088  12.324  0.4547  0.2313 -0.1985
 7187TIP3    H145756   6.922   3.145  12.394 -0.9267  0.0734  0.6041
 7187TIP3    H245757   6.964   3.081  12.263  1.1070  1.7525  0.3669
 7188TIP3   OH245758   0.456   4.798  11.062  0.5257  0.1909 -0.2593
 7188TIP3    H145759   0.451   4.844  11.147  0.2242 -0.6143  0.1645
 7188TIP3    H245760   0.366   4.773  11.043  0.6949 -0.2674 -0.4664
 7189TIP3   OH245761   4.424   6.771  10.497 -0.5798  0.0500 -0.0057
 7189TIP3    H145762   4.464   6.858  10.492 -0.4490  0.0160  0.4521
 7189TIP3    H245763   4.483   6.715  10.446 -1.0745  0.3768 -0.9479
 7190TIP3   OH245764   4.139   7.139  12.256  0.1768  0.1015  0.1431
 7190TIP3    H145765   4.094   7.059  12.284  1.0221 -0.1523  0.8394
 7190TIP3    H245766   4.071   7.205  12.252 -0.7097 -0.8438 -1.3045
 7191TIP3   OH245767   2.701   6.699  10.998 -0.7224 -0.6035 -0.4540
 7191TIP3    H145768   2.630   6.646  10.960 -1.2939  0.5742 -1.1113
 7191TIP3    H245769   2.666   6.788  10.996  0.2582 -0.1916  0.5138
 7192TIP3   OH245770   7.467   1.746  12.900  0.3068 -0.2059 -0.5623
 7192TIP3    H145771   7.407   1.732  12.973 -0.5012 -0.1700 -1.2081
 7192TIP3    H245772   7.487   1.657  12.869  1.5329 -0.2880  0.3793
 7193TIP3   OH245773   1.379   4.438  11.725  0.3374 -0.3993 -0.3776
 7193TIP3    H145774   1.295   4.430  11.770  0.6887 -0.1118  0.3405
 7193TIP3    H245775   1.443   4.402  11.786  0.7106 -0.8750 -1.0367
 7194TIP3   OH245776   4.131   6.234  12.874  0.1694 -0.4622  0.0078
 7194TIP3    H145777   4.125   6.139  12.862  0.6852 -1.0201  3.2446
 7194TIP3    H245778   4.041   6.263  12.883  0.0773 -1.0391  1.1307
 7195TIP3   OH245779   2.376   4.347  12.622  0.0559  0.0798 -0.1535
 7195TIP3    H145780   2.374   4.271  12.681 -0.4638  1.1017  1.2042
 7195TIP3    H245781   2.289   4.386  12.630  0.9373  1.9948  0.8263
 7196TIP3   OH245782   4.311   1.583  11.942 -0.2636 -0.3529  0.6955
 7196TIP3    H145783   4.304   1.675  11.967  2.7594 -0.3601  1.9556
 7196TIP3    H245784   4.351   1.584  11.855 -1.3664 -0.5166  0.1609
 7197TIP3   OH245785   7.413   4.600  12.135  0.3905  0.1095  0.0427
 7197TIP3    H145786   7.340   4.547  12.167 -1.0757  0.7730 -1.9506
 7197TIP3    H245787   7.386   4.690  12.151  2.1222  0.3726  1.8842
 7198TIP3   OH245788   2.612   5.289  12.793  0.0259 -0.3046  0.4159
 7198TIP3    H145789   2.580   5.261  12.707 -1.4320 -0.8563  1.0962
 7198TIP3    H245790   2.707   5.286  12.786 -0.0240  0.9196 -1.5787
 7199TIP3   OH245791   2.355   0.056  12.031 -0.1296  0.2884 -0.9441
 7199TIP3    H145792   2.384   0.133  11.983  0.2765  0.7643  0.0519
 7199TIP3    H245793   2.426   0.036  12.092 -0.9653  0.1836  0.0265
 7200TIP3   OH245794   3.325   2.268  12.345 -0.0463 -0.0342  0.1618
 7200TIP3    H145795   3.345   2.325  12.420 -1.0415  0.0983  0.3429
 7200TIP3    H245796   3.229   2.266  12.342 -0.0959  2.0172 -2.6805
 7201TIP3   OH245797   4.756   7.300  11.515 -0.1206 -0.2179  0.0172
 7201TIP3    H145798   4.683   7.334  11.566  0.4827  2.3213 -0.6633
 7201TIP3    H245799   4.720   7.224  11.468 -1.5736 -0.5610  1.6087
 7202TIP3   OH245800   1.453   2.259  11.601  0.4521 -0.3612  0.1337
 7202TIP3    H145801   1.398   2.217  11.534 -1.0781 -1.0865  1.7493
 7202TIP3    H245802   1.476   2.344  11.564  0.7103 -1.2172 -1.8049
 7203TIP3   OH245803   6.329   4.949  13.478  0.2987  0.2708  0.1729
 7203TIP3    H145804   6.335   4.854  13.493  0.8400 -0.0189 -1.6362
 7203TIP3    H245805   6.245   4.974  13.518 -0.1784 -1.0924  0.0775
 7204TIP3   OH245806   6.755   0.186  11.412  0.5448 -0.6902  0.3750
 7204TIP3    H145807   6.836   0.200  11.462  1.5183  0.3815 -1.4041
 7204TIP3    H245808   6.685   0.212  11.472  1.7888  3.2439  0.3894
 7205TIP3   OH245809   1.484   0.011  10.437 -0.0687 -0.8459 -0.0066
 7205TIP3    H145810   1.517   0.061  10.362 -2.1477 -0.5277 -0.7812
 7205TIP3    H245811   1.541  -0.066  10.442  1.0514 -0.0953 -0.9500
 7206TIP3   OH245812   6.733   1.317  11.006  0.3271  0.2936 -0.4106
 7206TIP3    H145813   6.745   1.261  10.929 -2.4129 -0.7110 -0.2211
 7206TIP3    H245814   6.686   1.393  10.972 -1.3423 -0.3865  0.2892
 7207TIP3   OH245815   5.284   6.828  12.500 -0.5559  0.0278 -0.2037
 7207TIP3    H145816   5.207   6.884  12.511  0.4326  1.5777 -0.7382
 7207TIP3    H245817   5.356   6.877  12.541  0.0996 -1.5337  0.5913
 7208TIP3   OH245818   7.307   2.288  11.140  0.2550 -0.6987 -0.1212
 7208TIP3    H145819   7.322   2.382  11.133  2.8951 -1.0032  0.3924
 7208TIP3    H245820   7.333   2.253  11.055 -0.0789 -1.0325 -0.0879
 7209TIP3   OH245821   3.570   1.928  11.091  0.3917  0.5646  0.1162
 7209TIP3    H145822   3.522   1.896  11.015 -0.9617  1.3751  0.5774
 7209TIP3    H245823   3.562   2.023  11.086 -2.0315  0.6256  2.5993
 7210TIP3   OH245824   4.255   4.514  12.325  0.5142 -0.4839  0.3110
 7210TIP3    H145825   4.304   4.596  12.333 -0.0822 -0.0189 -0.7263
 7210TIP3    H245826   4.219   4.515  12.237 -0.7749 -1.1534  0.8033
 7211TIP3   OH245827   1.246   0.832  10.349 -0.3426  0.6716 -0.4163
 7211TIP3    H145828   1.212   0.827  10.259  0.5750  0.6155 -0.7624
 7211TIP3    H245829   1.170   0.808  10.404 -0.5436 -0.7259 -1.2414
 7212TIP3   OH245830   4.993   0.412  12.397 -0.2425 -0.3292 -0.1982
 7212TIP3    H145831   4.962   0.465  12.471  1.9358  0.2032  0.4063
 7212TIP3    H245832   5.030   0.475  12.336 -0.8088 -0.8932 -1.1607
 7213TIP3   OH245833   4.792   3.431  12.730  0.3284 -0.0606 -0.2135
 7213TIP3    H145834   4.827   3.520  12.734  0.4504 -0.1552  1.4431
 7213TIP3    H245835   4.866   3.375  12.753 -0.0964 -0.4976  0.0893
 7214TIP3   OH245836   2.889   4.166  12.337  0.1748 -0.7472 -0.4437
 7214TIP3    H145837   2.970   4.115  12.331 -0.0444 -0.9835 -1.5979
 7214TIP3    H245838   2.911   4.250  12.296  0.2052 -0.3085  0.4376
 7215TIP3   OH245839   0.287   3.163  11.677 -0.1557  0.3329  0.0601
 7215TIP3    H145840   0.288   3.096  11.608 -0.6236  0.1000  0.2707
 7215TIP3    H245841   0.366   3.147  11.728 -0.3467 -0.1683  0.2062
 7216TIP3   OH245842   2.191   7.558  11.622  0.3023 -0.0669  0.4762
 7216TIP3    H145843   2.181   7.606  11.704 -1.2838 -0.9256  0.8261
 7216TIP3    H245844   2.174   7.466  11.645 -1.5356 -0.1670 -1.0288
 7217TIP3   OH245845   0.666   1.334  12.370  0.4224  0.0664 -0.0791
 7217TIP3    H145846   0.734   1.279  12.409  0.2685 -0.7131 -0.8957
 7217TIP3    H245847   0.693   1.424  12.390  0.7565 -0.2864  1.1300
 7218TIP3   OH245848   0.780   5.289  12.053  0.5506  0.0506  0.2448
 7218TIP3    H145849   0.767   5.383  12.044  0.1377  0.1681  1.8623
 7218TIP3    H245850   0.832   5.265  11.977 -0.5966  1.3158 -0.9947
 7219TIP3   OH245851   2.448   6.132  10.587  0.2830  0.2003 -0.3965
 7219TIP3    H145852   2.430   6.193  10.515  0.7952  1.0519  0.1770
 7219TIP3    H245853   2.543   6.120  10.584  0.2028 -0.4462 -0.3973
 7220TIP3   OH245854   3.191   1.119  11.933 -0.2350  0.3166  1.1258
 7220TIP3    H145855   3.230   1.103  11.848 -1.5178 -2.1353  0.9109
 7220TIP3    H245856   3.101   1.145  11.914 -1.4087 -2.8815  1.6202
 7221TIP3   OH245857   5.332   6.188  11.101 -0.1243  0.2525 -0.0337
 7221TIP3    H145858   5.337   6.235  11.185  0.2985 -1.5230  0.9829
 7221TIP3    H245859   5.419   6.149  11.091 -0.2556  0.2291 -1.1941
 7222TIP3   OH245860   1.586   6.207  10.358  0.2645 -0.5671 -0.3498
 7222TIP3    H145861   1.501   6.225  10.398  0.8039  0.2440  0.4625
 7222TIP3    H245862   1.565   6.154  10.281 -1.2668  1.6890 -1.6449
 7223TIP3   OH245863   3.485   1.037  12.592  0.6251 -0.3209  0.1355
 7223TIP3    H145864   3.560   1.096  12.587 -0.5711  1.3328  0.7204
 7223TIP3    H245865   3.437   1.052  12.511 -0.0639  0.0604  0.6062
 7224TIP3   OH245866   5.340   0.435  11.053 -0.4809  0.3693 -0.0958
 7224TIP3    H145867   5.331   0.375  10.979 -0.2316  0.9906 -0.6382
 7224TIP3    H245868   5.308   0.385  11.129 -0.5526 -0.3382 -0.5857
 7225TIP3   OH245869   2.808   1.820  11.536  0.8407 -0.0286  0.4287
 7225TIP3    H145870   2.887   1.772  11.559 -0.1872 -2.4588 -0.7308
 7225TIP3    H245871   2.757   1.824  11.617  0.4058 -2.0803  0.3000
 7226TIP3   OH245872   7.483   3.187  12.036  0.3756  0.9446 -0.0532
 7226TIP3    H145873   7.514   3.102  12.003  1.2717  1.3038 -0.1537
 7226TIP3    H245874   7.419   3.217  11.971 -2.2922 -1.0150  1.4144
 7227TIP3   OH245875   3.828   6.430  12.388 -0.5864  0.6978 -0.0781
 7227TIP3    H145876   3.922   6.450  12.392 -0.5349  0.3453  0.9662
 7227TIP3    H245877   3.795   6.454  12.475 -1.4827  0.8927 -0.4611
 7228TIP3   OH245878   1.756   6.577  13.516 -0.4509 -0.2690  0.4685
 7228TIP3    H145879   1.665   6.579  13.488 -0.2341 -2.3207 -0.6232
 7228TIP3    H245880   1.761   6.502  13.576  0.7369 -1.0241 -0.5209
 7229TIP3   OH245881   5.425   5.665  10.655 -0.2631 -0.1720 -0.1607
 7229TIP3    H145882   5.469   5.682  10.572 -1.2906  3.6857 -0.1181
 7229TIP3    H245883   5.334   5.651  10.631 -0.2330 -1.0651  0.2175
 7230TIP3   OH245884   6.468   6.467  13.088 -0.3568  0.4505 -0.5865
 7230TIP3    H145885   6.411   6.465  13.165  0.8837  3.1910  0.5354
 7230TIP3    H245886   6.408   6.479  13.014 -1.3881  2.2374  0.4492
 7231TIP3   OH245887   2.930   7.018  10.927  0.2432 -0.1733  0.0932
 7231TIP3    H145888   2.922   7.100  10.878  0.5455 -1.1089 -1.6060
 7231TIP3    H245889   2.879   6.955  10.876  0.5023 -1.1877  1.0510
 7232TIP3   OH245890   1.838   0.884  10.562  0.0661 -0.7615 -0.1350
 7232TIP3    H145891   1.916   0.850  10.606  0.5251 -1.6642 -1.5831
 7232TIP3    H245892   1.808   0.813  10.506 -2.7259 -0.9895  1.4369
 7233TIP3   OH245893   2.851   3.749  10.954 -0.2759  0.0188  0.9055
 7233TIP3    H145894   2.822   3.662  10.925 -0.7398  0.6538 -0.6092
 7233TIP3    H245895   2.774   3.788  10.994 -0.3830  0.1483  0.5775
 7234TIP3   OH245896   1.765   7.352  11.470 -0.5657 -0.2470  0.2277
 7234TIP3    H145897   1.765   7.447  11.484  0.5933 -0.1345 -0.4416
 7234TIP3    H245898   1.682   7.323  11.507 -1.0187  1.0515  0.2898
 7235TIP3   OH245899   4.094   4.089  12.735  0.0157 -0.3256  0.0566
 7235TIP3    H145900   4.127   4.015  12.786 -1.5722 -2.1134 -1.3516
 7235TIP3    H245901   4.161   4.104  12.668 -0.2490 -1.4863 -0.5117
 7236TIP3   OH245902   1.820   2.687  13.386 -0.2836  0.2034  0.1145
 7236TIP3    H145903   1.855   2.604  13.419 -1.6300 -0.3746  0.1270
 7236TIP3    H245904   1.849   2.753  13.450 -0.7145 -0.5273  1.0809
 7237TIP3   OH245905   6.154   5.369  12.646  0.0130 -0.2841 -0.0010
 7237TIP3    H145906   6.082   5.372  12.710  0.2308 -1.1224  0.3080
 7237TIP3    H245907   6.174   5.275  12.638  2.1444  0.0157  1.1338
 7238TIP3   OH245908   4.409   6.651  11.118 -0.3351 -0.0032  0.4997
 7238TIP3    H145909   4.380   6.669  11.208  1.8561  0.9425  1.0895
 7238TIP3    H245910   4.455   6.568  11.123 -0.9992 -0.4084  0.0366
 7239TIP3   OH245911   5.724   7.519  11.883  0.0616  0.2292 -0.2294
 7239TIP3    H145912   5.657   7.482  11.826 -0.0392  0.4183 -0.2360
 7239TIP3    H245913   5.715   7.472  11.966 -0.3641  0.5510 -0.0908
 7240TIP3   OH245914   4.678   0.525  12.356 -0.1118  0.2531  0.4077
 7240TIP3    H145915   4.596   0.479  12.372 -0.0735  0.4908  1.3016
 7240TIP3    H245916   4.744   0.456  12.353 -0.4396 -0.0358 -1.1909
 7241TIP3   OH245917   4.889   1.280  12.205 -0.2783 -0.5673 -0.0388
 7241TIP3    H145918   4.843   1.251  12.126  0.8169  0.1329 -0.9708
 7241TIP3    H245919   4.914   1.370  12.186  0.9501 -0.7388  0.6536
 7242TIP3   OH245920   3.987   5.202  11.647 -0.0377  0.8983 -0.7342
 7242TIP3    H145921   4.001   5.108  11.635 -0.9245  0.7267 -0.4734
 7242TIP3    H245922   4.067   5.233  11.690 -0.0336  0.1283 -0.1815
 7243TIP3   OH245923   5.958   1.285  10.701 -0.7443 -0.1995  0.1681
 7243TIP3    H145924   6.020   1.339  10.751 -1.7987  1.2001  0.0291
 7243TIP3    H245925   6.012   1.215  10.664  1.0103  1.6165 -0.9532
 7244TIP3   OH245926   2.800   1.063  11.795  0.5198 -0.2247  0.5740
 7244TIP3    H145927   2.838   1.132  11.849 -0.2474  0.0118  0.8191
 7244TIP3    H245928   2.759   1.109  11.722  0.5763 -0.4695  0.3844
 7245TIP3   OH245929   3.031   1.583  11.356 -0.2344 -0.2240  0.6236
 7245TIP3    H145930   2.978   1.510  11.324 -0.5699  0.3046 -0.0468
 7245TIP3    H245931   3.004   1.594  11.447 -0.9187 -0.2828  0.4309
 7246TIP3   OH245932   5.966   3.854  12.348 -0.4259 -0.3532  0.4737
 7246TIP3    H145933   5.935   3.763  12.354 -1.2007 -0.0974  0.4609
 7246TIP3    H245934   5.910   3.903  12.407 -0.4905  0.2369 -0.0620
 7247TIP3   OH245935   5.474   7.015  12.621 -0.5425  0.1541 -0.4159
 7247TIP3    H145936   5.510   7.102  12.641  1.6303 -0.7301 -0.2447
 7247TIP3    H245937   5.481   6.967  12.704 -0.7928 -0.5098 -0.7761
 7248TIP3   OH245938   2.940   0.035  10.981 -0.2305 -0.2780 -0.9366
 7248TIP3    H145939   3.013  -0.007  10.935  0.4620 -0.8252  0.5903
 7248TIP3    H245940   2.906  -0.033  11.039  0.7334  1.1493  1.4112
 7249TIP3   OH245941   1.662   2.495  13.890  0.0096 -0.0424 -0.0157
 7249TIP3    H145942   1.677   2.443  13.970 -0.7808  0.0256  0.1909
 7249TIP3    H245943   1.726   2.461  13.827  0.3123 -0.4408  0.4952
 7250TIP3   OH245944   6.108   4.887  12.320 -0.3863  0.7073  0.1238
 7250TIP3    H145945   6.058   4.805  12.325  0.7375 -0.1203 -1.2601
 7250TIP3    H245946   6.059   4.941  12.258  0.0669  0.1393 -0.7558
 7251TIP3   OH245947   1.876   1.328  11.523 -0.6731 -0.1213  0.4518
 7251TIP3    H145948   1.958   1.327  11.474 -0.9749  0.5150 -0.0974
 7251TIP3    H245949   1.889   1.394  11.590 -0.6526 -0.1812  0.5063
 7252TIP3   OH245950   7.303   6.184  11.831  0.5755 -0.4743 -0.2910
 7252TIP3    H145951   7.297   6.167  11.925  2.9962  0.7520  0.1518
 7252TIP3    H245952   7.294   6.279  11.823  0.2799 -0.5753 -1.3198
 7253TIP3   OH245953   5.154   5.884  11.938 -0.3704 -0.1157  0.5828
 7253TIP3    H145954   5.061   5.870  11.956 -0.1872 -2.3206  0.0849
 7253TIP3    H245955   5.160   5.977  11.914 -2.2803  0.2915  1.4511
 7254TIP3   OH245956   4.333   0.118  10.097 -0.1116 -0.7440  0.0522
 7254TIP3    H145957   4.284   0.195  10.125  1.1877  0.4157 -0.7436
 7254TIP3    H245958   4.417   0.125  10.142  0.1430 -1.5172 -0.2823
 7255TIP3   OH245959   7.558   4.821  11.531 -0.9184 -0.3762 -0.4446
 7255TIP3    H145960   7.559   4.917  11.534  0.9603 -0.3670 -0.4686
 7255TIP3    H245961   7.494   4.800  11.462 -0.8791  0.8753 -0.8881
 7256TIP3   OH245962   1.754   2.651  12.694 -0.1307  0.2748  0.0338
 7256TIP3    H145963   1.691   2.723  12.680  1.4777  2.1338  1.7642
 7256TIP3    H245964   1.737   2.621  12.783  0.2481 -0.4234 -0.1252
 7257TIP3   OH245965   4.031   3.589  11.391  0.2913  0.0301 -0.2227
 7257TIP3    H145966   4.073   3.510  11.425 -2.0530 -1.1103  0.2855
 7257TIP3    H245967   4.072   3.603  11.305  0.9359 -1.6135 -0.2284
 7258TIP3   OH245968   1.873   6.073  11.952  0.1288  0.0872  0.1319
 7258TIP3    H145969   1.938   6.142  11.939 -0.3172  0.1627 -2.2265
 7258TIP3    H245970   1.833   6.062  11.865 -0.8482 -2.1034  0.8013
 7259TIP3   OH245971   2.301   6.420  12.357  0.4666  0.0074  0.1890
 7259TIP3    H145972   2.276   6.345  12.411 -1.0918  1.1756  1.1727
 7259TIP3    H245973   2.393   6.405  12.337  0.3358 -1.9041  0.7692
 7260TIP3   OH245974   1.226   5.730  11.506  0.0149  0.0315 -0.3385
 7260TIP3    H145975   1.181   5.647  11.487 -0.2347  0.0428  0.1733
 7260TIP3    H245976   1.220   5.780  11.425  0.3425 -0.5357 -0.7106
 7261TIP3   OH245977   6.386   3.150  11.805  0.1073 -0.1588 -0.3135
 7261TIP3    H145978   6.449   3.098  11.854 -0.3562  0.7326  1.2937
 7261TIP3    H245979   6.438   3.191  11.736  1.0022 -0.6000  0.0809
 7262TIP3   OH245980   7.183   0.318  11.919 -0.4003  0.7344  0.6495
 7262TIP3    H145981   7.252   0.294  11.857 -2.0842 -2.2115 -0.2838
 7262TIP3    H245982   7.212   0.284  12.003 -0.4429  0.0322  0.3804
 7263TIP3   OH245983   1.487   5.915  10.189 -0.3649  0.4065  0.4812
 7263TIP3    H145984   1.465   5.896  10.098  0.1295  1.1758  0.1874
 7263TIP3    H245985   1.406   5.898  10.237 -0.3182 -1.1127  0.0779
 7264TIP3   OH245986   5.739   7.611  10.944  0.4256  0.5624  0.0729
 7264TIP3    H145987   5.791   7.691  10.945 -0.6285  1.3134 -1.3954
 7264TIP3    H245988   5.685   7.616  11.023  1.8625  0.2057  1.1302
 7265TIP3   OH245989   1.112   3.828  18.600  0.0850  0.8535 -0.0675
 7265TIP3    H145990   1.160   3.771  18.660 -2.6946 -0.5655  1.0333
 7265TIP3    H245991   1.060   3.885  18.657 -0.9783  0.9675 -1.0964
 7266TIP3   OH245992   6.626   3.216  12.393  0.0788  0.2812  0.4839
 7266TIP3    H145993   6.710   3.205  12.349  0.0383  1.2626  0.1348
 7266TIP3    H245994   6.621   3.309  12.413 -0.8547  0.2124  0.6388
 7267TIP3   OH245995   3.821   7.436  12.092  0.0684  0.3715 -0.4155
 7267TIP3    H145996   3.874   7.513  12.070  1.5939 -0.9918 -1.7771
 7267TIP3    H245997   3.816   7.386  12.011 -1.3333 -0.7387  0.3022
 7268TIP3   OH245998   0.772   2.437  11.673 -0.3821 -0.2083  0.2797
 7268TIP3    H145999   0.680   2.459  11.660 -0.2092  1.4357  1.5877
 7268TIP3    H246000   0.791   2.373  11.604 -1.9807  0.8595 -1.2310
 7269TIP3   OH246001   2.397   6.442  12.034 -0.2921  0.6888 -0.1962
 7269TIP3    H146002   2.425   6.504  12.100 -2.6855 -0.9257  2.5906
 7269TIP3    H246003   2.306   6.466  12.016 -1.1857 -1.6729  0.7323
 7270TIP3   OH246004   6.366   4.733  11.480  0.6866  0.1703 -0.1164
 7270TIP3    H146005   6.430   4.662  11.480  1.4076  0.7937  0.4065
 7270TIP3    H246006   6.410   4.803  11.431 -0.0890  0.1960 -0.7932
 7271TIP3   OH246007   5.542   4.443  11.508  0.3447  0.3886 -0.1366
 7271TIP3    H146008   5.567   4.504  11.578 -2.0106 -0.8949  1.9695
 7271TIP3    H246009   5.477   4.491  11.457 -0.4076  0.2096  0.6223
 7272TIP3   OH246010   4.154   3.180  12.161  0.1005  0.1937  0.6043
 7272TIP3    H146011   4.203   3.254  12.195  0.1186  1.3188 -1.6994
 7272TIP3    H246012   4.221   3.123  12.122  0.0076 -0.7346  1.7140
 7273TIP3   OH246013   6.977   0.869  11.330 -0.0287 -0.4873 -0.1104
 7273TIP3    H146014   6.887   0.865  11.297 -0.3098 -3.0519  0.7250
 7273TIP3    H246015   7.016   0.785  11.305  0.9208 -0.9817  2.6471
 7274TIP3   OH246016   5.532   6.163  10.727 -0.2447  0.3378  0.3108
 7274TIP3    H146017   5.460   6.224  10.712 -0.1100  0.1474 -1.2045
 7274TIP3    H246018   5.490   6.080  10.749 -0.6393 -0.4267 -2.9198
 7275TIP3   OH246019   1.762   0.050  12.341  0.3345  0.2338 -0.3499
 7275TIP3    H146020   1.794   0.106  12.270 -1.6983  1.3641 -0.4191
 7275TIP3    H246021   1.739   0.110  12.411  0.6341 -0.7472  0.6226
 7276TIP3   OH246022   6.344   1.222  10.674  0.3479 -0.2198  0.1012
 7276TIP3    H146023   6.312   1.303  10.634 -2.2296 -0.4334  1.5025
 7276TIP3    H246024   6.279   1.155  10.648  1.5563 -1.5064  0.2671
 7277TIP3   OH246025   7.420   0.440  11.301 -0.3593 -0.0174 -0.8346
 7277TIP3    H146026   7.482   0.469  11.235  2.3743 -2.9046  0.2224
 7277TIP3    H246027   7.335   0.446  11.258  0.4654  4.0552 -2.3835
 7278TIP3   OH246028   1.732   7.450  12.347 -0.6112 -0.2663 -0.0469
 7278TIP3    H146029   1.654   7.455  12.291 -1.0502 -2.1847  0.3495
 7278TIP3    H246030   1.761   7.541  12.355 -2.7148  0.4720 -0.3205
 7279TIP3   OH246031   1.190   1.986  11.532  0.1051  0.0153  0.0334
 7279TIP3    H146032   1.282   1.971  11.514  0.5052 -1.0249  2.4543
 7279TIP3    H246033   1.182   2.081  11.542  0.7897  0.1551 -0.6718
 7280TIP3   OH246034   7.465   1.024  11.016  0.2924 -0.1536  0.0648
 7280TIP3    H146035   7.458   0.946  10.961  0.0873 -0.3491  0.3628
 7280TIP3    H246036   7.375   1.043  11.043  0.3618  0.0825  0.1341
 7281TIP3   OH246037   4.439   3.871  12.803 -0.3838  0.2706  0.1626
 7281TIP3    H146038   4.369   3.897  12.862  0.4288  1.1475  0.7760
 7281TIP3    H246039   4.403   3.797  12.754 -2.0851  1.3182 -0.2562
 7282TIP3   OH246040   7.242   2.377  11.789  0.0514 -0.5169 -0.2220
 7282TIP3    H146041   7.214   2.407  11.702 -1.6167 -1.3574 -0.0041
 7282TIP3    H246042   7.208   2.443  11.849  0.7348 -0.2272 -0.1368
 7283TIP3   OH246043   3.515   3.364  12.912  0.5511  0.1749 -0.2366
 7283TIP3    H146044   3.527   3.415  12.993 -1.6451 -0.2316  0.4215
 7283TIP3    H246045   3.469   3.424  12.853 -0.0774 -0.3021 -0.2492
 7284TIP3   OH246046   4.069   7.656  12.113  0.4980  0.1465  0.8831
 7284TIP3    H146047   4.020   7.686  12.036  0.2649 -0.0388  0.9591
 7284TIP3    H246048   4.120   7.733  12.139 -0.3958  0.6210  1.3094
 7285TIP3   OH246049   4.181   5.822  12.059  0.0874  0.1189  0.0310
 7285TIP3    H146050   4.157   5.730  12.056  0.2967  0.0648 -0.0248
 7285TIP3    H246051   4.136   5.862  11.985 -0.5696  0.2014  0.4696
 7286TIP3   OH246052   2.388   6.234  11.237  0.0944  0.1581 -0.2019
 7286TIP3    H146053   2.458   6.250  11.173  0.6180 -0.2213  0.2723
 7286TIP3    H246054   2.358   6.321  11.262  0.2837  0.3189 -0.5272
 7287TIP3   OH246055   1.222   6.985  12.302  0.1112 -0.3778  0.4846
 7287TIP3    H146056   1.271   6.977  12.384  0.1485  2.3088  0.8182
 7287TIP3    H246057   1.145   7.036  12.326 -0.6190 -0.7876 -0.9029
 7288TIP3   OH246058   5.634   4.566  11.781 -0.0467 -0.3299  0.1476
 7288TIP3    H146059   5.699   4.634  11.761  0.4210 -0.7860  0.0801
 7288TIP3    H246060   5.685   4.495  11.822 -0.1247 -1.6001 -1.8264
 7289TIP3   OH246061   6.475   5.470  11.373 -0.1913  0.3789 -0.3827
 7289TIP3    H146062   6.495   5.409  11.443  0.3082  1.1156  0.1385
 7289TIP3    H246063   6.541   5.452  11.306  0.3182  0.7219  0.0156
 7290TIP3   OH246064   3.613   3.905  13.039 -0.2752  0.3479  0.0866
 7290TIP3    H146065   3.630   3.817  13.071  1.2190  0.7436  0.5023
 7290TIP3    H246066   3.661   3.910  12.956  0.6182  1.0910  0.6209
 7291TIP3   OH246067   0.815   5.775  11.553  0.2704  0.4584  0.4303
 7291TIP3    H146068   0.767   5.858  11.549  0.2281  0.3892 -1.6904
 7291TIP3    H246069   0.811   5.741  11.464  2.1172 -0.7844  0.7701
 7292TIP3   OH246070   2.458   3.503  10.618  0.1156  0.6560 -0.2611
 7292TIP3    H146071   2.385   3.543  10.569 -0.6167  0.7165  0.8478
 7292TIP3    H246072   2.444   3.530  10.709  0.6868 -0.5530  0.2066
 7293TIP3   OH246073   6.080   5.146  13.358  0.3597 -0.8497 -0.7311
 7293TIP3    H146074   6.096   5.156  13.452  4.1462  0.8894 -1.3760
 7293TIP3    H246075   5.992   5.180  13.345  0.5379  0.9172  1.9324
 7294TIP3   OH246076   6.879   6.101  12.118  0.1023  0.1366 -0.1086
 7294TIP3    H146077   6.886   6.075  12.210  1.1725  0.4157 -0.0994
 7294TIP3    H246078   6.967   6.085  12.082 -0.1406  0.6097 -0.9315
 7295TIP3   OH246079   0.464   6.230  12.176  0.2285 -0.0911  0.5557
 7295TIP3    H146080   0.492   6.192  12.259  1.1840 -2.7243 -0.8792
 7295TIP3    H246081   0.375   6.198  12.164  0.1713  0.1035  0.4592
 7296TIP3   OH246082   1.984   7.526  12.208 -0.5052 -0.2084  0.5738
 7296TIP3    H146083   1.992   7.557  12.298 -0.6281 -2.8465  1.6019
 7296TIP3    H246084   1.895   7.491  12.202 -0.6751  0.3818 -0.7627
 7297TIP3   OH246085   2.929   1.051  12.591 -0.4189  0.4808  0.1042
 7297TIP3    H146086   2.910   0.966  12.551  3.4685 -0.4027 -0.2347
 7297TIP3    H246087   2.927   1.034  12.685 -2.1491  0.7268  0.1514
 7298TIP3   OH246088   3.876   6.787  12.365  0.4798 -0.0426 -0.8354
 7298TIP3    H146089   3.968   6.779  12.388 -0.2582  2.0280  3.9189
 7298TIP3    H246090   3.866   6.877  12.333 -0.2283  0.9035  1.7773
 7299TIP3   OH246091   1.956   2.793  12.791 -0.3125  0.5063  0.3225
 7299TIP3    H146092   1.897   2.725  12.759 -0.6375  1.0593 -0.2729
 7299TIP3    H246093   1.915   2.823  12.873 -0.8953  0.9074 -0.1001
 7300TIP3   OH246094   2.962   3.202  11.527  0.4118  0.4130 -0.3416
 7300TIP3    H146095   2.984   3.177  11.438  0.9498 -0.5393  0.0538
 7300TIP3    H246096   3.036   3.174  11.580 -0.3047  0.1190  0.5383
 7301TIP3   OH246097   1.814   5.630  10.444 -0.0722 -0.0201 -0.4894
 7301TIP3    H146098   1.790   5.582  10.523 -0.1241 -0.6540 -0.8841
 7301TIP3    H246099   1.765   5.712  10.450 -0.3719 -0.2285 -0.0480
 7302TIP3   OH246100   0.912   0.153  10.729 -0.4802 -0.6729  0.3744
 7302TIP3    H146101   0.865   0.223  10.685 -0.2470 -0.6397  0.1833
 7302TIP3    H246102   0.955   0.196  10.803  2.3638  0.0263 -1.5622
 7303TIP3   OH246103   1.527   7.635  12.602  0.1267 -0.1560  0.0754
 7303TIP3    H146104   1.585   7.709  12.585  1.0119 -0.2251  2.3656
 7303TIP3    H246105   1.572   7.560  12.562  1.1834 -0.0442  0.9936
 7304TIP3   OH246106   0.677   7.056  11.951  0.1189  0.7527  0.2676
 7304TIP3    H146107   0.589   7.022  11.934  0.7473 -0.3627 -0.8719
 7304TIP3    H246108   0.719   6.988  12.004  1.4279 -0.4346 -2.1328
 7305TIP3   OH246109   4.465   6.818  13.211 -1.0690  0.3053 -0.4436
 7305TIP3    H146110   4.408   6.857  13.277 -1.4100  0.9459 -1.0939
 7305TIP3    H246111   4.512   6.892  13.172  2.5957 -0.4251  2.1390
 7306TIP3   OH246112   7.551   3.478  10.498  0.3401  0.0289 -0.0445
 7306TIP3    H146113   7.598   3.548  10.452  0.9317 -0.4760 -0.2119
 7306TIP3    H246114   7.557   3.503  10.591 -0.3277  0.7216 -0.1686
 7307TIP3   OH246115   3.908   2.530  11.384 -0.1851 -0.1516 -0.6412
 7307TIP3    H146116   3.982   2.492  11.336  0.6159  0.0889  0.3724
 7307TIP3    H246117   3.831   2.484  11.350  0.7722 -3.1700  0.9603
 7308TIP3   OH246118   1.910   1.967  12.960  0.1113  0.1925  0.1783
 7308TIP3    H146119   1.859   2.045  12.986 -0.8418 -0.4996  0.4544
 7308TIP3    H246120   1.998   1.984  12.994 -0.3109  0.7526  1.0432
 7309TIP3   OH246121   3.208   4.603  12.794 -0.4152 -0.6708 -0.9360
 7309TIP3    H146122   3.126   4.557  12.812 -1.6125  0.6008 -2.8371
 7309TIP3    H246123   3.216   4.666  12.865 -0.2077 -1.8400  0.1302
 7310TIP3   OH246124   1.390   6.230  12.777  0.1668 -0.1280  0.1129
 7310TIP3    H146125   1.447   6.169  12.823  1.5025  1.7393  1.0175
 7310TIP3    H246126   1.355   6.287  12.845 -2.1621 -0.6490 -0.5254
 7311TIP3   OH246127   5.572   5.016  10.785 -0.0157  0.2251 -0.1439
 7311TIP3    H146128   5.660   5.039  10.816 -0.0906  0.4395 -0.0884
 7311TIP3    H246129   5.540   5.096  10.743 -0.1968  0.1561 -0.1354
 7312TIP3   OH246130   6.429   2.582  11.942 -0.4303 -0.4439  0.0966
 7312TIP3    H146131   6.401   2.517  11.877  1.5288  0.3597 -1.6814
 7312TIP3    H246132   6.444   2.662  11.891  0.3375  0.4664  1.6794
 7313TIP3   OH246133   6.747   1.432  12.543  0.0675 -0.2148  0.4380
 7313TIP3    H146134   6.745   1.395  12.455  0.7337 -0.6125  0.5889
 7313TIP3    H246135   6.729   1.525  12.530 -0.6389 -0.4030 -0.0367
 7314TIP3   OH246136   6.993   3.447  11.689 -0.2146  0.2280  0.2321
 7314TIP3    H146137   7.052   3.517  11.716  0.0170 -0.9277  3.1361
 7314TIP3    H246138   7.045   3.393  11.629  0.5925  0.9283  0.2936
 7315TIP3   OH246139   4.676   5.930  10.654 -0.7599  0.0999  0.3703
 7315TIP3    H146140   4.691   5.841  10.685 -0.8934  0.2510  0.8850
 7315TIP3    H246141   4.750   5.980  10.687 -0.0580 -0.0450 -0.9274
 7316TIP3   OH246142   2.907   6.969  11.966 -0.1754  0.2188 -0.5227
 7316TIP3    H146143   2.851   6.920  11.906  1.9640  0.2047 -2.6427
 7316TIP3    H246144   2.893   7.060  11.942  0.4422  0.2357 -0.8164
 7317TIP3   OH246145   1.980   2.768  11.529  0.4170  0.0252  0.0080
 7317TIP3    H146146   1.960   2.768  11.623 -1.8040 -0.9460 -0.4191
 7317TIP3    H246147   2.003   2.677  11.510  0.9317  0.2341 -0.3978
 7318TIP3   OH246148   3.846   3.250  11.660 -0.0117 -0.6088  0.7414
 7318TIP3    H146149   3.870   3.227  11.570  2.3357  0.8394  0.9085
 7318TIP3    H246150   3.761   3.294  11.651 -1.0577 -2.7229 -0.4074
 7319TIP3   OH246151   0.854   3.644  10.591 -0.4160  0.2420 -0.2905
 7319TIP3    H146152   0.908   3.603  10.523  0.4278  0.3796  0.2846
 7319TIP3    H246153   0.909   3.714  10.627 -0.3062 -0.7227  1.4936
 7320TIP3   OH246154   4.959   5.537  11.767 -0.9584  0.4742 -0.3030
 7320TIP3    H146155   4.904   5.517  11.842 -3.2922 -2.5052 -2.5895
 7320TIP3    H246156   5.035   5.480  11.777  0.2516  2.1973  1.1339
 7321TIP3   OH246157   4.701   3.787  11.180 -0.3775 -0.1161  0.1839
 7321TIP3    H146158   4.605   3.778  11.182 -0.3995  0.2126  1.4763
 7321TIP3    H246159   4.732   3.702  11.147 -1.0664 -0.7677  1.1551
 7322TIP3   OH246160   0.571   5.572  10.611  0.1923 -0.5565 -0.2738
 7322TIP3    H146161   0.663   5.546  10.620  0.2279 -2.2519 -3.7027
 7322TIP3    H246162   0.522   5.491  10.626 -0.4968 -0.3278 -1.2002
 7323TIP3   OH246163   0.535   4.248  10.786  0.2589 -0.0622 -0.2705
 7323TIP3    H146164   0.522   4.222  10.695  0.0140  0.8898 -0.5174
 7323TIP3    H246165   0.613   4.199  10.814  0.0842 -0.6894 -0.8462
 7324TIP3   OH246166   4.265   7.584  12.352  0.5973  0.2873  0.4057
 7324TIP3    H146167   4.242   7.637  12.428  1.6778 -2.6179  2.9865
 7324TIP3    H246168   4.195   7.519  12.345  0.0628  1.0007 -1.7300
 7325TIP3   OH246169   0.212   6.365  11.364 -0.0746 -0.0008 -0.5094
 7325TIP3    H146170   0.206   6.323  11.278 -0.7600 -2.8108  0.7964
 7325TIP3    H246171   0.305   6.367  11.383 -0.0255 -1.6084 -0.3817
 7326TIP3   OH246172   4.391   3.911  10.877  0.1528 -0.0378 -0.6871
 7326TIP3    H146173   4.458   3.971  10.843 -0.9837  1.0910 -1.0064
 7326TIP3    H246174   4.309   3.942  10.839 -1.0943  0.7652  2.3279
 7327TIP3   OH246175   2.722   2.420  10.905 -0.2744  0.1534  0.3153
 7327TIP3    H146176   2.631   2.423  10.875 -0.6299  0.4574  1.3899
 7327TIP3    H246177   2.740   2.327  10.918 -0.1304  0.0184 -0.7502
 7328TIP3   OH246178   0.516   4.030  13.020  0.5529  0.4676 -0.0996
 7328TIP3    H146179   0.462   4.109  13.026  1.2849  0.8781  1.4376
 7328TIP3    H246180   0.491   3.978  13.096  0.5766 -0.4925 -0.7251
 7329TIP3   OH246181   2.336   5.969  11.180  0.6778  0.4440  0.1916
 7329TIP3    H146182   2.362   6.055  11.213  1.6410 -0.3272  1.5469
 7329TIP3    H246183   2.412   5.940  11.129  0.7937 -0.0337  0.6295
 7330TIP3   OH246184   4.699   3.563  13.001  0.7538 -0.5052 -0.7665
 7330TIP3    H146185   4.763   3.491  13.001 -0.8178 -1.9879 -1.6487
 7330TIP3    H246186   4.626   3.530  13.053  0.7330  1.2202  0.3734
 7331TIP3   OH246187   1.908   1.761  12.272  0.1260  0.1119  0.4931
 7331TIP3    H146188   1.953   1.732  12.193 -0.8064 -0.6195  0.2024
 7331TIP3    H246189   1.940   1.850  12.287  0.8570 -0.0059 -0.2857
 7332TIP3   OH246190   7.091   1.614  10.875  0.0362 -0.6885  0.3028
 7332TIP3    H146191   7.038   1.687  10.845 -0.7568 -0.4874  2.0559
 7332TIP3    H246192   7.121   1.571  10.795  0.5638  1.5421 -0.7834
 7333TIP3   OH246193   4.594   5.068  11.146  0.0771  0.6518 -0.2689
 7333TIP3    H146194   4.532   5.026  11.207 -0.7509  0.1551 -1.4075
 7333TIP3    H246195   4.555   5.153  11.127 -0.4450  0.2165 -1.2251
 7334TIP3   OH246196   0.734   6.999  12.504  0.1785  0.5011  0.2399
 7334TIP3    H146197   0.652   7.026  12.462 -0.1167  0.6257  0.8915
 7334TIP3    H246198   0.710   6.924  12.557  0.4467  0.6712  0.6023
 7335TIP3   OH246199   3.675   0.603  13.484  0.2404 -0.2841 -0.0047
 7335TIP3    H146200   3.630   0.548  13.420  0.9016 -1.2344  0.3202
 7335TIP3    H246201   3.760   0.560  13.497 -0.4941 -1.1049  2.7425
 7336TIP3   OH246202   6.271   7.609  11.349  0.0343  0.0309 -0.4692
 7336TIP3    H146203   6.268   7.532  11.405 -1.5159  1.0284  0.9128
 7336TIP3    H246204   6.201   7.596  11.286 -1.7679  1.2422  1.1685
 7337TIP3   OH246205   6.101   1.066  10.610  0.5882 -0.4647 -0.8008
 7337TIP3    H146206   6.035   1.002  10.635  2.4369 -1.8278  0.8628
 7337TIP3    H246207   6.095   1.070  10.514  0.1371 -2.8322 -0.9244
 7338TIP3   OH246208   6.267   2.847  11.903 -0.4446  0.2962  0.2747
 7338TIP3    H146209   6.239   2.769  11.854 -1.4339  0.2748  0.8382
 7338TIP3    H246210   6.217   2.919  11.864  0.1295  0.5783  0.0555
 7339TIP3   OH246211   7.659   6.279  11.971  0.3099 -0.4266 -0.0217
 7339TIP3    H146212   7.674   6.199  12.021 -0.3350 -0.9823 -0.6867
 7339TIP3    H246213   7.655   6.250  11.880  0.3855  0.4108 -0.2993
 7340TIP3   OH246214   5.009   6.928  10.510  0.0025 -0.1100  0.3895
 7340TIP3    H146215   5.010   7.013  10.554 -3.8708 -0.4867  1.5919
 7340TIP3    H246216   5.046   6.868  10.575 -1.4119  0.0496  1.3971
 7341TIP3   OH246217   1.513   3.576  12.202 -0.0780 -0.2357  0.8968
 7341TIP3    H146218   1.484   3.667  12.195  1.2754  0.3758  2.6473
 7341TIP3    H246219   1.433   3.526  12.218 -0.9520  0.4907 -0.9377
 7342TIP3   OH246220   5.414   2.325  12.429  0.0654  0.0565 -1.1711
 7342TIP3    H146221   5.468   2.392  12.472 -1.7854 -0.0219  1.5803
 7342TIP3    H246222   5.450   2.242  12.460 -1.7248  0.0062  1.1210
 7343TIP3   OH246223   2.988   1.581  11.628 -0.1986  0.3094  0.0167
 7343TIP3    H146224   3.038   1.544  11.701 -1.8210  3.5973  3.0594
 7343TIP3    H246225   2.900   1.544  11.639 -0.2217  0.0806 -0.9010
 7344TIP3   OH246226   1.574   0.742  11.637 -0.1080 -0.1658 -0.2136
 7344TIP3    H146227   1.500   0.688  11.666 -1.6476  0.9246 -1.9334
 7344TIP3    H246228   1.616   0.769  11.719 -1.5696 -0.8799  0.8336
 7345TIP3   OH246229   2.116   5.437  11.168  0.6106  0.0033  0.8796
 7345TIP3    H146230   2.199   5.453  11.212  0.1483 -0.6401  2.0001
 7345TIP3    H246231   2.096   5.345  11.184 -0.1569  0.0599  0.3430
 7346TIP3   OH246232   6.168   3.178  10.673  0.5093 -0.1803 -0.0226
 7346TIP3    H146233   6.156   3.186  10.768 -1.1939  0.1650 -0.2432
 7346TIP3    H246234   6.222   3.254  10.650  0.4244  0.0742  0.5856
 7347TIP3   OH246235   2.073   4.423  12.606  0.0976  0.2705 -0.2348
 7347TIP3    H146236   2.041   4.351  12.552  1.8541 -0.0745 -0.8742
 7347TIP3    H246237   2.032   4.501  12.569 -0.7520 -0.2420 -0.4009
 7348TIP3   OH246238   4.696   3.334  11.780 -0.1833 -0.1640 -0.4124
 7348TIP3    H146239   4.625   3.282  11.819  0.6354 -0.4676  0.7051
 7348TIP3    H246240   4.734   3.276  11.714 -1.0324  0.0361 -1.0900
 7349TIP3   OH246241   6.463   1.129  13.317  0.3048  0.1634 -0.0837
 7349TIP3    H146242   6.378   1.096  13.347 -0.6815  2.2759 -0.3457
 7349TIP3    H246243   6.480   1.205  13.372  0.6570  1.4017 -1.8153
 7350TIP3   OH246244   1.299   4.313  11.352 -0.1202 -0.3611  0.5103
 7350TIP3    H146245   1.229   4.377  11.363 -0.8819 -1.3888  2.0533
 7350TIP3    H246246   1.254   4.229  11.340  0.7858 -1.1600  2.2881
 7351TIP3   OH246247   1.697   3.413  12.093 -0.5188  0.3443 -0.0223
 7351TIP3    H146248   1.639   3.464  12.150 -1.7023 -0.2916 -0.6136
 7351TIP3    H246249   1.687   3.323  12.124  0.4279  0.2606  0.0743
 7352TIP3   OH246250   2.137   6.735  11.016  0.0405  0.3926  0.1999
 7352TIP3    H146251   2.143   6.738  10.921 -1.4976  0.5050  0.0753
 7352TIP3    H246252   2.227   6.750  11.047  0.4540  0.9847 -1.2163
 7353TIP3   OH246253   4.934   6.054  11.099 -0.0952  0.3009 -0.9912
 7353TIP3    H146254   4.983   5.993  11.044 -1.2861 -1.6143 -0.0561
 7353TIP3    H246255   4.946   6.140  11.058  1.5612 -0.5676 -2.4275
 7354TIP3   OH246256   3.596   0.629  11.188  0.1943  0.1358  0.2670
 7354TIP3    H146257   3.668   0.689  11.167  1.0925 -0.9589  0.1188
 7354TIP3    H246258   3.593   0.627  11.283  2.8281 -2.5423  0.4408
 7355TIP3   OH246259   0.988   5.977  12.993 -0.7063  0.0491  0.1982
 7355TIP3    H146260   1.016   6.051  12.938 -1.9817  0.3779 -0.0522
 7355TIP3    H246261   1.038   5.988  13.074  0.5364  0.0789 -0.5365
 7356TIP3   OH246262   2.925   5.062  12.708  0.2363 -0.2561  0.0714
 7356TIP3    H146263   2.930   5.143  12.759 -2.2023 -0.2555  0.4512
 7356TIP3    H246264   2.876   5.002  12.765 -0.6628 -0.9790 -1.4216
 7357TIP3   OH246265   1.319   4.975  12.765 -0.0910  0.3624 -0.6952
 7357TIP3    H146266   1.382   4.903  12.760 -2.0005 -1.7519  2.1544
 7357TIP3    H246267   1.250   4.950  12.702  0.2919  0.8979 -1.3351
 7358TIP3   OH246268   6.061   4.132  11.720 -0.3247  0.2392 -0.4383
 7358TIP3    H146269   6.137   4.075  11.726  0.8969  1.9051  1.0723
 7358TIP3    H246270   5.986   4.074  11.732  0.5802 -1.5771 -2.7920
 7359TIP3   OH246271   4.405   0.956  11.683 -0.0236 -0.1515  0.7569
 7359TIP3    H146272   4.310   0.947  11.674  0.0901 -0.7725 -0.0183
 7359TIP3    H246273   4.425   1.045  11.653 -0.0886 -0.9182 -1.8374
 7360TIP3   OH246274   0.402   3.769  11.758 -0.5097 -0.3893  0.9329
 7360TIP3    H146275   0.439   3.754  11.845 -2.3059  1.5737  2.1112
 7360TIP3    H246276   0.444   3.851  11.728  1.1985 -1.7862 -0.7632
 7361TIP3   OH246277   1.897   5.783  12.476 -0.8784  0.6545 -0.0050
 7361TIP3    H146278   1.868   5.815  12.390 -1.6683  0.4238  0.1679
 7361TIP3    H246279   1.843   5.829  12.539 -2.4297 -1.3318  0.2281
 7362TIP3   OH246280   7.067   0.281  10.806 -0.2465 -0.1269  0.1742
 7362TIP3    H146281   7.126   0.294  10.732 -0.2315 -0.4922  0.1169
 7362TIP3    H246282   6.997   0.344  10.793 -1.4308 -1.6698 -1.3898
 7363TIP3   OH246283   5.719   1.026  11.878 -0.2378 -0.1146 -0.4503
 7363TIP3    H146284   5.720   1.000  11.970 -0.9770 -0.0431 -0.4190
 7363TIP3    H246285   5.626   1.027  11.854 -0.0483 -0.1720 -1.2076
 7364TIP3   OH246286   4.882   7.442  11.306  0.1095 -0.0236 -0.8477
 7364TIP3    H146287   4.828   7.393  11.368 -1.1516 -1.7114 -3.1553
 7364TIP3    H246288   4.969   7.402  11.314 -0.4223 -1.3073 -1.2695
 7365TIP3   OH246289   0.333   7.614  11.294 -0.8992 -0.0936 -0.0140
 7365TIP3    H146290   0.288   7.673  11.354 -2.0863  0.1712 -1.1147
 7365TIP3    H246291   0.264   7.555  11.263 -0.8171  1.0273 -2.6076
 7366TIP3   OH246292   4.931   7.099  11.126 -0.0555 -0.0651 -0.0736
 7366TIP3    H146293   4.853   7.153  11.113  0.3290  0.4494 -0.2668
 7366TIP3    H246294   5.004   7.153  11.096  0.0736 -1.8695 -3.5120
 7367TIP3   OH246295   5.539   4.109  11.024  0.2101  0.3169  0.1065
 7367TIP3    H146296   5.525   4.014  11.018 -0.2189  0.4008 -0.2936
 7367TIP3    H246297   5.509   4.143  10.939 -0.6285  0.9239  0.6369
 7368TIP3   OH246298   2.705   5.192  11.742 -0.3544 -0.3645 -0.2142
 7368TIP3    H146299   2.781   5.134  11.737 -1.3840 -1.7962  0.2138
 7368TIP3    H246300   2.736   5.269  11.790  0.0539 -2.2858  2.8525
 7369TIP3   OH246301   0.477   4.457  12.198  0.0858 -0.1380  0.1312
 7369TIP3    H146302   0.387   4.429  12.183 -0.6018  0.6699  2.3605
 7369TIP3    H246303   0.524   4.377  12.222 -0.2261 -0.4471 -0.2913
 7370TIP3   OH246304   5.673   3.390  10.990 -0.2064 -0.2175 -0.7348
 7370TIP3    H146305   5.717   3.305  10.983 -1.0228 -0.6066 -1.2911
 7370TIP3    H246306   5.716   3.444  10.924  0.6988 -0.0228  0.0089
 7371TIP3   OH246307   5.421   6.656  11.639  0.3121  0.0813 -0.1879
 7371TIP3    H146308   5.441   6.575  11.687  0.3314 -0.7767 -1.5794
 7371TIP3    H246309   5.342   6.690  11.680  0.6872 -0.2710  0.8568
 7372TIP3   OH246310   2.339   6.980  12.497  0.1871  0.6573  0.0282
 7372TIP3    H146311   2.334   7.040  12.423  0.5433  1.7253  0.8341
 7372TIP3    H246312   2.430   6.984  12.525 -0.0003  0.4960  0.6890
 7373TIP3   OH246313   2.266   4.521  10.343 -0.4941  0.4149 -0.0116
 7373TIP3    H146314   2.357   4.493  10.358  0.0024  0.9762 -1.7265
 7373TIP3    H246315   2.270   4.617  10.347 -0.6439  0.5263 -1.7131
 7374TIP3   OH246316   1.709   2.607  12.952 -0.0068  0.0604  0.1234
 7374TIP3    H146317   1.650   2.610  13.028  0.5923 -1.9418  0.7482
 7374TIP3    H246318   1.797   2.611  12.990  0.2905 -0.5329 -0.4773
 7375TIP3   OH246319   4.237   0.293  11.261  0.0755 -0.4386 -0.0661
 7375TIP3    H146320   4.206   0.373  11.220  0.2330 -0.9918 -1.3120
 7375TIP3    H246321   4.158   0.249  11.293 -0.3444 -1.1453 -1.9345
 7376TIP3   OH246322   0.077   4.874  10.789 -0.2727 -0.1607  0.1251
 7376TIP3    H146323   0.133   4.930  10.735  1.4004 -0.2236  1.7276
 7376TIP3    H246324   0.116   4.787  10.781 -0.7764 -0.4172  0.4424
 7377TIP3   OH246325   7.652   3.238  12.478 -0.4790 -0.2868 -0.1995
 7377TIP3    H146326   7.645   3.331  12.455  0.1558  0.2873  1.7441
 7377TIP3    H246327   7.719   3.203  12.420  2.2339  1.4754  1.6385
 7378TIP3   OH246328   2.471   2.234  11.517 -0.1761  0.1012  0.2168
 7378TIP3    H146329   2.557   2.195  11.536 -0.1621 -0.7185 -1.3736
 7378TIP3    H246330   2.461   2.225  11.422 -0.6306  3.1178 -0.1018
 7379TIP3   OH246331   3.879   2.667  11.991  0.4497 -0.1066  0.1164
 7379TIP3    H146332   3.956   2.611  12.001  0.9848  0.8504  1.8016
 7379TIP3    H246333   3.915   2.754  11.974 -0.0765  0.7740  2.8927
 7380TIP3   OH246334   0.731   6.300  11.387 -0.4997 -0.4617  0.0203
 7380TIP3    H146335   0.785   6.222  11.371  1.2637  0.6012  0.4653
 7380TIP3    H246336   0.765   6.366  11.327 -2.6699 -0.2843 -1.1059
 7381TIP3   OH246337   1.499   2.773  11.388  0.3340  0.6398  0.3726
 7381TIP3    H146338   1.486   2.758  11.482  0.3432  0.9680  0.4277
 7381TIP3    H246339   1.491   2.867  11.378 -1.3068  0.4774 -0.1942
 7382TIP3   OH246340   0.202   0.083  12.548  0.0893  0.2341  0.1853
 7382TIP3    H146341   0.154   0.001  12.538 -2.0445  1.5247 -0.9772
 7382TIP3    H246342   0.290   0.065  12.516 -1.0314 -0.9853 -2.4695
 7383TIP3   OH246343   1.708   1.196  11.351  0.0362  0.0465  0.2195
 7383TIP3    H146344   1.773   1.168  11.286 -0.9835 -1.2728 -0.2886
 7383TIP3    H246345   1.759   1.241  11.418  1.2750  0.3880 -0.9092
 7384TIP3   OH246346   7.237   4.317  12.368  0.4944 -0.1692 -0.7850
 7384TIP3    H146347   7.213   4.391  12.311  1.0043 -0.3126 -1.1907
 7384TIP3    H246348   7.323   4.340  12.402 -0.3164  0.4970  0.9344
 7385TIP3   OH246349   7.207   6.368  12.729  0.1687  0.2810 -0.4351
 7385TIP3    H146350   7.208   6.348  12.822 -1.5381  0.1332 -0.4265
 7385TIP3    H246351   7.119   6.344  12.700  0.2601  1.5085 -1.8257
 7386TIP3   OH246352   2.428   1.990  11.244 -0.0455  0.1263  0.6655
 7386TIP3    H146353   2.427   1.968  11.151  0.4102 -0.1104  0.7154
 7386TIP3    H246354   2.440   2.085  11.246  0.3622  0.0799  0.4887
 7387TIP3   OH246355   6.114   3.730  11.643 -0.0326  0.3494 -1.0786
 7387TIP3    H146356   6.090   3.639  11.659 -1.8918  1.3072  2.5372
 7387TIP3    H246357   6.209   3.733  11.657 -0.1953 -0.7725  0.5356
 7388TIP3   OH246358   6.946   5.803  11.780 -0.1747 -0.1412 -0.4907
 7388TIP3    H146359   6.872   5.854  11.813  0.2929 -0.6635  1.5025
 7388TIP3    H246360   7.021   5.861  11.788 -0.3998  0.7131 -3.3449
 7389TIP3   OH246361   6.916   4.944  11.593 -0.5339 -0.3142  0.8070
 7389TIP3    H146362   6.946   4.995  11.668 -1.4982 -1.8175  2.2983
 7389TIP3    H246363   6.988   4.884  11.574 -0.7572 -0.7817  1.3831
 7390TIP3   OH246364   3.002   2.274  11.512 -0.7135  0.3605 -0.2482
 7390TIP3    H146365   3.018   2.324  11.592 -0.2732  2.4407 -1.5542
 7390TIP3    H246366   3.084   2.280  11.464 -0.1222 -2.9370  0.1210
 7391TIP3   OH246367   0.888   4.057  12.727  0.2266 -0.6002 -0.0658
 7391TIP3    H146368   0.848   4.101  12.651  1.2482 -0.5837 -0.6176
 7391TIP3    H246369   0.823   3.991  12.753 -0.4173 -0.1787 -0.5520
 7392TIP3   OH246370   3.256   6.513  12.263 -0.1564 -0.4099  0.2849
 7392TIP3    H146371   3.346   6.530  12.235  0.0517  0.7730  1.6225
 7392TIP3    H246372   3.234   6.430  12.220  1.1955 -0.2063 -0.8898
 7393TIP3   OH246373   2.386   2.898  12.578  0.2553 -0.1783  0.5812
 7393TIP3    H146374   2.414   2.941  12.497 -0.2673  2.1592  1.5581
 7393TIP3    H246375   2.312   2.843  12.551 -0.6788  1.4600 -0.3841
 7394TIP3   OH246376   1.729   6.249  11.720 -0.4679 -0.2442  0.1500
 7394TIP3    H146377   1.639   6.264  11.693 -0.6531 -0.6970  0.4871
 7394TIP3    H246378   1.749   6.320  11.782 -0.3968  0.1845 -0.3633
 7395TIP3   OH246379   0.883   3.798  13.056  0.4514  0.3236  0.5543
 7395TIP3    H146380   0.795   3.770  13.079  0.2445 -0.9304 -1.4776
 7395TIP3    H246381   0.938   3.765  13.126 -0.2580 -2.2654 -0.0170
 7396TIP3   OH246382   2.483   3.527  11.926  0.0177  0.3386  0.3651
 7396TIP3    H146383   2.427   3.604  11.934  1.1441  1.2297 -0.0548
 7396TIP3    H246384   2.499   3.501  12.017 -2.1416 -0.7767  0.4905
 7397TIP3   OH246385   3.859   4.027  12.295 -0.8508  0.4482 -0.2013
 7397TIP3    H146386   3.912   4.088  12.245 -0.0314 -0.0428  0.0551
 7397TIP3    H246387   3.815   3.973  12.230  0.7125 -0.6201 -0.4214
 7398TIP3   OH246388   2.575   1.503  10.660  0.2439  0.0130 -0.5089
 7398TIP3    H146389   2.545   1.563  10.592  1.7772  0.5709 -0.7456
 7398TIP3    H246390   2.585   1.558  10.738 -0.8550 -0.4864  0.0010
 7399TIP3   OH246391   4.406   3.623  12.697  0.0039 -0.1753 -0.6256
 7399TIP3    H146392   4.395   3.578  12.781  1.7381  1.9846  0.8834
 7399TIP3    H246393   4.483   3.581  12.657  0.3894  0.0912 -0.1737
 7400TIP3   OH246394   5.870   1.911  11.420 -0.3314  0.3248  0.0527
 7400TIP3    H146395   5.960   1.893  11.447  0.0336  1.4401 -0.3796
 7400TIP3    H246396   5.824   1.829  11.437  1.0167 -0.6749 -0.8873
 7401TIP3   OH246397   6.450   6.292  11.453  0.2224 -0.3116  0.1774
 7401TIP3    H146398   6.396   6.359  11.495  0.3614  0.1508 -0.3885
 7401TIP3    H246399   6.478   6.330  11.371  1.4840 -0.5250  0.4905
 7402TIP3   OH246400   7.033   5.559  11.141  0.0150 -0.1587 -0.3676
 7402TIP3    H146401   7.068   5.571  11.053 -1.5437 -0.9282 -1.1263
 7402TIP3    H246402   6.998   5.470  11.141 -0.0791 -0.1344  1.0085
 7403TIP3   OH246403   3.169   0.814  11.010 -0.3846 -0.8572 -0.5041
 7403TIP3    H146404   3.156   0.816  10.916 -0.0796  0.6887 -0.5381
 7403TIP3    H246405   3.200   0.901  11.032 -2.5188 -0.4663  1.3224
 7404TIP3   OH246406   6.994   3.387  12.915 -0.1346  0.3194 -0.0996
 7404TIP3    H146407   6.992   3.451  12.987 -0.4663  0.5639 -0.3207
 7404TIP3    H246408   6.976   3.303  12.957 -1.1249  0.5664  0.0044
 7405TIP3   OH246409   7.405   3.056  12.808  0.2460 -0.2424 -0.3666
 7405TIP3    H146410   7.386   3.131  12.864  0.3530  0.2896 -1.0185
 7405TIP3    H246411   7.324   3.005  12.807 -0.5490  0.9594 -1.5375
 7406TIP3   OH246412   3.177   3.662  11.940 -0.0605 -0.5396  0.0832
 7406TIP3    H146413   3.207   3.581  11.899 -0.4684  0.4504 -2.3168
 7406TIP3    H246414   3.245   3.683  12.004  1.3766 -1.4325 -1.0823
 7407TIP3   OH246415   0.185   3.821  10.713  0.9055 -0.0315 -0.1656
 7407TIP3    H146416   0.213   3.836  10.803 -3.2828 -0.0023  1.3632
 7407TIP3    H246417   0.170   3.908  10.677 -0.2610 -0.0521  0.2210
 7408TIP3   OH246418   6.713   1.326  12.283  0.0563 -0.1648 -0.5728
 7408TIP3    H146419   6.639   1.384  12.266 -0.7145 -0.9945 -0.1382
 7408TIP3    H246420   6.675   1.238  12.283  0.8356 -0.5284  0.7313
 7409TIP3   OH246421   4.249   1.216  11.496  0.7833 -0.1735 -0.6514
 7409TIP3    H146422   4.268   1.266  11.416 -1.8633  0.9520 -0.7087
 7409TIP3    H246423   4.237   1.126  11.466 -0.9365  0.3671 -1.7278
 7410TIP3   OH246424   1.198   2.214  12.662 -0.6234 -0.2581  0.2428
 7410TIP3    H146425   1.176   2.261  12.742  0.6118  0.2415  0.3190
 7410TIP3    H246426   1.204   2.123  12.689 -2.6393 -0.4554  0.1797
 7411TIP3   OH246427   7.280   0.723  11.702 -0.4757 -0.8154  0.0020
 7411TIP3    H146428   7.310   0.711  11.793 -0.7126  0.6934  0.2994
 7411TIP3    H246429   7.361   0.729  11.651 -0.2644  0.8063  0.4729
 7412TIP3   OH246430   0.838   0.640  10.463 -1.0825  0.0673  0.7358
 7412TIP3    H146431   0.928   0.673  10.468 -1.0876 -0.0947  2.1629
 7412TIP3    H246432   0.783   0.718  10.465 -0.9860  0.2256 -1.0233
 7413TIP3   OH246433   4.509   0.080  12.568  0.4468  0.3152  0.3037
 7413TIP3    H146434   4.541   0.004  12.617  0.1346 -1.2295 -1.7635
 7413TIP3    H246435   4.413   0.073  12.574  0.4102  0.2262 -0.3564
 7414TIP3   OH246436   4.182   3.883  12.435  0.4594 -0.6136 -0.2717
 7414TIP3    H146437   4.212   3.897  12.345 -0.1039  1.7105 -0.1496
 7414TIP3    H246438   4.222   3.954  12.485 -2.9491  0.9894  0.4103
 7415TIP3   OH246439   1.720   3.207  11.396  0.1598  0.2786  0.3357
 7415TIP3    H146440   1.788   3.269  11.369  0.2386 -0.4396 -1.2221
 7415TIP3    H246441   1.755   3.121  11.373 -0.9426 -0.1610  0.2334
 7416TIP3   OH246442   0.105   1.037  11.847 -0.4675 -0.1832  0.0746
 7416TIP3    H146443   0.131   1.036  11.939  1.2573  1.0258 -0.3508
 7416TIP3    H246444   0.126   1.126  11.817 -1.9455 -0.2266 -1.2414
 7417TIP3   OH246445   7.229   0.455  11.633 -0.1872 -0.2034 -0.0115
 7417TIP3    H146446   7.179   0.503  11.699  0.5520  1.2879 -0.4968
 7417TIP3    H246447   7.320   0.483  11.646  0.2496 -1.3768 -0.4061
 7418TIP3   OH246448   3.024   0.390  10.352  0.0587 -0.0604 -0.2184
 7418TIP3    H146449   2.956   0.403  10.417 -1.4148 -2.1255 -1.2051
 7418TIP3    H246450   2.988   0.428  10.272  0.3939 -0.4495 -0.5606
 7419TIP3   OH246451   1.478   3.145  13.322 -0.3898 -0.4180  0.0365
 7419TIP3    H146452   1.496   3.191  13.404  1.4299 -0.1898 -0.4380
 7419TIP3    H246453   1.437   3.063  13.349  0.8462 -0.6751  1.2650
 7420TIP3   OH246454   3.813   5.162  11.969 -0.3040 -0.1349  0.5599
 7420TIP3    H146455   3.828   5.082  12.018  0.6495  0.3585  1.0893
 7420TIP3    H246456   3.892   5.175  11.917 -0.6271  0.2337  0.1459
 7421TIP3   OH246457   7.551   2.067  11.193  0.1861 -0.3185  0.0020
 7421TIP3    H146458   7.581   2.078  11.103 -0.2878 -1.1400 -0.2558
 7421TIP3    H246459   7.465   2.110  11.195 -0.2323 -1.1271 -0.1913
 7422TIP3   OH246460   4.556   2.555  11.561  0.5622 -0.4934  1.2540
 7422TIP3    H146461   4.588   2.468  11.581 -0.9180 -1.1850  0.7632
 7422TIP3    H246462   4.635   2.606  11.543  1.3990 -2.7286 -2.4530
 7423TIP3   OH246463   6.454   7.318  11.449  0.0045  0.2737  0.2498
 7423TIP3    H146464   6.519   7.379  11.483  0.5033  0.5653 -1.1661
 7423TIP3    H246465   6.370   7.359  11.471  0.3299  1.2261 -0.2115
 7424TIP3   OH246466   2.237   2.875  13.197  0.3813 -0.3999  0.3756
 7424TIP3    H146467   2.191   2.831  13.125 -0.3656  0.9497 -0.0082
 7424TIP3    H246468   2.329   2.868  13.173  0.0915  1.3914 -1.5940
 7425TIP3   OH246469   4.270   4.636  12.637  0.2086  0.3119 -0.0080
 7425TIP3    H146470   4.308   4.549  12.647 -0.3145  0.0015 -0.5959
 7425TIP3    H246471   4.199   4.639  12.701 -0.7831 -0.3011 -1.0302
 7426TIP3   OH246472   3.617   3.586  12.093  0.1671  0.0926 -0.2320
 7426TIP3    H146473   3.709   3.611  12.096 -0.3724  2.1411  0.1704
 7426TIP3    H246474   3.603   3.556  12.003  0.7241  1.8610 -0.9295
 7427TIP3   OH246475   1.839   0.238  11.040  0.4151  0.0187  0.0977
 7427TIP3    H146476   1.876   0.152  11.059  0.1043  0.2831  2.0852
 7427TIP3    H246477   1.914   0.291  11.013  0.6336 -0.8006 -0.9621
 7428TIP3   OH246478   1.391   5.084  11.823 -0.1667  0.2242  0.1148
 7428TIP3    H146479   1.413   4.994  11.799 -0.4090  0.3120 -0.4571
 7428TIP3    H246480   1.325   5.075  11.893 -0.3710 -0.0420 -0.1122
 7429TIP3   OH246481   1.604   5.767  12.918 -0.0853 -0.5820  0.2729
 7429TIP3    H146482   1.617   5.833  12.986  0.2449 -0.4071  0.0430
 7429TIP3    H246483   1.534   5.803  12.864 -0.3529 -0.7242  0.5202
 7430TIP3   OH246484   2.510   2.893  13.171 -0.4105  0.2920  0.4519
 7430TIP3    H146485   2.525   2.823  13.235  0.2551  0.6320  0.6796
 7430TIP3    H246486   2.593   2.901  13.125 -0.1710  1.5667  1.0699
 7431TIP3   OH246487   4.679   6.889  11.190  0.1828  0.3988 -0.2533
 7431TIP3    H146488   4.762   6.851  11.161 -0.3786  0.8607 -2.6590
 7431TIP3    H246489   4.612   6.842  11.140 -0.9551  0.7516  0.8846
 7432TIP3   OH246490   5.005   3.806  11.362  0.3787  0.3709 -0.0465
 7432TIP3    H146491   4.947   3.882  11.356 -0.5931 -0.3557 -0.1357
 7432TIP3    H246492   5.065   3.828  11.433 -0.1108  1.0730  0.1642
 7433TIP3   OH246493   4.111   1.860  11.427 -0.3889 -0.1665 -0.5818
 7433TIP3    H146494   4.110   1.768  11.451  1.9574 -0.3217 -0.7996
 7433TIP3    H246495   4.069   1.905  11.500 -0.5255 -1.3072  0.0657
 7434TIP3   OH246496   5.145   1.873  12.393  0.3048 -0.4400 -0.0635
 7434TIP3    H146497   5.236   1.847  12.386 -0.3949 -3.1796 -0.2136
 7434TIP3    H246498   5.143   1.965  12.365  3.4774  0.8496  3.1804
 7435TIP3   OH246499   0.442   6.216  12.704  0.2760  0.1626  0.6444
 7435TIP3    H146500   0.491   6.296  12.725 -1.1965  2.1724 -2.7226
 7435TIP3    H246501   0.357   6.248  12.674 -0.8169 -2.7986  0.2817
 7436TIP3   OH246502   6.228   7.067  12.654 -0.1190  0.0623 -0.1932
 7436TIP3    H146503   6.229   6.972  12.659  0.8194 -0.0269 -1.5596
 7436TIP3    H246504   6.230   7.096  12.746  3.0354 -1.2535  0.3001
 7437TIP3   OH246505   4.955   5.139  12.353 -0.7529  0.1649 -0.3959
 7437TIP3    H146506   4.962   5.064  12.412  0.7157 -1.0273 -1.9810
 7437TIP3    H246507   4.864   5.166  12.360 -0.5056  0.6121  2.9749
 7438TIP3   OH246508   4.533   1.436  10.932 -0.1962 -0.5836  0.6336
 7438TIP3    H146509   4.610   1.390  10.900 -0.0081 -0.4777  0.9327
 7438TIP3    H246510   4.460   1.394  10.887  0.2074  1.1186 -1.7941
 7439TIP3   OH246511   0.217   7.105  11.009  0.0045  0.2363  0.4075
 7439TIP3    H146512   0.203   7.066  10.923  1.8922  0.8517 -0.2145
 7439TIP3    H246513   0.259   7.036  11.060  1.1940  0.6582  0.0294
 7440TIP3   OH246514   2.590   3.267  10.678 -0.5642  0.3498 -0.1305
 7440TIP3    H146515   2.554   3.344  10.634  1.1592  1.1982 -0.1466
 7440TIP3    H246516   2.666   3.243  10.626 -1.0657 -1.4116 -0.1280
 7441TIP3   OH246517   1.734   1.388  11.150  0.4198 -0.4288 -0.3625
 7441TIP3    H146518   1.685   1.311  11.178  1.1773 -0.8247 -0.1354
 7441TIP3    H246519   1.690   1.415  11.069 -1.2877  0.2603  0.7298
 7442TIP3   OH246520   6.076   6.418  13.132 -0.8632  0.1635  0.0275
 7442TIP3    H146521   6.081   6.328  13.100 -2.3446  0.7030 -1.9135
 7442TIP3    H246522   6.004   6.418  13.194  0.5413 -0.3916  1.7498
 7443TIP3   OH246523   6.135   4.347  12.410 -0.5141  0.1814 -0.1532
 7443TIP3    H146524   6.210   4.333  12.468 -0.3563  0.1688 -0.3614
 7443TIP3    H246525   6.170   4.339  12.322 -1.3609 -3.6530 -0.3461
 7444TIP3   OH246526   7.453   5.073  11.823  0.1903  0.2770 -0.5754
 7444TIP3    H146527   7.456   5.064  11.728  0.0047  1.0517 -0.6619
 7444TIP3    H246528   7.537   5.039  11.853 -0.1010 -0.7921 -0.9378
 7445TIP3   OH246529   4.639   0.155  12.302 -0.3008  0.0225  0.2332
 7445TIP3    H146530   4.571   0.135  12.366  0.9016 -2.4270  0.8879
 7445TIP3    H246531   4.608   0.117  12.220 -0.6478  0.7812  0.0092
 7446TIP3   OH246532   2.565   2.034  12.135 -0.1649 -0.1361 -0.0897
 7446TIP3    H146533   2.567   2.093  12.060  1.0088 -1.7802 -1.4322
 7446TIP3    H246534   2.496   1.972  12.114  0.1831 -0.6138  0.1662
 7447TIP3   OH246535   7.418   3.205  10.527  0.1250 -0.0679  0.3965
 7447TIP3    H146536   7.465   3.287  10.511 -0.1516 -0.3417 -2.2740
 7447TIP3    H246537   7.485   3.145  10.559  1.0749  0.2930 -0.8362
 7448TIP3   OH246538   7.461   6.795  11.675 -0.0259 -0.4374 -0.5294
 7448TIP3    H146539   7.370   6.786  11.647 -0.1380  1.9336 -1.1032
 7448TIP3    H246540   7.504   6.715  11.643 -1.5593 -0.8828 -1.5981
 7449TIP3   OH246541   4.088   1.901  12.712  0.6342  0.0779  0.2394
 7449TIP3    H146542   4.162   1.901  12.772 -0.8965  0.6158  2.2141
 7449TIP3    H246543   4.023   1.843  12.752 -0.3859  0.3310 -0.9675
 7450TIP3   OH246544   4.242   0.221  12.148  0.3175 -0.1238  0.1799
 7450TIP3    H146545   4.317   0.184  12.100 -0.8260 -1.9417 -0.2944
 7450TIP3    H246546   4.210   0.291  12.091  0.6302 -0.4572 -0.4206
 7451TIP3   OH246547   1.303   2.137  12.410 -0.3003  0.1492 -0.5891
 7451TIP3    H146548   1.254   2.160  12.331  0.3775  1.6354 -0.6225
 7451TIP3    H246549   1.248   2.170  12.481 -0.4611 -0.3351 -0.4853
 7452TIP3   OH246550   0.496   6.696  12.919  0.1610 -0.1486 -0.5070
 7452TIP3    H146551   0.501   6.791  12.921  0.5316 -0.1515 -1.2859
 7452TIP3    H246552   0.412   6.676  12.962  0.6710  0.4552  0.8153
 7453TIP3   OH246553   5.810   7.048  10.581  0.3683 -0.3271 -0.1891
 7453TIP3    H146554   5.766   6.969  10.612 -0.0960 -0.3167 -0.7905
 7453TIP3    H246555   5.784   7.054  10.489  1.9085 -0.5034 -0.6513
 7454TIP3   OH246556   5.057   5.351  12.752  0.0857  0.0296  0.1088
 7454TIP3    H146557   5.091   5.264  12.733  3.3071  1.2783 -0.3030
 7454TIP3    H246558   5.048   5.353  12.848 -0.1194 -0.7436  0.1120
 7455TIP3   OH246559   5.704   1.437  10.619 -0.0898  0.5418 -0.1852
 7455TIP3    H146560   5.793   1.446  10.585 -0.1737  0.6000 -0.3933
 7455TIP3    H246561   5.704   1.488  10.700  0.3440 -0.2790  0.3465
 7456TIP3   OH246562   5.102   5.871  10.714  0.2103  0.2359  0.1604
 7456TIP3    H146563   5.069   5.848  10.801  0.8846 -1.9309 -0.0955
 7456TIP3    H246564   5.117   5.787  10.671  2.2120  1.1857 -1.1611
 7457TIP3   OH246565   3.853   6.640  11.032  0.2477 -0.1457  0.0695
 7457TIP3    H146566   3.758   6.639  11.025  0.2430 -0.3681  0.1783
 7457TIP3    H246567   3.881   6.555  10.998  0.4592  0.2132 -0.6876
 7458TIP3   OH246568   2.480   2.194  12.408 -0.1432  0.6397  0.1845
 7458TIP3    H146569   2.455   2.255  12.339  0.7307  1.0762  0.2302
 7458TIP3    H246570   2.437   2.112  12.384 -0.1529  0.8812 -0.6828
 7459TIP3   OH246571   1.552   0.507  13.136 -0.2057 -0.7191  0.1348
 7459TIP3    H146572   1.514   0.442  13.195  0.8318 -0.4426  1.1380
 7459TIP3    H246573   1.526   0.477  13.049 -0.7041 -1.8503  0.6413
 7460TIP3   OH246574   0.970   3.920  10.433 -0.5036  0.1594 -0.0585
 7460TIP3    H146575   0.969   3.953  10.523 -1.1156  0.2180 -0.0842
 7460TIP3    H246576   1.034   3.975  10.388 -0.4843  0.3858  0.2412
 7461TIP3   OH246577   0.505   7.590  12.082  0.1873  0.6589  0.2975
 7461TIP3    H146578   0.426   7.637  12.110 -0.8336 -0.0024 -1.3265
 7461TIP3    H246579   0.549   7.650  12.023 -0.5688  0.0172 -0.9535
 7462TIP3   OH246580   3.303   5.487  12.340  0.4937 -1.1442  0.5660
 7462TIP3    H146581   3.390   5.468  12.305  0.5574 -3.2445  1.7138
 7462TIP3    H246582   3.260   5.540  12.272  2.7549  0.2766  0.1493
 7463TIP3   OH246583   0.787   3.498  12.288 -0.3898  0.5864 -0.1866
 7463TIP3    H146584   0.806   3.509  12.381  1.8960  0.0003 -0.5244
 7463TIP3    H246585   0.716   3.434  12.286 -1.4878  1.6837  1.1573
 7464TIP3   OH246586   1.807   0.821  10.214 -0.0510 -0.2443 -0.0754
 7464TIP3    H146587   1.861   0.885  10.168 -0.9071  1.0293  0.6313
 7464TIP3    H246588   1.871   0.765  10.259  0.7158 -0.0593 -0.8980
 7465TIP3   OH246589   6.557   0.270  11.597  0.0758  0.6118 -0.5611
 7465TIP3    H146590   6.507   0.206  11.546  1.5840 -1.8862  0.8791
 7465TIP3    H246591   6.491   0.319  11.646 -1.1087 -2.7768  1.5217
 7466TIP3   OH246592   2.104   3.549  11.879  0.0668 -0.0079  0.1900
 7466TIP3    H146593   2.150   3.600  11.946  2.3914 -1.6958  0.0435
 7466TIP3    H246594   2.021   3.594  11.866  1.7422  3.3864  0.3745
 7467TIP3   OH246595   3.828   7.584  11.455 -0.2935  0.2150  0.2502
 7467TIP3    H146596   3.739   7.552  11.437 -0.4004 -0.6810  2.1729
 7467TIP3    H246597   3.853   7.630  11.375 -2.3024  0.0746 -0.5195
 7468TIP3   OH246598   7.035   2.484  12.597 -0.1170  0.1536 -0.3247
 7468TIP3    H146599   7.128   2.464  12.609 -0.0029 -0.8913 -2.4885
 7468TIP3    H246600   7.033   2.543  12.522 -1.2653 -0.8090 -1.0719
 7469TIP3   OH246601   0.705   0.019  11.919 -0.1791 -0.6028 -0.2211
 7469TIP3    H146602   0.786   0.019  11.971 -0.3511  1.0770  0.1048
 7469TIP3    H246603   0.730  -0.024  11.837  0.4429 -2.1022  0.7142
 7470TIP3   OH246604   1.775   5.282  12.648 -0.7338 -0.5793 -0.1010
 7470TIP3    H146605   1.719   5.272  12.726 -1.0224 -1.0170 -0.3626
 7470TIP3    H246606   1.788   5.192  12.617 -0.2248 -0.4422 -0.2831
 7471TIP3   OH246607   1.421   0.291  13.287  0.4579 -0.4290 -0.2781
 7471TIP3    H146608   1.342   0.284  13.341  0.3614  1.8146 -0.0553
 7471TIP3    H246609   1.456   0.202  13.285  1.0827 -0.5855  4.4297
 7472TIP3   OH246610   4.161   7.288  11.281  0.2162  0.0679 -0.2548
 7472TIP3    H146611   4.120   7.279  11.367 -0.3841  1.5131 -0.3643
 7472TIP3    H246612   4.210   7.206  11.269  1.7577  0.5502  2.2073
 7473TIP3   OH246613   4.539   4.922  11.797  0.5542  0.3048  0.2962
 7473TIP3    H146614   4.622   4.945  11.755  0.5449  0.2765  0.2620
 7473TIP3    H246615   4.552   4.831  11.827  1.0212  0.7354  1.4726
 7474TIP3   OH246616   1.407   4.763  11.199  0.6759 -0.0142 -0.3571
 7474TIP3    H146617   1.489   4.797  11.235  0.9500  0.3764 -1.3341
 7474TIP3    H246618   1.431   4.724  11.115 -0.5246  2.6569 -2.0878
 7475TIP3   OH246619   4.845   0.291  12.149 -0.0628  0.2730 -0.1004
 7475TIP3    H146620   4.922   0.302  12.206  0.0651  0.2862 -0.2745
 7475TIP3    H246621   4.790   0.228  12.195  0.3355 -0.2020 -0.2604
 7476TIP3   OH246622   1.372   6.038  12.099 -0.0501 -0.4288 -0.2397
 7476TIP3    H146623   1.461   6.056  12.129 -1.1062  1.1631  2.2643
 7476TIP3    H246624   1.369   5.943  12.088  1.6574 -0.6302  0.6882
 7477TIP3   OH246625   0.157   7.370  12.045  0.1556 -0.1690  0.7338
 7477TIP3    H146626   0.146   7.431  11.972  0.3389 -2.1061 -1.0299
 7477TIP3    H246627   0.232   7.405  12.094  0.6044  0.7310 -0.5257
 7478TIP3   OH246628   3.504   1.284  11.137  0.0149 -0.2526  0.4373
 7478TIP3    H146629   3.574   1.336  11.175 -0.5491  0.0228  1.1246
 7478TIP3    H246630   3.548   1.221  11.080  0.6941  1.3064 -0.8495
 7479TIP3   OH246631   5.006   3.722  18.623 -0.3751 -0.1862 -0.2530
 7479TIP3    H146632   5.088   3.703  18.579 -1.0278 -1.5523 -0.9582
 7479TIP3    H246633   4.987   3.813  18.602  1.1069  0.2473  0.2137
 7480TIP3   OH246634   6.370   3.369  10.898 -0.3212 -0.4623 -0.0258
 7480TIP3    H146635   6.276   3.384  10.908  0.1162  1.9665  1.2261
 7480TIP3    H246636   6.388   3.389  10.806 -0.7290  1.3224  0.2442
 7481TIP3   OH246637   1.386   3.868  11.613 -0.0338  0.0523 -0.3937
 7481TIP3    H146638   1.382   3.773  11.620 -0.6369  0.1645  1.1118
 7481TIP3    H246639   1.298   3.898  11.638 -0.1041  0.9815 -1.6180
 7482TIP3   OH246640   7.452   2.590  10.777 -0.8785  0.1467 -0.5050
 7482TIP3    H146641   7.360   2.594  10.804 -0.4734  2.0021  0.8310
 7482TIP3    H246642   7.454   2.636  10.694 -1.3298 -1.0413 -1.1988
 7483TIP3   OH246643   0.203   3.085  12.477 -0.5142  0.1732  0.6089
 7483TIP3    H146644   0.205   3.080  12.572 -1.4824  1.9311  0.7706
 7483TIP3    H246645   0.212   2.994  12.448  2.0387 -0.2117  2.2692
 7484TIP3   OH246646   3.431   4.097  13.133  0.5077 -0.0790  0.3565
 7484TIP3    H146647   3.467   4.186  13.132  0.3975 -0.0347  0.4034
 7484TIP3    H246648   3.501   4.043  13.096  0.5183  0.0472  0.1913
 7485TIP3   OH246649   3.092   7.521  11.234  0.5472 -0.7303 -0.3048
 7485TIP3    H146650   2.997   7.510  11.232  0.4145 -0.0526  0.9527
 7485TIP3    H246651   3.117   7.524  11.142 -0.9969  1.6576 -0.7487
 7486TIP3   OH246652   3.339   6.832  12.938 -0.5295  0.1724  0.2451
 7486TIP3    H146653   3.265   6.780  12.969  0.2407 -0.7474  0.6220
 7486TIP3    H246654   3.327   6.837  12.844 -1.4572  0.6593  0.3835
 7487TIP3   OH246655   5.688   0.371  11.383  0.3872 -0.0554  0.3110
 7487TIP3    H146656   5.621   0.303  11.374 -0.1119  0.5281 -0.4768
 7487TIP3    H246657   5.771   0.324  11.374  0.1285 -0.8615  1.7804
 7488TIP3   OH246658   6.108   2.697  11.672  0.6019 -0.7380 -0.2092
 7488TIP3    H146659   6.026   2.699  11.622  0.1491 -2.9250  0.3371
 7488TIP3    H246660   6.124   2.604  11.686  2.4539 -0.2814  0.9157
 7489TIP3   OH246661   6.454   5.504  12.820  0.0173 -0.1234 -0.1451
 7489TIP3    H146662   6.459   5.411  12.844 -2.0926 -0.3306 -0.3758
 7489TIP3    H246663   6.411   5.546  12.894  1.1455  0.7403  0.0473
 7490TIP3   OH246664   2.499   0.249  12.866 -0.1547 -0.1365 -0.1930
 7490TIP3    H146665   2.439   0.222  12.936 -1.5727  0.6917 -1.0355
 7490TIP3    H246666   2.568   0.297  12.911 -2.2234  2.4005  0.5072
 7491TIP3   OH246667   1.273   2.327  12.129 -0.7294  0.2139 -1.0728
 7491TIP3    H146668   1.317   2.305  12.047  2.4408 -1.7613  0.9152
 7491TIP3    H246669   1.213   2.255  12.145  0.7454 -0.9146 -0.3872
 7492TIP3   OH246670   1.916   6.925  11.545  0.0178  0.1393 -0.5195
 7492TIP3    H146671   1.822   6.923  11.524 -0.0316  0.4077 -0.3322
 7492TIP3    H246672   1.935   7.018  11.558  0.3090  0.0825 -0.5475
 7493TIP3   OH246673   1.049   7.016  11.519 -0.4004  0.5402  0.3747
 7493TIP3    H146674   1.047   7.026  11.424 -0.7097  1.7383  0.4928
 7493TIP3    H246675   0.958   7.022  11.546 -0.2373  1.1035  0.8263
 7494TIP3   OH246676   1.895   5.861  11.070  0.0048  0.1587  0.1407
 7494TIP3    H146677   1.887   5.795  11.001 -1.5012  0.4871 -0.0452
 7494TIP3    H246678   1.942   5.934  11.029  1.7929 -0.7996  0.3866
 7495TIP3   OH246679   4.995   7.285  11.640  0.0952  0.1720 -0.5499
 7495TIP3    H146680   4.983   7.348  11.711  0.9831  2.3072 -2.1758
 7495TIP3    H246681   4.910   7.279  11.598  0.3800  1.7278 -1.4416
 7496TIP3   OH246682   6.701   6.308  11.570 -0.0881 -0.1899  1.2183
 7496TIP3    H146683   6.618   6.262  11.557  0.3022 -0.2362 -1.7509
 7496TIP3    H246684   6.686   6.396  11.535  1.1688 -0.2990  0.3093
 7497TIP3   OH246685   2.169   6.963  10.393  0.1308  0.1266 -0.3360
 7497TIP3    H146686   2.126   7.019  10.329  0.3085  0.6734  0.0161
 7497TIP3    H246687   2.222   7.023  10.446  0.6819 -0.4308 -0.2475
 7498TIP3   OH246688   7.032   0.118  11.815 -0.4492  0.0981  0.0447
 7498TIP3    H146689   7.052   0.198  11.863 -1.9892  1.9392 -2.1925
 7498TIP3    H246690   6.974   0.068  11.873 -0.7616  1.3476  0.8297
 7499TIP3   OH246691   0.347   4.714  13.222 -0.1491 -0.0047  0.0214
 7499TIP3    H146692   0.403   4.791  13.236  1.0207 -0.6062 -1.1221
 7499TIP3    H246693   0.261   4.741  13.256  0.1822  1.8639 -0.4850
 7500TIP3   OH246694   2.512   6.921  10.970  0.0062  0.5693  0.0018
 7500TIP3    H146695   2.464   6.970  10.904  2.0278  0.8830 -1.3453
 7500TIP3    H246696   2.545   6.988  11.031 -0.4282  0.4553  0.3686
 7501TIP3   OH246697   4.658   5.232  11.602  0.0524  0.0708 -0.0644
 7501TIP3    H146698   4.573   5.192  11.624  0.0097  0.4608  0.4887
 7501TIP3    H246699   4.721   5.161  11.611  0.0366  0.2218  1.3462
 7502TIP3   OH246700   7.481   3.336  11.650 -0.4765 -0.5200 -0.1468
 7502TIP3    H146701   7.549   3.402  11.662  0.7882 -1.7215 -0.3691
 7502TIP3    H246702   7.466   3.334  11.556 -0.1714 -0.8659 -0.1903
 7503TIP3   OH246703   3.972   6.757  11.278 -0.1592 -0.3001  0.0010
 7503TIP3    H146704   4.036   6.697  11.318  1.0495  0.2745 -1.0116
 7503TIP3    H246705   3.978   6.739  11.185 -0.9518  0.2873 -0.1693
 7504TIP3   OH246706   2.716   6.428  11.795 -0.4110  0.0345  0.3877
 7504TIP3    H146707   2.765   6.510  11.803 -0.2263 -0.1768  1.5947
 7504TIP3    H246708   2.627   6.456  11.770 -0.4866  0.6597  1.2779
 7505TIP3   OH246709   2.859   2.395  12.643 -0.4174  0.5622 -0.1134
 7505TIP3    H146710   2.837   2.432  12.558 -0.3091  0.6235 -0.1152
 7505TIP3    H246711   2.781   2.409  12.697  0.2957  2.6038  0.4924
 7506TIP3   OH246712   1.622   7.531  13.041  0.0969 -0.0684  0.6151
 7506TIP3    H146713   1.594   7.443  13.018 -1.1285  0.6783 -0.8970
 7506TIP3    H246714   1.717   7.531  13.024 -0.0011 -0.9125  0.0015
 7507TIP3   OH246715   3.335   0.290  12.650 -0.6869 -0.6041  0.6033
 7507TIP3    H146716   3.387   0.281  12.569 -0.7820 -3.2674  0.7340
 7507TIP3    H246717   3.271   0.358  12.630 -0.4343 -0.8889 -1.4360
 7508TIP3   OH246718   7.130   4.931  10.736 -0.2208  0.5029  0.2530
 7508TIP3    H146719   7.047   4.898  10.702  0.4994 -0.6824 -0.4235
 7508TIP3    H246720   7.184   4.853  10.749  1.7922  1.3654 -2.0912
 7509TIP3   OH246721   2.366   6.963  11.326  0.2017 -0.0727  0.3829
 7509TIP3    H146722   2.394   6.879  11.290 -1.3994  0.1074 -1.4527
 7509TIP3    H246723   2.272   6.967  11.308  0.5120  2.8543 -1.3499
 7510TIP3   OH246724   1.851   5.789  12.779 -0.1611 -0.4023  0.2716
 7510TIP3    H146725   1.777   5.789  12.839  1.0731 -0.7457  1.8894
 7510TIP3    H246726   1.926   5.762  12.833  0.9949 -0.9464 -1.4805
 7511TIP3   OH246727   0.132   5.522  11.705  0.0366 -0.0957 -0.1731
 7511TIP3    H146728   0.068   5.460  11.739 -0.0423 -1.0787 -2.0201
 7511TIP3    H246729   0.100   5.546  11.619  0.7496  1.5412 -0.0309
 7512TIP3   OH246730   7.254   0.218  12.655  0.2779  0.5491 -0.4574
 7512TIP3    H146731   7.221   0.128  12.656 -0.7952  0.9266 -0.4594
 7512TIP3    H246732   7.232   0.251  12.743 -0.2645  1.1194 -0.7986
 7513TIP3   OH246733   5.667   3.441  11.698  0.0733  0.1057 -0.4438
 7513TIP3    H146734   5.720   3.386  11.755  0.6070 -0.4921 -1.4671
 7513TIP3    H246735   5.667   3.394  11.614 -1.1621  0.6530 -0.7763
 7514TIP3   OH246736   1.773   2.405  13.187 -0.1205 -0.0983 -0.2492
 7514TIP3    H146737   1.738   2.356  13.261  0.8960 -0.2890  0.1245
 7514TIP3    H246738   1.713   2.478  13.175  0.0688  0.3320  1.2139
 7515TIP3   OH246739   0.827   1.106  10.919 -0.1441 -0.7938  0.3730
 7515TIP3    H146740   0.828   1.023  10.871  1.7370 -0.7010  0.1764
 7515TIP3    H246741   0.909   1.149  10.895 -0.6218  0.6920  1.2419
 7516TIP3   OH246742   5.442   3.477  10.697 -0.2704 -0.1932  0.4504
 7516TIP3    H146743   5.364   3.439  10.737  0.8652 -1.5094  1.5311
 7516TIP3    H246744   5.501   3.403  10.684  1.6810  1.0235  1.7689
 7517TIP3   OH246745   1.621   2.653  12.260 -0.0304 -0.0295 -0.4266
 7517TIP3    H146746   1.544   2.608  12.296  0.7316 -1.0461 -0.0082
 7517TIP3    H246747   1.636   2.609  12.176 -0.7884  1.1892 -1.2269
 7518TIP3   OH246748   7.152   3.251  12.388 -0.1803 -0.5793  0.2020
 7518TIP3    H146749   7.176   3.285  12.301 -0.3511 -1.7806 -0.3322
 7518TIP3    H246750   7.232   3.208  12.419  0.2115  0.7615  1.1248
 7519TIP3   OH246751   6.912   3.732  13.390 -0.0694  0.0732 -0.0207
 7519TIP3    H146752   6.942   3.822  13.406  0.7154 -0.0933 -0.4573
 7519TIP3    H246753   6.992   3.680  13.398 -0.7148 -0.7516  1.3886
 7520TIP3   OH246754   4.641   3.510  11.075  0.0942  0.1338 -0.0613
 7520TIP3    H146755   4.637   3.573  11.003  2.3480  0.3186 -0.0754
 7520TIP3    H246756   4.708   3.447  11.048 -1.3820 -1.7286  0.4182
 7521TIP3   OH246757   4.738   7.282  10.673 -0.2478  0.5678 -0.1102
 7521TIP3    H146758   4.716   7.193  10.700 -0.0192  0.1879 -1.1098
 7521TIP3    H246759   4.803   7.311  10.737 -0.0322 -0.1367 -0.0005
 7522TIP3   OH246760   3.685   5.211  11.572 -0.0993  0.2698 -0.2335
 7522TIP3    H146761   3.719   5.273  11.508  1.0583 -0.4232 -0.3220
 7522TIP3    H246762   3.763   5.164  11.604 -1.0957 -3.2800 -2.4178
 7523TIP3   OH246763   0.339   4.921  10.605 -0.4597  0.0367 -0.4232
 7523TIP3    H146764   0.389   4.841  10.622 -1.5599 -0.5760 -0.0073
 7523TIP3    H246765   0.335   4.927  10.509  0.9076  0.4275 -0.4751
 7524TIP3   OH246766   4.830   5.617  13.036  0.0421 -0.3052  0.3042
 7524TIP3    H146767   4.765   5.563  13.080 -0.5051 -0.3247 -0.5111
 7524TIP3    H246768   4.835   5.697  13.089 -2.1997  0.6067 -0.7091
 7525TIP3   OH246769   3.972   4.548  11.540  0.7501  0.2277  0.2919
 7525TIP3    H146770   4.055   4.543  11.588  0.5944 -3.1698  0.4666
 7525TIP3    H246771   3.906   4.560  11.609  0.8415 -0.7546  0.5672
 7526TIP3   OH246772   0.750   0.667  11.370  0.1566  0.5643 -0.4810
 7526TIP3    H146773   0.842   0.642  11.374 -0.1724 -0.5502  0.8225
 7526TIP3    H246774   0.733   0.712  11.453 -0.9384 -1.0730  0.2383
 7527TIP3   OH246775   3.116   0.312  12.377 -0.3289  0.8837 -0.2635
 7527TIP3    H146776   3.051   0.266  12.430 -0.2442  1.1191  0.0440
 7527TIP3    H246777   3.120   0.400  12.414  0.1692  0.8699 -0.2798
 7528TIP3   OH246778   3.084   6.455  10.673 -0.8138  0.0381 -0.1512
 7528TIP3    H146779   3.014   6.404  10.713  0.0088 -0.8923  0.1506
 7528TIP3    H246780   3.050   6.544  10.670 -2.1229 -0.4456 -0.2983
 7529TIP3   OH246781   1.178   2.989  13.569 -0.0151 -0.3799  0.0341
 7529TIP3    H146782   1.160   3.082  13.578 -0.5775 -0.5894  1.3107
 7529TIP3    H246783   1.215   2.980  13.481  0.6144  1.1188  0.1192
 7530TIP3   OH246784   2.610   6.861  12.312  0.1755  0.1897 -0.4303
 7530TIP3    H146785   2.634   6.849  12.404  0.3824 -0.2425 -0.5356
 7530TIP3    H246786   2.657   6.939  12.285  0.9688 -0.2916 -0.4586
 7531TIP3   OH246787   7.636   2.789  12.274  0.7491 -0.0898 -0.2929
 7531TIP3    H146788   7.632   2.801  12.369  0.3743  0.0634 -0.3261
 7531TIP3    H246789   7.675   2.870  12.241  3.3531 -1.1501 -0.0623
 7532TIP3   OH246790   2.647   4.852  11.695  0.4110  0.4464 -0.3597
 7532TIP3    H146791   2.677   4.773  11.652 -0.4777 -0.7167  1.0679
 7532TIP3    H246792   2.724   4.908  11.700  1.8292 -1.5008  1.1422
 7533TIP3   OH246793   3.435   6.972  11.025  0.0976 -0.7044  0.0560
 7533TIP3    H146794   3.387   6.903  10.979  1.4401  0.1520 -2.8868
 7533TIP3    H246795   3.393   7.054  10.997  0.9017 -0.1442  0.4463
 7534TIP3   OH246796   6.944   4.681  12.742  0.2723 -0.4385  0.1737
 7534TIP3    H146797   6.955   4.657  12.650 -2.8037 -0.2537 -0.3695
 7534TIP3    H246798   6.976   4.771  12.748  0.3953 -0.4072 -0.7733
 7535TIP3   OH246799   3.446   0.684  11.831 -0.3389  0.5206 -0.4290
 7535TIP3    H146800   3.352   0.695  11.841 -0.7310 -1.4063 -1.5169
 7535TIP3    H246801   3.456   0.599  11.789  1.8685  0.9548 -0.9100
 7536TIP3   OH246802   0.675   4.584  12.552 -0.2258 -0.1778 -0.6266
 7536TIP3    H146803   0.700   4.502  12.509 -3.1888 -1.3012 -0.4696
 7536TIP3    H246804   0.584   4.598  12.525 -1.2680  0.6995  2.8029
 7537TIP3   OH246805   3.812   1.086  11.851 -0.0575 -0.3371 -0.1920
 7537TIP3    H146806   3.801   1.055  11.941  1.4291 -1.4172 -0.3564
 7537TIP3    H246807   3.879   1.154  11.857 -0.3034 -0.0675 -0.4295
 7538TIP3   OH246808   2.974   3.586  13.069  0.8183  0.3239 -0.5709
 7538TIP3    H146809   2.917   3.511  13.086  0.2311  0.8635 -0.0835
 7538TIP3    H246810   2.914   3.660  13.061  1.3514  0.6594 -1.5903
 7539TIP3   OH246811   5.013   5.045  11.461  0.1806  0.1000  0.1093
 7539TIP3    H146812   5.050   5.133  11.467 -1.4667  0.7318  4.1591
 7539TIP3    H246813   5.069   4.991  11.516 -1.2857 -0.2969  1.2878
 7540TIP3   OH246814   1.660   1.577  12.253 -0.4814 -0.4889 -0.1278
 7540TIP3    H146815   1.739   1.628  12.271  0.7238 -2.2775 -0.0993
 7540TIP3    H246816   1.672   1.497  12.304 -2.5435 -0.6155  0.2306
 7541TIP3   OH246817   2.915   4.106  10.699 -0.1560 -0.1603  0.5957
 7541TIP3    H146818   2.893   4.187  10.652 -0.8181 -1.7348 -2.0449
 7541TIP3    H246819   3.010   4.102  10.695 -0.0371  0.9536  1.6730
 7542TIP3   OH246820   2.588   5.049  12.961  0.2134 -0.3328  0.1784
 7542TIP3    H146821   2.609   5.132  12.918 -0.4949 -0.4772 -0.4705
 7542TIP3    H246822   2.633   4.983  12.909 -0.5883 -0.5032 -0.3088
 7543TIP3   OH246823   2.757   6.512  12.173 -0.1804  0.3111 -0.7423
 7543TIP3    H146824   2.749   6.600  12.135  2.0450  2.7079  3.4892
 7543TIP3    H246825   2.847   6.486  12.154 -0.0526  0.1157  0.0764
 7544TIP3   OH246826   6.541   5.004  13.052 -0.1206  0.6998 -0.2863
 7544TIP3    H146827   6.597   5.074  13.086  2.6729 -0.5008 -2.0898
 7544TIP3    H246828   6.532   4.944  13.126  0.5524  1.1610  0.1841
 7545TIP3   OH246829   6.257   0.711  11.640 -0.6340  0.1677  0.4424
 7545TIP3    H146830   6.216   0.648  11.698  1.2705  0.7290  2.5663
 7545TIP3    H246831   6.239   0.796  11.680  2.8060  0.4210  1.8408
 7546TIP3   OH246832   5.152   7.152  10.935  0.0023  0.5152  0.1279
 7546TIP3    H146833   5.200   7.234  10.945  0.7186  0.0696  0.4200
 7546TIP3    H246834   5.187   7.095  11.004 -1.2840  0.3272  0.6653
 7547TIP3   OH246835   4.394   4.194  11.043  0.0924  0.1120  0.3399
 7547TIP3    H146836   4.447   4.114  11.048 -0.0095  0.0807  1.0128
 7547TIP3    H246837   4.307   4.163  11.018  0.6187  0.2744 -1.9619
 7548TIP3   OH246838   7.611   3.968  11.737 -0.0966 -0.2264 -1.0094
 7548TIP3    H146839   7.612   3.900  11.805  0.3955 -0.7923 -1.5834
 7548TIP3    H246840   7.683   3.946  11.679 -1.6217 -0.8248 -2.7719
 7549TIP3   OH246841   5.861   3.272  13.313 -0.8889 -0.3552 -0.0961
 7549TIP3    H146842   5.814   3.238  13.389 -0.7239 -2.0949 -0.7430
 7549TIP3    H246843   5.797   3.329  13.270 -1.0903  0.3893  1.1276
 7550TIP3   OH246844   2.059   1.937  11.754  0.4146 -0.3362  0.0713
 7550TIP3    H146845   1.973   1.911  11.720  1.1870 -1.7282 -0.9128
 7550TIP3    H246846   2.091   2.003  11.693  1.2085 -1.8424 -1.2154
 7551TIP3   OH246847   2.517   6.713  13.086 -0.2291 -0.1804 -0.9584
 7551TIP3    H146848   2.553   6.643  13.141 -1.7578 -0.9592 -0.8748
 7551TIP3    H246849   2.584   6.781  13.085  0.0264 -0.2977  1.5978
 7552TIP3   OH246850   0.366   4.263  12.445  0.3044  0.4894  0.2480
 7552TIP3    H146851   0.418   4.197  12.399 -1.3653 -0.6414 -0.1125
 7552TIP3    H246852   0.424   4.296  12.513  2.4657  1.3521 -1.8424
 7553TIP3   OH246853   7.010   5.321  10.837  0.3346 -0.1384 -0.0837
 7553TIP3    H146854   7.051   5.407  10.831  0.3159 -0.0579  0.8324
 7553TIP3    H246855   6.938   5.324  10.774  0.7359  0.2805 -0.5334
 7554TIP3   OH246856   2.731   0.831  11.659 -0.2140 -0.1253  0.5104
 7554TIP3    H146857   2.637   0.839  11.677  0.3071  1.4841  3.0650
 7554TIP3    H246858   2.768   0.915  11.686  1.8725 -0.2860 -1.4999
 7555TIP3   OH246859   6.200   3.877  13.014  0.2098 -1.0895 -0.3601
 7555TIP3    H146860   6.128   3.894  13.075  0.2332  1.2018 -0.8572
 7555TIP3    H246861   6.257   3.816  13.061 -0.2660 -0.1848  1.5092
 7556TIP3   OH246862   5.333   1.950  12.147  0.3236 -0.3039  0.3129
 7556TIP3    H146863   5.332   2.040  12.112  2.1035 -0.7258 -0.9398
 7556TIP3    H246864   5.381   1.957  12.229  1.4743 -0.2543 -0.3383
 7557TIP3   OH246865   2.968   1.919  10.975 -0.0788 -0.0384 -0.3172
 7557TIP3    H146866   3.009   1.855  11.033  1.5320  0.5631 -0.7359
 7557TIP3    H246867   3.022   1.918  10.896 -0.6831  1.0303 -0.7687
 7558TIP3   OH246868   0.298   7.225  12.948 -0.0683 -0.1251  0.0104
 7558TIP3    H146869   0.283   7.236  12.854 -1.1454  0.4516  0.2343
 7558TIP3    H246870   0.388   7.257  12.962 -0.6650  1.9281 -0.4916
 7559TIP3   OH246871   5.067   3.289  12.036  0.4864  0.1660  0.4684
 7559TIP3    H146872   4.987   3.275  12.087  0.6002  1.7842  1.1467
 7559TIP3    H246873   5.039   3.284  11.945 -0.3619  0.5561  0.7004
 7560TIP3   OH246874   3.526   0.344  11.429 -0.5477  0.1943  0.4228
 7560TIP3    H146875   3.565   0.429  11.411  0.1870 -0.4750 -1.3391
 7560TIP3    H246876   3.457   0.335  11.363 -0.2732 -0.7838  0.2600
 7561TIP3   OH246877   7.474   0.769  11.374  0.5149  0.3827  0.1664
 7561TIP3    H146878   7.546   0.783  11.313 -0.0717  1.3099 -0.3315
 7561TIP3    H246879   7.484   0.837  11.440  0.2958  0.2999  0.2880
 7562TIP3   OH246880   6.538   2.196  13.184  0.1900  0.4369 -0.5152
 7562TIP3    H146881   6.552   2.101  13.190 -2.5803 -0.0458 -0.2303
 7562TIP3    H246882   6.574   2.220  13.099  0.5521 -0.9496 -0.7855
 7563TIP3   OH246883   4.956   6.196  11.492 -0.2002  0.1817 -0.6070
 7563TIP3    H146884   4.999   6.254  11.554  1.5988  0.0608 -1.6899
 7563TIP3    H246885   5.013   6.119  11.485 -1.6303 -0.9494 -0.5433
 7564TIP3   OH246886   3.013   6.238  11.020  0.1056 -0.3275 -0.5088
 7564TIP3    H146887   3.062   6.257  11.100  1.1244 -2.2007 -0.6278
 7564TIP3    H246888   2.955   6.313  11.009  1.9235  1.3248  0.4375
 7565TIP3   OH246889   4.239   4.693  10.746  0.0261  0.7979  1.1440
 7565TIP3    H146890   4.180   4.626  10.712 -0.0643  1.9380 -1.1466
 7565TIP3    H246891   4.198   4.722  10.827  0.8817 -2.8960  3.1036
 7566TIP3   OH246892   1.332   1.881  12.266  0.0569  0.1274 -0.0699
 7566TIP3    H146893   1.346   1.966  12.308 -2.4328  0.0243  1.2094
 7566TIP3    H246894   1.320   1.901  12.174 -0.4585  1.1902  0.2138
 7567TIP3   OH246895   3.489   2.293  10.733 -0.3616  0.2182  0.5432
 7567TIP3    H146896   3.417   2.354  10.717 -0.3983 -0.4083 -2.2534
 7567TIP3    H246897   3.489   2.235  10.657  1.8996 -1.0325  1.3792
 7568TIP3   OH246898   1.138   1.608  11.827 -0.0408 -0.0231  0.4208
 7568TIP3    H146899   1.112   1.577  11.741  1.2579  0.2470 -0.0895
 7568TIP3    H246900   1.219   1.562  11.846  0.0226  0.3991  1.2214
 7569TIP3   OH246901   2.348   7.572  11.390  0.0435  0.2661  0.7501
 7569TIP3    H146902   2.328   7.558  11.483 -1.0304  0.3165  0.5346
 7569TIP3    H246903   2.303   7.501  11.345  0.8017  0.0727  0.2806
 7570TIP3   OH246904   4.887   2.335  10.935  0.1526 -0.7624 -0.0101
 7570TIP3    H146905   4.812   2.291  10.976 -0.3451 -0.2463 -0.3524
 7570TIP3    H246906   4.892   2.296  10.848  0.8005 -1.3847  0.2963
 7571TIP3   OH246907   3.576   5.027  11.371 -0.3804  0.4744  0.0745
 7571TIP3    H146908   3.638   5.081  11.419 -0.2192 -0.6058  1.1218
 7571TIP3    H246909   3.585   5.055  11.280  2.1190 -0.0911  0.0852
 7572TIP3   OH246910   1.256   0.548  11.248 -0.1261  0.7084  0.3431
 7572TIP3    H146911   1.219   0.459  11.245 -1.1421  1.1480 -1.2225
 7572TIP3    H246912   1.315   0.546  11.324 -0.3863 -1.1932  0.5613
 7573TIP3   OH246913   1.983   2.430  13.400  0.1798 -0.0228  0.8547
 7573TIP3    H146914   2.050   2.474  13.347 -1.5848  2.6029  0.6098
 7573TIP3    H246915   1.932   2.379  13.336 -1.1818  2.1554  0.0823
 7574TIP3   OH246916   0.218   0.116  11.459  0.1247  0.2358 -0.8147
 7574TIP3    H146917   0.239   0.204  11.490 -0.3552 -0.0427  0.3408
 7574TIP3    H246918   0.167   0.076  11.530  0.7006 -1.1314 -1.1290
 7575TIP3   OH246919   2.556   3.039  11.566  0.0285  0.3170  0.6021
 7575TIP3    H146920   2.546   2.944  11.560  1.2588  0.1618  0.7601
 7575TIP3    H246921   2.646   3.052  11.595 -1.1805  1.4171  4.4636
 7576TIP3   OH246922   3.884   5.982  11.224 -0.3530 -0.2294 -0.6391
 7576TIP3    H146923   3.930   5.955  11.303 -0.5368  1.4758  0.1039
 7576TIP3    H246924   3.950   6.029  11.172 -0.3996 -0.7645 -1.1929
 7577TIP3   OH246925   2.116   1.955  12.014  0.1112  0.0590 -0.0045
 7577TIP3    H146926   2.082   1.973  11.926 -1.5772  2.3698  1.0083
 7577TIP3    H246927   2.074   1.872  12.039  0.2622 -0.3889 -1.1715
 7578TIP3   OH246928   0.620   4.715  11.433 -0.2124 -0.5140 -0.4427
 7578TIP3    H146929   0.574   4.778  11.489  0.7291 -0.4194  0.2522
 7578TIP3    H246930   0.634   4.762  11.351 -0.4195 -0.1785 -0.2895
 7579TIP3   OH246931   2.471   7.394  11.673 -0.0767  0.3092  0.1911
 7579TIP3    H146932   2.503   7.366  11.587 -0.5936 -0.0631  0.1150
 7579TIP3    H246933   2.393   7.341  11.687  0.9828 -0.9214  1.6866
 7580TIP3   OH246934   6.693   2.969  12.145  0.9107  0.9082  0.4800
 7580TIP3    H146935   6.766   2.924  12.102  0.3565 -0.4498  0.9249
 7580TIP3    H246936   6.727   2.993  12.231  1.0501  0.8944  0.4299
 7581TIP3   OH246937   4.726   3.803  12.548 -0.3597  0.1042 -0.3712
 7581TIP3    H146938   4.744   3.823  12.640 -2.8029  0.5459  0.0608
 7581TIP3    H246939   4.703   3.888  12.509 -1.2789 -0.3876 -0.9143
 7582TIP3   OH246940   2.232   3.806  11.508  0.2679  0.4959 -0.1663
 7582TIP3    H146941   2.259   3.716  11.489  0.3897  0.4472  0.2253
 7582TIP3    H246942   2.284   3.859  11.448  0.3617  0.3183 -0.2433
 7583TIP3   OH246943   3.801   3.943  10.852 -0.1716 -0.0325  0.2367
 7583TIP3    H146944   3.812   4.031  10.888  1.8547 -0.7311  1.4390
 7583TIP3    H246945   3.868   3.936  10.784 -1.4575 -0.0779 -1.0652
 7584TIP3   OH246946   0.015   0.051  10.636 -0.2909  0.1746  0.2227
 7584TIP3    H146947   0.004   0.133  10.587 -0.9364 -1.1420 -1.9922
 7584TIP3    H246948   0.110   0.041  10.645 -0.2072  1.2574  0.7478
 7585TIP3   OH246949   0.817   4.622  11.914  0.1901 -0.0437 -0.0701
 7585TIP3    H146950   0.723   4.613  11.902  0.0151 -2.4615  2.1257
 7585TIP3    H246951   0.834   4.716  11.904 -2.4003  0.4300 -0.7358
 7586TIP3   OH246952   1.200   6.006  12.759  0.4387  0.2615  0.1600
 7586TIP3    H146953   1.236   6.095  12.755  0.1079  0.3893 -2.8265
 7586TIP3    H246954   1.106   6.019  12.745  0.1745 -0.4837  1.2070
 7587TIP3   OH246955   4.814   0.458  10.237  0.3623  0.2235 -0.1286
 7587TIP3    H146956   4.875   0.528  10.214  1.4106 -0.8309 -0.7227
 7587TIP3    H246957   4.789   0.476  10.328 -0.7653  2.2980 -0.7840
 7588TIP3   OH246958   6.884   1.015  11.726 -0.2723  0.6520  0.0389
 7588TIP3    H146959   6.918   0.933  11.689 -0.4152 -0.9636  3.1360
 7588TIP3    H246960   6.789   1.004  11.724 -0.2756 -0.1801  2.1065
 7589TIP3   OH246961   0.937   7.170  10.365  0.3398  0.4231  0.6931
 7589TIP3    H146962   0.922   7.086  10.322 -1.7430  0.9311  0.2917
 7589TIP3    H246963   1.017   7.204  10.324 -0.8262  0.2790 -1.9141
 7590TIP3   OH246964   7.031   0.185  13.021 -0.4010 -0.7595  0.8287
 7590TIP3    H146965   7.064   0.095  13.024 -0.2121 -0.7447 -0.3211
 7590TIP3    H246966   7.097   0.236  13.067  0.4936 -0.9329 -0.2358
 7591TIP3   OH246967   1.576   0.511  11.463  0.0380  0.0775  0.1407
 7591TIP3    H146968   1.610   0.589  11.507  1.3943 -0.6339  0.4177
 7591TIP3    H246969   1.653   0.454  11.453 -0.6655 -0.6761 -1.2338
 7592TIP3   OH246970   3.298   0.394  10.387 -0.2989  0.3263  0.8161
 7592TIP3    H146971   3.323   0.321  10.443  0.6713 -0.5508 -0.6952
 7592TIP3    H246972   3.208   0.375  10.361 -1.0124  1.1084  2.5901
 7593TIP3   OH246973   2.380   0.386  11.689 -0.2139  0.2989  0.1028
 7593TIP3    H146974   2.287   0.365  11.697  0.0309 -0.2087  2.7878
 7593TIP3    H246975   2.406   0.353  11.603 -2.1411 -1.0454 -0.0064
 7594TIP3   OH246976   5.364   2.519  11.610  0.3454  0.1628 -0.3779
 7594TIP3    H146977   5.284   2.473  11.586 -0.0944  0.3029  0.7682
 7594TIP3    H246978   5.428   2.492  11.544 -0.2087 -1.2031 -0.3823
 7595TIP3   OH246979   1.571   7.301  11.725 -0.6540 -0.2377 -0.1939
 7595TIP3    H146980   1.579   7.388  11.766 -1.8578 -0.4287  0.4873
 7595TIP3    H246981   1.526   7.248  11.791  0.2451 -1.4494 -0.5276
 7596TIP3   OH246982   6.676   6.054  11.311 -0.3326  0.2439  0.3800
 7596TIP3    H146983   6.713   6.139  11.336  0.6437 -0.4902  1.4910
 7596TIP3    H246984   6.722   6.032  11.230  0.1381  0.3249  0.6180
 7597TIP3   OH246985   5.144   3.326  11.366 -0.1618 -0.2004 -0.3120
 7597TIP3    H146986   5.181   3.241  11.391 -0.6478 -0.3051  0.0717
 7597TIP3    H246987   5.102   3.358  11.446 -3.1761 -1.2924 -1.3018
 7598TIP3   OH246988   6.962   6.391  11.391 -0.1034 -0.4505 -0.4367
 7598TIP3    H146989   6.908   6.315  11.414 -0.2439 -0.2633 -0.1383
 7598TIP3    H246990   6.901   6.454  11.353  0.1309 -0.7594 -1.3386
 7599TIP3   OH246991   5.148   4.608  12.599  0.1116 -0.0214  0.0307
 7599TIP3    H146992   5.199   4.676  12.642 -0.0109 -0.6958  1.2686
 7599TIP3    H246993   5.061   4.648  12.585  0.2932  0.3556 -0.0457
 7600TIP3   OH246994   5.109   4.348  11.616 -0.2254 -0.0230  0.1575
 7600TIP3    H146995   5.164   4.283  11.660  1.9883  0.3876 -1.8079
 7600TIP3    H246996   5.072   4.301  11.541 -0.8373  0.2806  0.2649
 7601TIP3   OH246997   4.167   4.683  11.416 -0.1898  0.2276  0.4131
 7601TIP3    H146998   4.197   4.610  11.361  0.2838 -0.2523  1.2872
 7601TIP3    H246999   4.084   4.653  11.453 -0.5959  0.6206 -0.1740
 7602TIP3   OH247000   1.269   1.534  13.235 -0.4336  0.1566 -0.0909
 7602TIP3    H147001   1.223   1.615  13.257  1.4753  2.9463 -4.8294
 7602TIP3    H247002   1.212   1.490  13.173 -0.8658 -1.6115  1.4714
 7603TIP3   OH247003   0.092   6.750  11.901  0.5821 -0.5704  0.3806
 7603TIP3    H147004   0.144   6.762  11.980  0.3282 -0.8945  0.6019
 7603TIP3    H247005   0.012   6.707  11.932 -0.6576  1.5755  0.3438
 7604TIP3   OH247006   0.311   3.471  11.657  0.2972  0.2119  0.1218
 7604TIP3    H147007   0.343   3.544  11.710  4.2118  0.0450 -1.6972
 7604TIP3    H247008   0.296   3.400  11.719  2.2998  0.7767  1.3246
 7605TIP3   OH247009   4.303   0.434  13.530  0.3209 -0.2356  0.3129
 7605TIP3    H147010   4.350   0.513  13.555 -0.7752  0.1026  1.4134
 7605TIP3    H247011   4.371   0.374  13.499  1.4038  0.3892  1.3999
 7606TIP3   OH247012   1.650   1.806  12.558 -0.0798  0.9217  0.1012
 7606TIP3    H147013   1.660   1.854  12.476 -1.4195  0.2557 -0.4813
 7606TIP3    H247014   1.735   1.763  12.570  0.5381  1.9903 -0.2820
 7607TIP3   OH247015   4.164   2.501  11.281 -0.4508  1.0722 -0.7877
 7607TIP3    H147016   4.248   2.545  11.294  2.1240 -3.6734  0.8935
 7607TIP3    H247017   4.160   2.484  11.187  1.5038 -0.2713 -0.6701
 7608TIP3   OH247018   1.318   3.616  11.393 -0.1501 -0.2918 -0.7178
 7608TIP3    H147019   1.346   3.550  11.457 -1.6303  0.5600  0.9047
 7608TIP3    H247020   1.394   3.629  11.336  1.4247 -0.7161  1.1932
 7609TIP3   OH247021   1.495   0.446  10.938  0.0378 -0.6769 -0.1376
 7609TIP3    H147022   1.541   0.481  11.015 -1.0394  0.4353  0.0321
 7609TIP3    H247023   1.529   0.497  10.864 -0.2609 -0.4680 -0.1339
 7610TIP3   OH247024   6.960   4.735  12.026 -0.1016  0.6767 -0.4485
 7610TIP3    H147025   6.955   4.741  11.930 -0.3099 -0.6834 -0.5365
 7610TIP3    H247026   6.945   4.642  12.045  1.1402  0.7169  0.8266
 7611TIP3   OH247027   6.558   2.070  12.389 -0.1332  0.5325  0.0416
 7611TIP3    H147028   6.625   2.137  12.378  1.1721 -0.8914 -1.2276
 7611TIP3    H247029   6.598   1.991  12.353 -2.5113 -0.3773 -0.7854
 7612TIP3   OH247030   5.652   3.188  11.314 -1.1895 -0.2666  0.1542
 7612TIP3    H147031   5.659   3.093  11.324 -4.3963 -0.4487  1.9585
 7612TIP3    H247032   5.594   3.200  11.239 -0.1997  0.3427 -0.5378
 7613TIP3   OH247033   7.055   1.243  11.751  0.1502 -1.2006  0.1260
 7613TIP3    H147034   6.987   1.269  11.814  0.8158  1.3148 -0.0544
 7613TIP3    H247035   7.016   1.260  11.665  0.8101 -0.0820  0.0154
 7614TIP3   OH247036   1.323   5.815  12.361 -0.1029  0.3070 -0.6686
 7614TIP3    H147037   1.313   5.796  12.268 -2.1196 -1.6570 -0.1268
 7614TIP3    H247038   1.279   5.899  12.373 -2.0842 -0.6158 -1.1254
 7615TIP3   OH247039   0.376   6.716  11.617 -0.1689  0.6722 -0.2679
 7615TIP3    H147040   0.355   6.628  11.647 -0.6482  0.5187 -1.0325
 7615TIP3    H247041   0.300   6.743  11.566  0.6626  0.8878 -1.4289
 7616TIP3   OH247042   2.895   5.669  10.353  0.1848 -0.8203  0.5616
 7616TIP3    H147043   2.926   5.595  10.301 -0.4074  1.6204 -3.6740
 7616TIP3    H247044   2.799   5.663  10.348  0.1306  0.2241  0.1245
 7617TIP3   OH247045   3.270   0.444  13.393 -0.2236 -0.4888 -0.4936
 7617TIP3    H147046   3.261   0.525  13.344  1.3843 -0.2748 -0.4874
 7617TIP3    H247047   3.359   0.413  13.374 -0.4712 -1.7563  0.2386
 7618TIP3   OH247048   1.575   3.009  12.904 -0.7205  0.2632 -1.0215
 7618TIP3    H147049   1.510   3.056  12.957  0.4819  0.4952  0.3042
 7618TIP3    H247050   1.542   2.919  12.901  0.2746 -0.3578  2.1779
 7619TIP3   OH247051   7.484   7.117  11.116  0.4570  0.3430 -0.1250
 7619TIP3    H147052   7.500   7.152  11.029  1.3945 -0.4446 -0.2834
 7619TIP3    H247053   7.484   7.194  11.173 -0.7402  0.9236 -0.8810
 7620TIP3   OH247054   6.778   3.435  11.048  0.2852 -0.0100  0.1856
 7620TIP3    H147055   6.746   3.357  11.003 -1.2039 -0.0337  1.1776
 7620TIP3    H247056   6.763   3.415  11.141  0.9626  1.0007  0.5176
 7621TIP3   OH247057   0.972   3.330  12.088  0.3675  0.4999 -0.5309
 7621TIP3    H147058   0.958   3.403  12.028  1.6158  1.4346  0.2698
 7621TIP3    H247059   0.992   3.371  12.172  0.4649 -0.7710  0.0956
 7622TIP3   OH247060   1.507   4.174  12.172 -0.0421  0.2659  0.1707
 7622TIP3    H147061   1.554   4.091  12.160 -0.1522  0.1972  0.2096
 7622TIP3    H247062   1.516   4.193  12.266  1.1509  1.0011 -0.0631
 7623TIP3   OH247063   4.880   1.058  12.839 -0.2920  0.0845  0.1416
 7623TIP3    H147064   4.911   1.084  12.752 -1.2421  0.5136 -0.0934
 7623TIP3    H247065   4.810   0.995  12.822 -2.0697  1.8378  0.4419
 7624TIP3   OH247066   1.517   2.105  10.989  0.1897  0.4556 -0.5605
 7624TIP3    H147067   1.471   2.115  10.905  0.8533 -0.0806 -0.9991
 7624TIP3    H247068   1.485   2.022  11.024  0.2022  0.4914 -0.4638
 7625TIP3   OH247069   0.204   3.767  11.551  0.5013  0.0821  0.6221
 7625TIP3    H147070   0.215   3.860  11.532  0.5435 -0.0990 -0.3364
 7625TIP3    H247071   0.262   3.749  11.624  2.9699  0.1426 -1.2156
 7626TIP3   OH247072   4.502   4.404  11.171 -0.1440  0.4057  0.6102
 7626TIP3    H147073   4.461   4.330  11.127 -1.1517  1.8076 -0.9229
 7626TIP3    H247074   4.564   4.364  11.233 -0.6675 -1.6855 -0.1392
 7627TIP3   OH247075   2.311   3.725  12.004 -0.3566 -0.3507 -0.2645
 7627TIP3    H147076   2.302   3.770  12.088  1.0434 -2.6087  1.1847
 7627TIP3    H247077   2.331   3.795  11.942 -0.0683  1.2318  1.5036
 7628TIP3   OH247078   4.485   3.359  12.166  0.6642  0.7019  0.0403
 7628TIP3    H147079   4.423   3.337  12.235  1.5996  2.5694  1.5620
 7628TIP3    H247080   4.566   3.316  12.192  0.9995  1.3475  0.0841
 7629TIP3   OH247081   4.834   7.629  11.732 -0.0112 -0.1423 -0.4971
 7629TIP3    H147082   4.820   7.537  11.754  0.7334  0.2026  1.6620
 7629TIP3    H247083   4.748   7.670  11.742 -0.0265 -0.3222  0.1239
 7630TIP3   OH247084   3.584   0.120  13.130  0.9688  0.5441  0.5168
 7630TIP3    H147085   3.505   0.174  13.136  1.7087  2.0225 -1.6374
 7630TIP3    H247086   3.654   0.176  13.165  1.8652  1.4603 -2.3686
 7631TIP3   OH247087   4.941   5.134  13.000 -0.0096 -0.2632 -0.2519
 7631TIP3    H147088   4.961   5.045  13.031 -1.1397 -1.0097 -1.5503
 7631TIP3    H247089   4.935   5.125  12.905  1.6793  1.6107 -0.5992
 7632TIP3   OH247090   6.608   5.837  11.478 -0.1600 -0.4512 -0.4828
 7632TIP3    H147091   6.620   5.914  11.423  1.2311 -1.6674 -1.9738
 7632TIP3    H247092   6.696   5.799  11.487 -0.7632 -1.7199  0.4196
 7633TIP3   OH247093   0.972   6.192  11.142 -0.0889 -0.1433 -0.2026
 7633TIP3    H147094   0.964   6.247  11.063 -2.3457 -0.6595 -0.4031
 7633TIP3    H247095   0.910   6.121  11.127  0.0366 -0.6862  1.7054
 7634TIP3   OH247096   7.203   5.716  11.317 -0.2257  0.2672 -0.2364
 7634TIP3    H147097   7.257   5.639  11.333 -0.4725  0.1916  0.2450
 7634TIP3    H247098   7.142   5.689  11.248  0.4059  0.3844 -0.8569
 7635TIP3   OH247099   3.584   2.863  12.091  0.0427 -0.4400  0.0877
 7635TIP3    H147100   3.596   2.927  12.021 -1.9443 -0.4589 -0.3418
 7635TIP3    H247101   3.529   2.908  12.156 -0.5815 -1.3730  0.2283
 7636TIP3   OH247102   6.333   0.757  11.268 -0.3807 -0.2510  0.2064
 7636TIP3    H147103   6.254   0.729  11.313 -0.4571 -1.0951 -0.4267
 7636TIP3    H247104   6.348   0.847  11.298 -1.5331 -0.1068  0.3820
 7637TIP3   OH247105   2.153   1.671  10.771  0.0848 -0.0138 -0.2734
 7637TIP3    H147106   2.202   1.600  10.730 -0.3594 -0.3597 -0.2204
 7637TIP3    H247107   2.061   1.649  10.755 -0.0609  1.8183 -2.3995
 7638TIP3   OH247108   1.723   2.176  11.426  0.2365  0.0343  0.2757
 7638TIP3    H147109   1.638   2.209  11.399  0.7594 -0.5971 -2.4779
 7638TIP3    H247110   1.705   2.093  11.469 -0.5460 -0.4017 -0.8473
 7639TIP3   OH247111   1.217   7.575  11.074 -0.3496  0.6606 -0.0193
 7639TIP3    H147112   1.149   7.513  11.102  1.9395 -0.6281  3.3558
 7639TIP3    H247113   1.203   7.652  11.129  1.3532 -0.0046  1.4578
 7640TIP3   OH247114   5.673   6.930  11.326 -0.6485 -0.5469 -0.6198
 7640TIP3    H147115   5.757   6.909  11.286 -0.2102 -0.7359  0.3748
 7640TIP3    H247116   5.614   6.861  11.294 -0.2308 -0.8843 -0.6765
 7641TIP3   OH247117   2.424   5.232  10.713  0.2905 -0.1037  0.1887
 7641TIP3    H147118   2.495   5.198  10.659  0.2695 -0.0580  0.1315
 7641TIP3    H247119   2.347   5.231  10.655  0.1177 -0.6803  0.4229
 7642TIP3   OH247120   2.543   0.721  11.440  0.4512 -0.3557 -0.5883
 7642TIP3    H147121   2.522   0.629  11.419 -0.3921 -0.5106  0.8003
 7642TIP3    H247122   2.637   0.728  11.424  0.6183 -1.5976 -0.2765
 7643TIP3   OH247123   0.706   3.312  11.164  0.0531  0.4345 -0.1941
 7643TIP3    H147124   0.793   3.311  11.123 -0.4241  1.0972 -1.2653
 7643TIP3    H247125   0.672   3.399  11.146 -0.5697  0.4232  0.8296
 7644TIP3   OH247126   2.192   4.140  10.507 -0.2156  0.2828  0.1503
 7644TIP3    H147127   2.161   4.193  10.580 -1.6359 -0.3866  0.0683
 7644TIP3    H247128   2.157   4.053  10.523  1.0094 -0.3383 -0.3871
 7645TIP3   OH247129   2.934   2.205  10.525  0.5382  0.0697  0.7700
 7645TIP3    H147130   2.996   2.198  10.453 -1.8077 -2.2114 -1.2247
 7645TIP3    H247131   2.902   2.296  10.521  2.1745  0.6642  0.5637
 7646TIP3   OH247132   6.143   0.198  12.647  0.2014  0.0173  0.1603
 7646TIP3    H147133   6.052   0.168  12.650  0.7811 -1.9040  0.1221
 7646TIP3    H247134   6.183   0.159  12.725  1.1298  0.3768 -0.1227
 7647TIP3   OH247135   5.708   2.782  12.632 -0.2095 -0.0102  0.1704
 7647TIP3    H147136   5.708   2.760  12.725 -1.1544 -1.3827 -0.1268
 7647TIP3    H247137   5.794   2.756  12.601  0.2696  0.8575  0.7354
 7648TIP3   OH247138   6.002   2.268  11.909 -0.2282 -0.3284 -0.3762
 7648TIP3    H147139   5.995   2.174  11.921 -1.3081 -0.4755 -1.8769
 7648TIP3    H247140   5.929   2.304  11.959 -0.6920 -0.4055 -0.9966
 7649TIP3   OH247141   5.760   7.124  12.193 -0.0303  0.4388 -0.1525
 7649TIP3    H147142   5.772   7.196  12.256  0.5928  0.3062 -0.1117
 7649TIP3    H247143   5.714   7.057  12.243  1.1131  0.0357  0.4064
 7650TIP3   OH247144   4.075   0.368  12.572 -0.3201  0.3324  0.0087
 7650TIP3    H147145   4.008   0.383  12.506 -1.6767 -1.5375  0.8863
 7650TIP3    H247146   4.143   0.318  12.527 -0.9858 -0.4596 -0.1347
 7651TIP3   OH247147   6.062   1.501  12.542 -0.5562  0.3601 -0.0558
 7651TIP3    H147148   5.971   1.529  12.531 -0.5505  0.3540 -0.1194
 7651TIP3    H247149   6.071   1.485  12.636 -0.8953 -0.5725 -0.1684
 7652TIP3   OH247150   3.404   6.242  12.973 -0.1610 -0.1044 -0.3921
 7652TIP3    H147151   3.352   6.231  13.053  0.6683  0.2923  0.2107
 7652TIP3    H247152   3.384   6.330  12.943 -0.7723 -0.3922 -0.8497
 7653TIP3   OH247153   5.217   6.757  11.821  0.1744 -0.2119  0.1716
 7653TIP3    H147154   5.126   6.739  11.797 -0.0381 -0.0627  0.8485
 7653TIP3    H247155   5.215   6.765  11.916  0.8164  0.2601  0.1480
 7654TIP3   OH247156   1.789   6.871  10.876 -0.1495 -0.0955  0.0265
 7654TIP3    H147157   1.693   6.870  10.875 -0.2592  2.0682  1.2626
 7654TIP3    H247158   1.813   6.908  10.791 -0.4185 -0.0985 -0.0538
 7655TIP3   OH247159   5.144   0.751  12.304  0.4574  0.0944  0.2062
 7655TIP3    H147160   5.204   0.690  12.347  0.6254  0.7733  0.9464
 7655TIP3    H247161   5.196   0.830  12.291  0.4497 -0.1291 -1.3659
 7656TIP3   OH247162   1.180   1.939  11.809  0.0381  0.1453  0.3680
 7656TIP3    H147163   1.152   1.953  11.718 -1.6431 -2.7889  0.2990
 7656TIP3    H247164   1.231   1.858  11.806 -0.0675 -0.0117  2.0275
 7657TIP3   OH247165   3.719   3.288  11.961 -0.5742  0.3302 -0.2442
 7657TIP3    H147166   3.654   3.345  11.920 -3.3055 -1.0312  1.7807
 7657TIP3    H247167   3.681   3.267  12.047  1.3886 -2.5890  0.0587
 7658TIP3   OH247168   3.859   4.021  12.567 -0.3048 -0.5711 -0.4849
 7658TIP3    H147169   3.940   4.052  12.608 -0.5742 -0.0171 -0.3606
 7658TIP3    H247170   3.879   4.019  12.474 -0.8209  1.7808 -0.7161
 7659TIP3   OH247171   6.994   2.803  12.580  0.3546 -0.4909  0.2823
 7659TIP3    H147172   7.045   2.794  12.499 -0.2914 -2.3124  0.0183
 7659TIP3    H247173   6.934   2.876  12.563  0.6041 -0.5002 -0.6863
 7660TIP3   OH247174   4.478   6.847  10.935  0.3106  0.2383 -0.2623
 7660TIP3    H147175   4.459   6.762  10.975  0.2186 -0.1834 -1.1949
 7660TIP3    H247176   4.441   6.911  10.997  0.9083 -0.3618  0.7439
 7661TIP3   OH247177   0.699   0.636  10.775  0.3626  0.4522  0.5894
 7661TIP3    H147178   0.604   0.630  10.780  0.2563  0.1079 -1.2585
 7661TIP3    H247179   0.730   0.583  10.849 -0.8845 -1.4034 -0.1350
 7662TIP3   OH247180   2.223   1.170  11.669  0.7466 -0.2900 -0.8818
 7662TIP3    H147181   2.173   1.103  11.715 -0.0035 -0.5993 -2.0934
 7662TIP3    H247182   2.185   1.253  11.698 -0.1328 -0.5037 -1.3756
 7663TIP3   OH247183   7.056   1.698  12.528  0.0687  0.2002 -0.1369
 7663TIP3    H147184   7.076   1.707  12.434  0.8945  0.6938  0.0710
 7663TIP3    H247185   6.961   1.689  12.532 -0.0482  0.8933 -0.9795
 7664TIP3   OH247186   7.346   7.588  11.175  0.1415  0.5278 -0.1921
 7664TIP3    H147187   7.268   7.573  11.121 -0.0894 -1.3299  0.5892
 7664TIP3    H247188   7.413   7.617  11.113 -0.2867 -0.9291 -1.4063
 7665TIP3   OH247189   1.136   1.792  13.174  0.2488  0.3462  0.3786
 7665TIP3    H147190   1.053   1.745  13.168 -0.0400  0.6727  1.6054
 7665TIP3    H247191   1.117   1.881  13.144 -0.1172  0.7213  1.6739
 7666TIP3   OH247192   1.403   0.728  12.085  0.0308 -0.2420  0.3341
 7666TIP3    H147193   1.490   0.760  12.107  0.0078  0.1866 -0.1567
 7666TIP3    H247194   1.378   0.779  12.008 -0.6121 -0.4320  0.4091
 7667TIP3   OH247195   1.577   0.154  10.932  0.6045  0.3390  0.4495
 7667TIP3    H147196   1.537   0.212  10.867  1.3152  0.7313  0.3523
 7667TIP3    H247197   1.671   0.160  10.915  0.6682 -1.6232 -0.2456
 7668TIP3   OH247198   4.670   7.528  10.833  0.0178 -0.4841  0.2833
 7668TIP3    H147199   4.701   7.469  10.764 -0.7901 -0.5967  0.0076
 7668TIP3    H247200   4.670   7.614  10.792 -0.4075 -0.5429  0.1489
 7669TIP3   OH247201   7.165   2.434  13.211 -0.3736  0.7902 -0.1379
 7669TIP3    H147202   7.197   2.518  13.177 -0.1300  0.5584 -0.4940
 7669TIP3    H247203   7.245   2.387  13.237 -0.5066  0.6624  0.0406
 7670TIP3   OH247204   0.051   0.388  12.976 -0.2341 -0.3881 -0.0562
 7670TIP3    H147205   0.022   0.361  13.063 -1.5002 -0.6459 -0.5447
 7670TIP3    H247206   0.141   0.417  12.989 -0.7324  0.5415  1.5191
 7671TIP3   OH247207   5.058   0.079  13.318 -0.1529  0.4135 -0.0665
 7671TIP3    H147208   5.087  -0.000  13.273 -1.1222 -0.2751  0.4901
 7671TIP3    H247209   5.127   0.144  13.300  0.4299 -0.4185 -0.8925
 7672TIP3   OH247210   0.561   3.548  11.134 -0.8509 -0.2169  0.0607
 7672TIP3    H147211   0.498   3.579  11.199 -2.1631 -4.2526  1.0078
 7672TIP3    H247212   0.641   3.598  11.153 -2.2335  1.3535  2.3081
 7673TIP3   OH247213   5.771   5.316  12.260  0.3140  0.0359  0.5248
 7673TIP3    H147214   5.772   5.406  12.294 -3.0541  0.1403  0.6743
 7673TIP3    H247215   5.736   5.325  12.171 -0.6193 -1.1730  0.7527
 7674TIP3   OH247216   2.274   5.375  10.246 -0.4471 -0.2789 -0.1928
 7674TIP3    H147217   2.184   5.408  10.243 -0.6062 -0.7488 -1.2301
 7674TIP3    H247218   2.293   5.362  10.339 -0.9104  1.2619  0.1453
 7675TIP3   OH247219   3.608   0.632  11.456  0.3036  0.0302  0.0692
 7675TIP3    H147220   3.685   0.640  11.512  0.6713  1.3817 -0.5913
 7675TIP3    H247221   3.548   0.700  11.487 -0.9291 -1.4071  0.9903
 7676TIP3   OH247222   7.114   6.429  11.961  0.2520  0.3630 -0.1329
 7676TIP3    H147223   7.048   6.470  12.017 -1.3472 -2.3182  0.1197
 7676TIP3    H247224   7.088   6.453  11.872  0.2013  1.0354  0.0552
 7677TIP3   OH247225   4.195   5.253  12.909  1.0445 -0.3775 -0.2502
 7677TIP3    H147226   4.124   5.190  12.894  1.1633 -0.3355 -1.0287
 7677TIP3    H247227   4.176   5.291  12.995  0.4960 -0.8531 -0.1589
 7678TIP3   OH247228   6.280   1.563  11.170  0.5651 -0.1710 -0.7765
 7678TIP3    H147229   6.222   1.639  11.178  0.5102 -0.2710 -0.2385
 7678TIP3    H247230   6.276   1.520  11.255  0.6034 -0.7731 -1.0769
 7679TIP3   OH247231   0.620   5.204  12.321  0.0288 -0.2494 -0.3187
 7679TIP3    H147232   0.645   5.252  12.400  1.3938 -0.2185 -0.7493
 7679TIP3    H247233   0.650   5.114  12.337 -0.4583 -0.4482 -0.4713
 7680TIP3   OH247234   5.091   3.482  10.932  0.0659  0.3271  0.4792
 7680TIP3    H147235   5.055   3.570  10.920  1.2059  0.6409 -0.8183
 7680TIP3    H247236   5.144   3.488  11.011 -0.4861  0.5778  0.8400
 7681TIP3   OH247237   3.567   4.029  11.441  0.3401  0.4389  0.3266
 7681TIP3    H147238   3.605   4.087  11.507  1.1641 -0.4673  0.6738
 7681TIP3    H247239   3.625   4.038  11.365  0.3991  0.1679  0.3387
 7682TIP3   OH247240   1.704   2.971  13.381 -0.4620 -0.1760 -0.0721
 7682TIP3    H147241   1.661   2.888  13.403 -1.4986  1.0129  2.9206
 7682TIP3    H247242   1.747   2.998  13.462 -0.1091  2.1852 -0.9689
 7683TIP3   OH247243   2.890   2.489  10.657 -0.6229 -0.0110 -0.4907
 7683TIP3    H147244   2.845   2.573  10.655 -0.8429 -0.1352 -1.5260
 7683TIP3    H247245   2.839   2.436  10.719 -1.8408 -0.0954 -1.5242
 7684TIP3   OH247246   0.250   1.422  12.488  0.0804 -0.4509 -0.2193
 7684TIP3    H147247   0.315   1.486  12.457  0.6363 -0.8281  0.1328
 7684TIP3    H247248   0.212   1.462  12.566 -0.1532 -0.2013 -0.4610
 7685TIP3   OH247249   1.376   5.495  10.588  0.2608  0.8060  0.4298
 7685TIP3    H147250   1.337   5.500  10.675 -1.1304 -2.6472  0.1800
 7685TIP3    H247251   1.313   5.538  10.531 -0.7786 -0.2686  0.7126
 7686TIP3   OH247252   7.401   2.407  12.365 -0.3139  0.0256 -0.2674
 7686TIP3    H147253   7.366   2.329  12.408 -1.5921  0.2053 -0.9247
 7686TIP3    H247254   7.470   2.439  12.424 -0.0835 -1.3290  0.2233
 7687TIP3   OH247255   1.390   3.430  11.565 -0.0752  0.9272  0.2414
 7687TIP3    H147256   1.343   3.346  11.571 -1.2770  1.5534 -0.0395
 7687TIP3    H247257   1.421   3.446  11.654  0.5650 -0.0265  0.2022
 7688TIP3   OH247258   1.768   2.197  12.990 -0.0277  0.5457  0.6232
 7688TIP3    H147259   1.710   2.234  12.923  0.0272  0.0038  0.2641
 7688TIP3    H247260   1.763   2.258  13.063 -0.7061  0.7425  0.4242
 7689TIP3   OH247261   0.466   6.498  11.109 -0.4742  0.1076  0.5237
 7689TIP3    H147262   0.395   6.536  11.160 -0.8794 -0.2556  0.2352
 7689TIP3    H247263   0.540   6.557  11.124 -0.6223  0.0833  1.4075
 7690TIP3   OH247264   1.265   1.281  11.153 -0.1905  0.1723 -0.6538
 7690TIP3    H147265   1.336   1.252  11.097  1.0045  1.5001  0.0994
 7690TIP3    H247266   1.249   1.372  11.127 -0.7070  0.3075  0.0775
 7691TIP3   OH247267   5.314   2.196  11.306 -1.1363  0.1801 -0.5403
 7691TIP3    H147268   5.308   2.129  11.375  0.7418  1.1044  0.6076
 7691TIP3    H247269   5.335   2.147  11.227 -3.3283 -0.9096 -0.5255
 7692TIP3   OH247270   5.880   1.027  13.175  0.0443 -0.0385  0.2204
 7692TIP3    H147271   5.818   1.021  13.103 -0.4857  0.7819  0.5915
 7692TIP3    H247272   5.934   1.103  13.153  0.9515 -0.7654 -0.1172
 7693TIP3   OH247273   7.564   4.425  16.919  0.2352 -0.0407  0.6653
 7693TIP3    H147274   7.594   4.345  16.875 -1.1712  0.9992 -2.4565
 7693TIP3    H247275   7.628   4.492  16.893 -1.4119  0.9082 -1.2188
 7694TIP3   OH247276   6.293   6.237  10.317 -0.2847 -0.1230 -0.3084
 7694TIP3    H147277   6.201   6.262  10.328 -0.7510 -0.8569 -2.1047
 7694TIP3    H247278   6.289   6.143  10.300  0.9496 -0.4425  1.0503
 7695TIP3   OH247279   0.001   5.089  12.657 -0.0009  0.3879  0.2260
 7695TIP3    H147280   0.006   5.123  12.746  1.7416  0.5509  0.0933
 7695TIP3    H247281  -0.045   5.005  12.666 -2.3598  1.6693  0.8516
 7696TIP3   OH247282   6.933   0.024  11.095 -0.6157  0.6538  0.4787
 7696TIP3    H147283   6.974   0.086  11.155 -0.4307 -0.7416  1.8245
 7696TIP3    H247284   6.851   0.067  11.069 -0.0919  1.8275  0.6891
 7697TIP3   OH247285   3.426   6.975  11.669  0.2316 -0.3189  0.0535
 7697TIP3    H147286   3.338   6.988  11.634  0.1057 -0.3251  0.3661
 7697TIP3    H247287   3.476   6.941  11.595 -0.1679 -0.8622  0.0310
 7698TIP3   OH247288   3.166   3.421  12.965  0.0677 -0.2087  0.1393
 7698TIP3    H147289   3.229   3.457  12.903  0.3149 -1.5771 -0.4463
 7698TIP3    H247290   3.101   3.490  12.975  0.2954  0.2516 -1.2565
 7699TIP3   OH247291   4.169   3.140  13.106 -0.4064 -0.1813  0.0643
 7699TIP3    H147292   4.136   3.133  13.196 -0.5701  0.0954  0.0269
 7699TIP3    H247293   4.251   3.189  13.115 -1.4507  1.6996 -0.1510
 7700TIP3   OH247294   5.082   3.194  11.035  0.2469 -0.2773 -0.1336
 7700TIP3    H147295   5.115   3.203  11.124 -0.5933  2.1004  0.0214
 7700TIP3    H247296   5.150   3.233  10.980 -0.7506  1.6527 -0.1106
 7701TIP3   OH247297   2.667   2.429  11.186  0.3843  0.0500 -0.0204
 7701TIP3    H147298   2.709   2.426  11.100 -0.4322 -1.8091 -0.3868
 7701TIP3    H247299   2.708   2.358  11.236 -0.7209 -0.3299  0.3741
 7702TIP3   OH247300   7.103   4.000  12.751  0.0762 -0.0485 -0.5330
 7702TIP3    H147301   7.008   4.004  12.746  0.1270 -0.1798 -1.7414
 7702TIP3    H247302   7.125   4.047  12.832 -1.0328 -0.4277  0.0086
 7703TIP3   OH247303   5.922   6.076  12.273 -0.2834 -0.4643  0.3054
 7703TIP3    H147304   5.879   6.152  12.232 -2.2803 -1.0257  1.2658
 7703TIP3    H247305   5.961   6.111  12.353 -1.7427 -0.5153  1.0736
 7704TIP3   OH247306   1.275   0.503  12.487 -0.1010  0.3451 -0.4575
 7704TIP3    H147307   1.224   0.565  12.539  1.0012 -0.1843  1.3108
 7704TIP3    H247308   1.233   0.418  12.503  1.5220 -0.1605  1.3415
 7705TIP3   OH247309   3.464   6.269  10.562 -0.6331 -0.6260 -0.3556
 7705TIP3    H147310   3.465   6.197  10.626  1.8501  0.1641  0.6061
 7705TIP3    H247311   3.387   6.252  10.508 -1.7963 -2.3638  1.6889
 7706TIP3   OH247312   3.354   6.700  11.198 -0.1335  0.1715  0.0552
 7706TIP3    H147313   3.273   6.670  11.158 -0.8501 -1.0977  2.2479
 7706TIP3    H247314   3.326   6.753  11.273  0.9565 -1.2198  1.5260
 7707TIP3   OH247315   6.150   0.719  12.112 -0.3146  0.0476 -0.3354
 7707TIP3    H147316   6.214   0.787  12.094 -0.4021 -0.4444 -2.8594
 7707TIP3    H247317   6.068   0.766  12.127  0.3235  0.6145  1.7047
 7708TIP3   OH247318   6.612   5.227  12.645  0.5942 -0.6726 -0.9784
 7708TIP3    H147319   6.681   5.223  12.579 -0.4976  2.1968 -2.4689
 7708TIP3    H247320   6.537   5.184  12.603  0.2651  0.0251 -1.1173
 7709TIP3   OH247321   6.743   0.235  12.146 -0.2767  0.3397  0.0062
 7709TIP3    H147322   6.720   0.204  12.058 -1.0543 -0.0931  0.3471
 7709TIP3    H247323   6.687   0.311  12.160 -0.3251  0.2633  0.2227
 7710TIP3   OH247324   2.590   5.056  10.569 -0.0182  0.0134 -0.2457
 7710TIP3    H147325   2.594   5.065  10.474  1.1440 -0.6312 -0.2785
 7710TIP3    H247326   2.681   5.047  10.596 -0.3966 -1.0007  0.7905
 7711TIP3   OH247327   4.119   6.204  11.787 -0.4530 -0.0201  0.3015
 7711TIP3    H147328   4.077   6.259  11.853 -0.3255 -1.0400  1.2678
 7711TIP3    H247329   4.212   6.203  11.813 -0.1433  0.6962 -0.7166
 7712TIP3   OH247330   4.687   7.329  13.262 -0.1461  0.1427  0.5423
 7712TIP3    H147331   4.738   7.362  13.336  0.4811  2.9939 -0.9857
 7712TIP3    H247332   4.713   7.386  13.189 -2.6299 -0.8600 -1.2481
 7713TIP3   OH247333   0.411   2.241  12.457 -0.5173 -0.0069 -0.4058
 7713TIP3    H147334   0.437   2.267  12.368  1.2423  0.5408  0.2156
 7713TIP3    H247335   0.461   2.162  12.474  1.4427  1.4383  1.0805
 7714TIP3   OH247336   0.142   6.090  12.117 -0.2818 -0.0794 -0.2775
 7714TIP3    H147337   0.208   6.066  12.052 -0.1969  0.0258 -0.2302
 7714TIP3    H247338   0.081   6.017  12.117 -1.3117  0.7215 -1.8261
 7715TIP3   OH247339   3.555   0.771  13.308  0.5146 -0.1725 -0.0882
 7715TIP3    H147340   3.596   0.733  13.231  1.9709  0.5035  0.3055
 7715TIP3    H247341   3.590   0.721  13.382  0.7338  0.4844  0.2661
 7716TIP3   OH247342   0.326   0.480  13.194  0.0393  0.1390 -0.0526
 7716TIP3    H147343   0.381   0.556  13.174 -0.6878  0.3814 -1.2688
 7716TIP3    H247344   0.334   0.424  13.117  0.4067 -0.9387  0.7483
 7717TIP3   OH247345   5.617   3.617  11.123  0.2047 -0.2093  0.3305
 7717TIP3    H147346   5.700   3.631  11.168  0.7016  0.6420 -0.7861
 7717TIP3    H247347   5.624   3.530  11.085  2.6586  1.4856 -3.7353
 7718TIP3   OH247348   2.286   1.249  10.377 -0.3227  0.0612  0.4834
 7718TIP3    H147349   2.380   1.237  10.384 -0.2907  0.9643  2.3148
 7718TIP3    H247350   2.249   1.163  10.398  0.0924 -0.2911 -0.2247
 7719TIP3   OH247351   7.576   1.491  12.819  0.3243  0.0324  0.5060
 7719TIP3    H147352   7.672   1.483  12.819  0.3835  0.3774 -1.3246
 7719TIP3    H247353   7.545   1.407  12.853  1.2483 -0.9751 -1.0147
 7720TIP3   OH247354   4.305   0.231  12.417 -0.0252  0.0075  0.6062
 7720TIP3    H147355   4.357   0.302  12.379  0.3992 -0.0083  1.1465
 7720TIP3    H247356   4.257   0.195  12.343  0.5820  0.1527  0.1297
 7721TIP3   OH247357   2.725   1.510  11.699 -0.3607 -0.0265  0.4807
 7721TIP3    H147358   2.651   1.539  11.646 -0.5703  0.2758  0.9388
 7721TIP3    H247359   2.728   1.415  11.685  0.3989  0.1855 -1.1048
 7722TIP3   OH247360   4.151   4.260  10.670  0.0651  0.1544 -0.2317
 7722TIP3    H147361   4.180   4.344  10.708 -1.5436  1.4238 -1.6297
 7722TIP3    H247362   4.058   4.273  10.654 -1.0163 -3.0554  2.3165
 7723TIP3   OH247363   3.628   7.155  11.465 -0.2352 -0.3335  0.2181
 7723TIP3    H147364   3.578   7.102  11.401 -0.4801 -1.1426  1.0510
 7723TIP3    H247365   3.691   7.093  11.502 -0.9013 -0.2096  1.6205
 7724TIP3   OH247366   0.047   6.150  11.730 -0.0005  0.5496  0.0201
 7724TIP3    H147367   0.119   6.094  11.699  1.1202  0.7743  2.0826
 7724TIP3    H247368  -0.032   6.100  11.707  0.7226  0.3958 -2.4938
 7725TIP3   OH247369   0.932   4.476  12.130 -0.1142  0.4152  0.4394
 7725TIP3    H147370   0.880   4.511  12.202  0.1390  0.6312  0.5187
 7725TIP3    H247371   0.906   4.527  12.054 -1.3659 -0.7021  0.0872
 7726TIP3   OH247372   0.181   7.475  12.947 -0.0829  0.2287 -0.0124
 7726TIP3    H147373   0.211   7.394  12.988  2.0668  1.4196  0.8628
 7726TIP3    H247374   0.230   7.480  12.865 -0.9288  0.1832 -0.5318
 7727TIP3   OH247375   5.724   3.715  11.695  0.4608  0.0985 -0.2292
 7727TIP3    H147376   5.722   3.619  11.691  0.5052  0.0339  0.9256
 7727TIP3    H247377   5.638   3.739  11.730  1.1364  0.3453  1.3518
 7728TIP3   OH247378   5.744   4.282  12.116  0.2310  0.4569  1.0512
 7728TIP3    H147379   5.802   4.212  12.087  0.3466  0.3364  1.5687
 7728TIP3    H247380   5.777   4.360  12.072  0.7452  0.3794  1.2951
 7729TIP3   OH247381   5.891   0.101  12.690  0.0658  0.4006 -0.0303
 7729TIP3    H147382   5.875   0.084  12.783 -1.2897  0.0484 -0.2984
 7729TIP3    H247383   5.899   0.014  12.650 -0.8413  0.4893 -0.4527
 7730TIP3   OH247384   1.989   0.615  12.270 -0.0960  0.1895  0.6789
 7730TIP3    H147385   1.913   0.665  12.239 -0.0834 -0.7226 -0.9044
 7730TIP3    H247386   1.965   0.589  12.359 -0.1784  2.7905  1.5190
 7731TIP3   OH247387   3.694   5.384  10.597 -0.1774  0.1464  0.2829
 7731TIP3    H147388   3.645   5.445  10.541 -1.8942 -1.1063  0.3303
 7731TIP3    H247389   3.785   5.414  10.591 -0.7020  1.6367 -1.0726
 7732TIP3   OH247390   2.718   5.468  11.909 -0.1681 -0.3006 -0.0066
 7732TIP3    H147391   2.730   5.401  11.977  0.2679  0.4236  0.6466
 7732TIP3    H247392   2.629   5.454  11.877 -1.1583  0.6155  2.1354
 7733TIP3   OH247393   4.361   7.294  12.231  0.4165 -0.2263  0.0490
 7733TIP3    H147394   4.281   7.245  12.252  0.5669 -0.7342 -0.5274
 7733TIP3    H247395   4.355   7.373  12.284  0.4052 -1.0885  1.3764
 7734TIP3   OH247396   2.084   7.283  10.602 -0.0027 -0.7896 -0.4376
 7734TIP3    H147397   2.003   7.233  10.614 -0.1836 -0.1395  1.5166
 7734TIP3    H247398   2.121   7.289  10.690  1.1059  0.6845 -0.9639
 7735TIP3   OH247399   0.364   5.110  12.328  0.5290  0.4711 -0.5595
 7735TIP3    H147400   0.446   5.159  12.332  1.3244 -0.7156 -1.8229
 7735TIP3    H247401   0.376   5.039  12.392  0.6394  0.0769 -1.0177
 7736TIP3   OH247402   0.881   4.139  11.646  0.3601 -0.0978  0.0841
 7736TIP3    H147403   0.923   4.217  11.682 -0.7624  0.9324 -0.7987
 7736TIP3    H247404   0.800   4.129  11.696  1.0489 -1.4232  1.0058
 7737TIP3   OH247405   7.562   3.052  11.706  0.1589 -0.1583  0.2492
 7737TIP3    H147406   7.549   3.024  11.797 -1.1807  0.8711  0.3874
 7737TIP3    H247407   7.533   3.143  11.704  0.7441  0.0202 -1.0885
 7738TIP3   OH247408   2.293   6.789  10.571 -0.0922 -0.1450  0.4004
 7738TIP3    H147409   2.251   6.841  10.502  1.0390 -0.1317 -0.3068
 7738TIP3    H247410   2.246   6.705  10.569 -0.8852  0.2901  0.4657
 7739TIP3   OH247411   4.693   1.630  11.590  0.0260 -0.7598 -0.0901
 7739TIP3    H147412   4.765   1.694  11.589 -0.0933 -0.5610  1.4927
 7739TIP3    H247413   4.659   1.634  11.679  0.4949 -3.5590  0.3163
 7740TIP3   OH247414   6.944   1.517  12.284 -0.2850  0.0537 -0.1337
 7740TIP3    H147415   7.009   1.460  12.324  0.2579 -0.5351 -1.7466
 7740TIP3    H247416   6.871   1.459  12.263 -0.1972  0.1625 -0.7610
 7741TIP3   OH247417   5.883   5.327  12.566  0.3368 -0.3537 -0.0761
 7741TIP3    H147418   5.923   5.240  12.578 -0.1751 -0.4716  0.8335
 7741TIP3    H247419   5.812   5.312  12.503 -0.7940 -0.9384  1.2897
 7742TIP3   OH247420   5.900   0.190  11.327  0.0881 -0.2108 -0.1618
 7742TIP3    H147421   5.890   0.110  11.380 -1.2138 -0.8662 -1.3330
 7742TIP3    H247422   5.848   0.173  11.249 -0.5725  1.9701 -0.2504
 7743TIP3   OH247423   0.874   4.729  12.485  0.1542  0.0947 -1.0467
 7743TIP3    H147424   0.801   4.699  12.539  0.4665  0.4676 -0.3995
 7743TIP3    H247425   0.874   4.671  12.409  1.0051 -1.8199  0.3430
 7744TIP3   OH247426   7.507   6.011  12.180 -0.1000 -0.0366  0.6690
 7744TIP3    H147427   7.457   5.931  12.202 -0.1310 -0.2450 -0.1439
 7744TIP3    H247428   7.545   6.038  12.263 -1.5197  0.0925  1.3119
 7745TIP3   OH247429   6.734   3.624  13.203  0.0386 -0.0499 -0.0576
 7745TIP3    H147430   6.790   3.664  13.269 -0.9526  0.3925  0.5458
 7745TIP3    H247431   6.645   3.642  13.233 -0.4339 -0.7377 -0.9823
 7746TIP3   OH247432   5.435   7.033  12.119 -0.6085 -0.7574 -0.8875
 7746TIP3    H147433   5.477   7.043  12.205 -0.0480 -0.8514 -1.1408
 7746TIP3    H247434   5.350   6.994  12.138 -0.9001  0.1389 -0.2928
 7747TIP3   OH247435   0.923   2.959  11.652  0.2992  0.0457 -0.3950
 7747TIP3    H147436   0.967   3.024  11.708  0.8681 -1.1110  0.5537
 7747TIP3    H247437   0.907   2.885  11.710  2.4044 -1.8945 -2.0822
 7748TIP3   OH247438   3.098   0.047  10.645  0.3017  0.6923 -0.2054
 7748TIP3    H147439   3.168   0.019  10.705 -0.7497 -0.0729  0.6961
 7748TIP3    H247440   3.108  -0.010  10.569  0.1371 -0.0144  0.2902
 7749TIP3   OH247441   5.731   7.557  10.666 -0.2335 -0.4463  0.3622
 7749TIP3    H147442   5.643   7.557  10.628 -0.6823  0.5891  1.3452
 7749TIP3    H247443   5.717   7.577  10.759  0.9355 -1.6221  0.8180
 7750TIP3   OH247444   3.386   5.776  10.889  0.3856  0.3362 -0.1190
 7750TIP3    H147445   3.474   5.740  10.879  0.8081  0.9966  1.0120
 7750TIP3    H247446   3.399   5.857  10.938 -0.7177  1.1713 -1.1350
 7751TIP3   OH247447   4.140   7.527  11.720 -0.7846 -0.2984  0.0405
 7751TIP3    H147448   4.193   7.514  11.799  0.6474 -2.0777 -1.1444
 7751TIP3    H247449   4.201   7.515  11.647 -1.8251  2.3286 -1.4078
 7752TIP3   OH247450   7.512   3.282  10.914 -0.4577 -0.1272  1.0247
 7752TIP3    H147451   7.537   3.254  11.002  1.1868 -1.7165  0.1104
 7752TIP3    H247452   7.592   3.272  10.862 -1.8195 -0.8641 -1.0267
 7753TIP3   OH247453   5.662   0.694  11.184  0.2320 -0.1713 -0.3272
 7753TIP3    H147454   5.577   0.733  11.202  0.4503  0.6487 -1.0063
 7753TIP3    H247455   5.696   0.669  11.270 -0.8869 -0.9611 -0.0824
 7754TIP3   OH247456   4.119   6.928  10.958  0.5890  0.0950  0.3350
 7754TIP3    H147457   4.143   6.933  10.866  1.5427 -6.2251 -0.1583
 7754TIP3    H247458   4.202   6.928  11.005  0.3645 -0.7023  0.7500
 7755TIP3   OH247459   3.314   0.573  11.136  0.0493  0.5192  0.7437
 7755TIP3    H147460   3.267   0.647  11.098  0.0248 -0.0886 -0.4672
 7755TIP3    H247461   3.407   0.598  11.130  0.2741 -0.6190 -2.2693
 7756TIP3   OH247462   0.488   0.666  10.457 -0.3346  0.2754  0.0132
 7756TIP3    H147463   0.554   0.729  10.487  0.2332 -0.6735  0.7923
 7756TIP3    H247464   0.456   0.624  10.536 -0.8538 -0.2885 -0.4841
 7757TIP3   OH247465   0.588   6.442  11.787  0.2560  0.1015  0.3053
 7757TIP3    H147466   0.496   6.468  11.797 -0.4014 -0.7137 -2.6243
 7757TIP3    H247467   0.586   6.347  11.789  0.7725  0.0274 -1.1407
 7758TIP3   OH247468   4.911   5.212  11.000  0.0454 -0.0935 -0.2521
 7758TIP3    H147469   4.871   5.253  11.077 -1.3252 -0.5051 -0.7116
 7758TIP3    H247470   4.858   5.242  10.926  2.9882  2.5559 -1.4859
 7759TIP3   OH247471   1.835   7.057  10.653 -0.0449 -0.1349 -0.4430
 7759TIP3    H147472   1.838   6.987  10.587 -1.2976 -0.5006 -0.1438
 7759TIP3    H247473   1.751   7.100  10.638 -0.1217  0.1041  0.6015
 7760TIP3   OH247474   3.143   1.754  12.285 -0.1055  0.0310 -0.9606
 7760TIP3    H147475   3.060   1.773  12.329  0.3595  0.8178 -0.3872
 7760TIP3    H247476   3.201   1.827  12.310  0.6576 -0.3280 -1.6142
 7761TIP3   OH247477   3.239   5.693  13.404  0.6237 -0.3135  0.4821
 7761TIP3    H147478   3.312   5.752  13.421  1.3629 -1.6509  2.2897
 7761TIP3    H247479   3.161   5.744  13.428  0.9831  0.9015 -0.8312
 7762TIP3   OH247480   0.173   1.500  12.870  0.3215 -0.6168  0.5033
 7762TIP3    H147481   0.188   1.594  12.881 -1.0011 -0.2368 -0.5777
 7762TIP3    H247482   0.216   1.459  12.945  0.4103  0.9055  1.3153
 7763TIP3   OH247483   1.612   0.937  12.450 -0.1115  0.7511 -0.1369
 7763TIP3    H147484   1.528   0.981  12.462  0.2055  1.2219  0.4075
 7763TIP3    H247485   1.676   1.008  12.452  0.1989  0.5910 -2.0857
 7764TIP3   OH247486   6.234   3.157  12.024  0.1327  0.3564 -0.5790
 7764TIP3    H147487   6.253   3.137  11.932  0.3056  1.3572 -0.7760
 7764TIP3    H247488   6.320   3.168  12.065  0.0575 -0.1516 -0.2766
 7765TIP3   OH247489   7.470   1.265  13.049  0.2635  0.2350  0.2163
 7765TIP3    H147490   7.433   1.274  12.961  3.1892  0.5819 -1.0886
 7765TIP3    H247491   7.431   1.184  13.082 -0.8570  0.0362 -1.4326
 7766TIP3   OH247492   5.593   0.974  10.881 -0.0849 -0.4449 -0.0090
 7766TIP3    H147493   5.662   0.927  10.928 -0.1766 -0.6813 -0.1120
 7766TIP3    H247494   5.638   1.052  10.847 -0.2640  0.2769  1.3574
 7767TIP3   OH247495   7.659   6.519  12.689 -0.4003 -0.3850  0.5511
 7767TIP3    H147496   7.696   6.583  12.628  0.2940 -1.0523  0.2641
 7767TIP3    H247497   7.616   6.572  12.756 -1.2507  0.3650 -0.5507
 7768TIP3   OH247498   4.463   4.191  10.662 -0.2941  0.4818  0.5792
 7768TIP3    H147499   4.436   4.210  10.572 -1.1770  2.3851  1.2006
 7768TIP3    H247500   4.424   4.261  10.714  0.3626 -0.4747  2.4327
 7769TIP3   OH247501   1.263   4.485  12.302  0.4606  0.4734 -0.2923
 7769TIP3    H147502   1.271   4.446  12.389  2.8553 -1.0601 -1.1148
 7769TIP3    H247503   1.212   4.422  12.251 -0.1585  0.9379 -0.2593
 7770TIP3   OH247504   1.603   6.823  11.429  0.9572  0.0698 -0.0411
 7770TIP3    H147505   1.636   6.911  11.413 -1.3915  0.7007 -1.9026
 7770TIP3    H247506   1.516   6.836  11.466  0.7539 -1.4956  0.1102
 7771TIP3   OH247507   6.731   7.178  12.454 -0.0157 -0.6163  0.1220
 7771TIP3    H147508   6.644   7.173  12.492  0.7531 -0.8391  1.9964
 7771TIP3    H247509   6.751   7.272  12.451 -0.4109 -0.5527 -0.5439
 7772TIP3   OH247510   6.992   2.927  11.384 -0.2612  0.2041  0.1906
 7772TIP3    H147511   7.017   2.838  11.361  1.3095  0.8775 -0.8407
 7772TIP3    H247512   6.955   2.920  11.472 -0.4922 -1.4955 -0.0178
 7773TIP3   OH247513   4.140   2.540  12.034 -0.0584 -0.1172 -0.4009
 7773TIP3    H147514   4.102   2.452  12.034  0.2592 -0.2537 -0.3793
 7773TIP3    H247515   4.174   2.551  11.945  0.1418 -0.1186 -0.3241
 7774TIP3   OH247516   6.983   6.405  10.813  0.2710 -0.0039 -0.2928
 7774TIP3    H147517   7.046   6.447  10.755 -2.4704  1.7720 -2.2524
 7774TIP3    H247518   6.933   6.478  10.850 -1.9390 -1.3413 -0.4768
 7775TIP3   OH247519   4.692   0.905  11.127  0.1974  0.0998 -0.4683
 7775TIP3    H147520   4.781   0.925  11.157  0.4212  1.8195 -2.0583
 7775TIP3    H247521   4.657   0.846  11.193  3.3047 -2.5722 -0.9827
 7776TIP3   OH247522   1.086   6.369  10.387 -0.1711  0.0096  0.1437
 7776TIP3    H147523   0.999   6.330  10.380  0.7332 -2.2029  0.0845
 7776TIP3    H247524   1.078   6.434  10.456 -2.2515  1.1070 -1.0429
 7777TIP3   OH247525   7.478   2.164  12.781  0.0316 -0.1237 -0.7793
 7777TIP3    H147526   7.468   2.256  12.756  1.8492 -0.0289 -1.2740
 7777TIP3    H247527   7.493   2.167  12.876  1.6706  0.2661 -1.0176
 7778TIP3   OH247528   2.942   3.589  10.615 -0.3039 -0.1069  0.1818
 7778TIP3    H147529   2.889   3.669  10.614 -0.6213 -0.3080 -1.3278
 7778TIP3    H247530   2.971   3.581  10.706 -2.8910 -0.0361  1.1011
 7779TIP3   OH247531   6.045   3.870  11.392  0.0730 -0.0137 -0.8812
 7779TIP3    H147532   6.127   3.889  11.346 -0.3198  1.0648 -1.1480
 7779TIP3    H247533   6.070   3.805  11.458  0.8544 -0.7645 -1.8748
 7780TIP3   OH247534   0.479   0.729  12.477  0.0940 -0.3552  0.3492
 7780TIP3    H147535   0.438   0.816  12.479  0.4846 -0.1760  1.5628
 7780TIP3    H247536   0.408   0.668  12.495  0.3683 -0.0076  3.0172
 7781TIP3   OH247537   6.720   4.985  10.510 -0.4736 -0.2108  0.4773
 7781TIP3    H147538   6.789   5.028  10.561 -0.2233 -0.6161  0.4778
 7781TIP3    H247539   6.728   4.892  10.531 -1.2110 -0.2282  0.7033
 7782TIP3   OH247540   5.714   6.557  11.350 -0.2710 -0.0816 -0.0754
 7782TIP3    H147541   5.726   6.559  11.445 -0.9945 -2.1823  0.1161
 7782TIP3    H247542   5.631   6.602  11.335  0.0507  0.6268  0.2301
 7783TIP3   OH247543   0.677   0.827  11.863 -0.1706  0.1826 -0.1994
 7783TIP3    H147544   0.621   0.758  11.898  0.4040 -0.0569  0.2547
 7783TIP3    H247545   0.707   0.876  11.940  0.1390  0.3935 -0.4519
 7784TIP3   OH247546   0.340   6.642  12.633 -0.1878  0.3159 -0.3707
 7784TIP3    H147547   0.304   6.596  12.557  1.1090 -0.9244 -0.2759
 7784TIP3    H247548   0.386   6.575  12.682 -2.3052  0.7200  2.4348
 7785TIP3   OH247549   4.583   2.300  11.640  0.8060 -0.6331 -0.2459
 7785TIP3    H147550   4.658   2.246  11.615  1.0985  0.0586 -0.9222
 7785TIP3    H247551   4.539   2.250  11.709  3.5271  0.2269  2.3178
 7786TIP3   OH247552   5.438   0.981  12.093  0.3105 -0.3917  0.3909
 7786TIP3    H147553   5.531   0.983  12.115  0.5394 -0.3917 -0.5261
 7786TIP3    H247554   5.393   0.999  12.175  1.1376  0.3273  0.6979
 7787TIP3   OH247555   6.279   2.131  11.525 -0.0176 -0.7202 -0.5372
 7787TIP3    H147556   6.223   2.197  11.486 -0.2261  0.1101  1.0617
 7787TIP3    H247557   6.290   2.065  11.457 -2.9260 -0.9242 -0.9127
 7788TIP3   OH247558   6.442   1.678  13.345  0.7128  0.0278  0.8328
 7788TIP3    H147559   6.371   1.685  13.409 -0.1431 -0.6391 -0.0159
 7788TIP3    H247560   6.467   1.585  13.348 -0.6170 -0.4437 -1.1014
 7789TIP3   OH247561   5.325   2.076  11.617  0.2081 -0.0813  0.7011
 7789TIP3    H147562   5.309   2.133  11.692  0.4807 -0.3307  0.9489
 7789TIP3    H247563   5.416   2.049  11.627  0.3577  0.1706  0.0905
 7790TIP3   OH247564   6.601   4.723  11.014  0.2595 -0.1013  0.0516
 7790TIP3    H147565   6.676   4.697  10.961  1.0809 -1.6807  1.8834
 7790TIP3    H247566   6.638   4.757  11.095 -0.9850  0.7774  0.2905
 7791TIP3   OH247567   7.161   4.562  12.283 -0.3127  0.4541  0.0934
 7791TIP3    H147568   7.083   4.536  12.233 -0.2020  2.0234 -0.9854
 7791TIP3    H247569   7.126   4.614  12.356 -0.3018  1.0207 -0.2982
 7792TIP3   OH247570   2.043   1.020  11.792 -0.2324  0.0918  0.4622
 7792TIP3    H147571   2.011   0.929  11.795 -0.5518  0.1424 -0.7751
 7792TIP3    H247572   1.975   1.070  11.837  0.5383 -0.4139  2.2578
 7793TIP3   OH247573   4.985   2.260  11.238  0.2816  0.8467  0.2027
 7793TIP3    H147574   5.078   2.236  11.236  0.2179  0.4618  1.4166
 7793TIP3    H247575   4.944   2.193  11.293 -0.9880  0.1359 -1.5043
 7794TIP3   OH247576   2.527   6.548  10.854  0.6363  0.3377  0.0932
 7794TIP3    H147577   2.558   6.549  10.763 -0.3564  1.1932 -0.2557
 7794TIP3    H247578   2.494   6.459  10.867  0.4307  0.3146 -0.5256
 7795TIP3   OH247579   4.485   5.024  10.832  0.1085 -0.3948 -0.8525
 7795TIP3    H147580   4.520   5.062  10.913  0.0422 -0.4617 -0.7929
 7795TIP3    H247581   4.524   4.937  10.827  0.9445 -0.0031 -1.4339
 7796TIP3   OH247582   4.326   5.251  11.290  0.0876 -0.6677 -0.0830
 7796TIP3    H147583   4.234   5.256  11.313  0.4232  3.3291  1.1272
 7796TIP3    H247584   4.327   5.250  11.194 -1.1847 -0.0116 -0.1211
 7797TIP3   OH247585   1.163   2.578  13.457 -0.0477  0.3607 -0.6330
 7797TIP3    H147586   1.170   2.483  13.441 -1.3794  0.5510 -2.7333
 7797TIP3    H247587   1.072   2.599  13.436 -0.0063  1.9996  0.6377
 7798TIP3   OH247588   7.241   3.232  10.737 -0.2312  0.0256  0.3408
 7798TIP3    H147589   7.317   3.258  10.789  0.9612 -0.4621 -1.0939
 7798TIP3    H247590   7.277   3.208  10.651 -1.9399 -0.7948 -0.1964
 7799TIP3   OH247591   1.230   1.517  11.000 -0.0895 -0.1466 -0.6656
 7799TIP3    H147592   1.196   1.571  10.929 -0.6861  0.1336 -0.1711
 7799TIP3    H247593   1.285   1.576  11.052  0.0699 -0.2658 -0.6952
 7800TIP3   OH247594   6.405   4.731  12.532  0.4418 -0.1493 -0.1239
 7800TIP3    H147595   6.483   4.684  12.563  0.8647  0.2151 -0.5997
 7800TIP3    H247596   6.423   4.747  12.439 -0.4654 -0.5623 -0.3807
 7801TIP3   OH247597   1.838   4.730  11.605 -0.1741  0.0352  0.0522
 7801TIP3    H147598   1.761   4.675  11.624 -1.5984  2.4991  1.9366
 7801TIP3    H247599   1.899   4.710  11.676  0.5735 -1.1861 -0.8947
 7802TIP3   OH247600   5.915   6.758  11.206 -0.3940  0.2826 -0.5653
 7802TIP3    H147601   6.001   6.773  11.167  0.0328 -1.2334 -0.2786
 7802TIP3    H247602   5.875   6.692  11.149 -1.6089  1.3659 -1.0101
 7803TIP3   OH247603   5.415   4.046  10.658  0.6836  0.4321 -0.6098
 7803TIP3    H147604   5.324   4.032  10.632  0.9433  0.3675 -1.5179
 7803TIP3    H247605   5.454   3.959  10.661  1.1382  0.5578 -1.8918
 7804TIP3   OH247606   2.864   4.990  10.701  0.3748 -0.0034  0.0762
 7804TIP3    H147607   2.844   4.991  10.795  0.0808  0.4759  0.0128
 7804TIP3    H247608   2.915   4.910  10.689  0.8873  0.2126  0.7379
 7805TIP3   OH247609   4.271   4.726  11.939 -0.8711  0.6875  0.2809
 7805TIP3    H147610   4.365   4.711  11.949 -0.6365  1.0736 -1.1296
 7805TIP3    H247611   4.259   4.816  11.968 -0.4905  1.2349 -1.2065
 7806TIP3   OH247612   0.050   5.960  13.812 -0.2353  0.3066  0.3140
 7806TIP3    H147613   0.022   5.931  13.725  1.2944  0.5706 -0.2948
 7806TIP3    H247614  -0.026   6.006  13.847 -1.0697 -0.2943 -0.6485
 7807TIP3   OH247615   3.670   2.079  11.368  0.0488  0.1490  0.0128
 7807TIP3    H147616   3.684   1.986  11.350 -1.2100 -0.1812  0.5936
 7807TIP3    H247617   3.606   2.079  11.439  1.5270  1.4422  1.4306
 7808TIP3   OH247618   4.527   0.068  13.976 -0.0724  0.1719 -0.2724
 7808TIP3    H147619   4.586   0.126  13.928 -0.0945  0.3808 -0.0511
 7808TIP3    H247620   4.485   0.125  14.041 -0.1011 -0.0897 -0.0582
 7809TIP3   OH247621   4.877   2.007  11.093  0.4547 -0.3207  0.3599
 7809TIP3    H147622   4.796   2.059  11.085 -0.1920 -1.3498  0.0627
 7809TIP3    H247623   4.901   2.016  11.186  0.0444  0.0543  0.4354
 7810TIP3   OH247624   1.276   6.812  11.275 -0.1365  0.4693  0.2819
 7810TIP3    H147625   1.230   6.729  11.265 -0.0136  0.2041  1.6457
 7810TIP3    H247626   1.320   6.805  11.360  3.1397  0.3727 -1.2453
 7811TIP3   OH247627   0.363   5.460  11.185 -0.9824  0.4408 -0.3383
 7811TIP3    H147628   0.272   5.431  11.191 -0.6160 -0.6679  0.1385
 7811TIP3    H247629   0.414   5.381  11.202  0.0656  1.2336  0.2977
 7812TIP3   OH247630   0.611   3.736  10.546 -0.1031 -0.0658  0.6114
 7812TIP3    H147631   0.572   3.678  10.481  0.8910  0.5278 -0.5564
 7812TIP3    H247632   0.693   3.693  10.569 -0.5139 -0.3412  1.6075
 7813TIP3   OH247633   0.188   6.029  12.737  0.1892 -0.2039  0.2837
 7813TIP3    H147634   0.120   5.967  12.710 -0.9307  0.6445  1.0652
 7813TIP3    H247635   0.153   6.115  12.714  2.0149  0.1757 -1.4384
 7814TIP3   OH247636   2.713   1.997  11.213  0.1920  0.2460  0.5800
 7814TIP3    H147637   2.673   2.023  11.130  0.6696 -0.2492  0.1885
 7814TIP3    H247638   2.646   1.943  11.255  0.8506 -1.6160 -0.6248
 7815TIP3   OH247639   0.612   0.355  12.998 -0.0791 -0.0447  0.3434
 7815TIP3    H147640   0.690   0.302  12.981 -0.8331 -1.6539  1.6787
 7815TIP3    H247641   0.640   0.417  13.065  0.5270  0.6103 -0.4891
 7816TIP3   OH247642   7.368   6.209  11.249 -0.3463 -0.4185 -0.4809
 7816TIP3    H147643   7.300   6.153  11.288 -0.5369  0.5573  0.6447
 7816TIP3    H247644   7.448   6.186  11.298 -0.6704  1.1024  0.8389
 7817TIP3   OH247645   5.797   0.597  12.656 -0.0014 -0.0535 -0.1698
 7817TIP3    H147646   5.887   0.605  12.688 -0.0454 -1.5877  0.4347
 7817TIP3    H247647   5.802   0.528  12.590 -0.6370  0.2848 -0.5760
 7818TIP3   OH247648   1.675   5.868  11.263 -0.7985 -0.4475 -0.0102
 7818TIP3    H147649   1.731   5.851  11.188 -1.1438  0.7092 -0.5412
 7818TIP3    H247650   1.597   5.910  11.226 -0.5101  1.1298  1.1089
 7819TIP3   OH247651   3.753   6.388  11.797 -0.5920  0.3780  1.1349
 7819TIP3    H147652   3.698   6.311  11.785 -0.0805  0.0452  0.8871
 7819TIP3    H247653   3.694   6.462  11.786 -0.6379  0.0672 -1.0503
 7820TIP3   OH247654   3.704   0.116  12.195 -0.0980  0.6764  0.0737
 7820TIP3    H147655   3.654   0.060  12.135 -0.3697 -0.7992  1.5911
 7820TIP3    H247656   3.756   0.173  12.138 -0.4167 -0.5939 -1.5472
 7821TIP3   OH247657   3.600   5.476  11.403 -0.5825  0.1715 -0.0315
 7821TIP3    H147658   3.519   5.426  11.403  0.5069 -1.7235  1.2181
 7821TIP3    H247659   3.586   5.545  11.467 -0.4433 -1.6408  2.0875
 7822TIP3   OH247660   0.636   2.765  12.618  0.2682  0.2101 -0.4957
 7822TIP3    H147661   0.557   2.717  12.643 -0.1840  1.0800 -0.2238
 7822TIP3    H247662   0.623   2.853  12.653  0.7713  0.7407 -1.5885
 7823TIP3   OH247663   6.457   1.418  12.268  0.2508 -0.6626  0.3306
 7823TIP3    H147664   6.386   1.354  12.262 -0.5502  0.2040  0.4493
 7823TIP3    H247665   6.441   1.465  12.350  0.8250 -0.3001  0.2419
 7824TIP3   OH247666   6.097   2.428  11.679 -0.0400  0.1198 -0.3337
 7824TIP3    H147667   6.068   2.372  11.751 -1.3230  1.0668 -0.0744
 7824TIP3    H247668   6.055   2.389  11.601  2.2038 -1.5462 -0.8157
 7825TIP3   OH247669   4.786   0.685  11.605 -0.2560 -0.4994 -0.0038
 7825TIP3    H147670   4.693   0.667  11.619 -0.2756 -0.7862 -0.4567
 7825TIP3    H247671   4.831   0.633  11.671 -0.4753  1.0847  1.4611
 7826TIP3   OH247672   1.607   7.161  12.751  0.0557 -0.0843  0.6227
 7826TIP3    H147673   1.648   7.231  12.700  1.2004  0.2397  1.9177
 7826TIP3    H247674   1.557   7.207  12.819 -2.2975 -0.4817 -0.7355
 7827TIP3   OH247675   6.388   4.208  11.512  0.6255  0.1914 -0.1808
 7827TIP3    H147676   6.416   4.221  11.421  0.6556  0.3496 -0.1497
 7827TIP3    H247677   6.306   4.158  11.505  0.1828  0.9178 -0.3337
 7828TIP3   OH247678   7.170   2.894  12.777  0.0811 -0.2148  0.5451
 7828TIP3    H147679   7.091   2.878  12.726  0.5498 -0.7126 -0.0335
 7828TIP3    H247680   7.137   2.919  12.864 -0.7664  2.5177 -0.4643
 7829TIP3   OH247681   5.523   7.329  12.579  0.0580 -0.5157  0.4674
 7829TIP3    H147682   5.615   7.356  12.579  0.0451  0.0273 -3.3789
 7829TIP3    H247683   5.477   7.401  12.622  1.1029  0.8465 -0.6192
 7830TIP3   OH247684   3.180   2.998  12.252  0.2141 -0.1419  0.4336
 7830TIP3    H147685   3.238   2.945  12.197  0.3513  0.5882 -0.1552
 7830TIP3    H247686   3.103   2.944  12.266  0.7510 -0.8641  0.6539
 7831TIP3   OH247687   7.213   0.706  12.549 -0.0753 -0.2647  0.4318
 7831TIP3    H147688   7.218   0.686  12.642  3.0086  2.1680  0.9576
 7831TIP3    H247689   7.293   0.670  12.512 -0.3470  0.4298 -0.9065
 7832TIP3   OH247690   6.577   1.552  10.948 -0.1433 -0.8600  0.3384
 7832TIP3    H147691   6.658   1.596  10.974  0.3401 -1.0755 -0.7456
 7832TIP3    H247692   6.508   1.606  10.986  0.4988 -0.9518  1.7155
 7833TIP3   OH247693   1.286   6.630  11.706  0.2187  0.6501  0.2135
 7833TIP3    H147694   1.354   6.645  11.771  0.7880 -0.7516 -0.0326
 7833TIP3    H247695   1.204   6.627  11.756  0.4965  0.9308  0.6867
 7834TIP3   OH247696   0.263   3.758  13.771  0.2770 -0.6476 -0.5264
 7834TIP3    H147697   0.341   3.711  13.742  0.3515 -0.3219 -0.8564
 7834TIP3    H247698   0.271   3.845  13.732  0.1361 -0.3572  0.0759
 7835TIP3   OH247699   6.393   2.810  12.332  0.7331 -0.2000 -1.1038
 7835TIP3    H147700   6.422   2.899  12.313  1.1321 -0.4090 -1.5039
 7835TIP3    H247701   6.356   2.779  12.250  0.3534 -0.3098 -0.8904
 7836TIP3   OH247702   4.802   1.403  11.174  0.1387  0.3475  0.3116
 7836TIP3    H147703   4.751   1.324  11.154  1.8899 -0.5770 -0.8140
 7836TIP3    H247704   4.803   1.407  11.270  0.8020 -1.6015  0.4429
 7837TIP3   OH247705   4.636   1.186  11.102  0.7329  0.0651 -0.0342
 7837TIP3    H147706   4.633   1.090  11.103  1.2674  0.0488  0.0468
 7837TIP3    H247707   4.561   1.211  11.048 -0.0104 -0.3663  0.7504
 7838TIP3   OH247708   0.971   6.271  10.696 -0.2333  0.2108  0.0704
 7838TIP3    H147709   1.016   6.187  10.696 -0.1199  0.2372 -1.8679
 7838TIP3    H247710   0.897   6.259  10.756  0.8425 -0.6503  1.2662
 7839TIP3   OH247711   0.998   7.107  12.399 -0.3469 -0.5253 -0.1092
 7839TIP3    H147712   0.904   7.093  12.409 -0.1216 -1.0590  1.7793
 7839TIP3    H247713   1.014   7.190  12.444  0.4733 -2.0050  2.5880
 7840TIP3   OH247714   1.708   3.271  13.499 -0.2184 -0.1687 -0.9917
 7840TIP3    H147715   1.631   3.255  13.553  0.2283  0.7093 -0.0569
 7840TIP3    H247716   1.780   3.231  13.548  0.1870  0.6273 -0.9206
 7841TIP3   OH247717   7.521   4.345  11.043 -0.1484  0.3546  0.0892
 7841TIP3    H147718   7.563   4.259  11.036 -2.7447 -1.0575  0.5293
 7841TIP3    H247719   7.581   4.404  10.998  2.4361 -1.3887  0.9447
 7842TIP3   OH247720   5.355   5.634  11.017  0.1809 -0.5428 -0.1711
 7842TIP3    H147721   5.419   5.696  10.982  1.0527 -1.0275  0.5266
 7842TIP3    H247722   5.352   5.653  11.111  1.2734 -2.2331  0.2465
 7843TIP3   OH247723   5.762   3.199  11.558 -0.7749  0.2283  0.0234
 7843TIP3    H147724   5.690   3.176  11.499 -1.2203  0.4805  0.4630
 7843TIP3    H247725   5.806   3.273  11.514  0.3657 -1.0816 -1.1500
 7844TIP3   OH247726   4.225   6.501  13.550 -0.1806  0.5280  0.1724
 7844TIP3    H147727   4.224   6.480  13.643 -1.2253  0.3756  0.1387
 7844TIP3    H247728   4.272   6.584  13.545 -0.5482  0.7889  0.8963
 7845TIP3   OH247729   3.642   1.942  12.223 -0.2442 -0.1439  0.3095
 7845TIP3    H147730   3.603   1.992  12.295 -0.1456  0.2448  0.0975
 7845TIP3    H247731   3.660   2.007  12.156 -1.2047 -0.6355 -0.4485
 7846TIP3   OH247732   2.615   6.449  12.390 -0.0785 -0.1393  0.2688
 7846TIP3    H147733   2.667   6.466  12.311  1.5430 -2.5841  0.7247
 7846TIP3    H247734   2.607   6.354  12.394 -2.6272  0.0430  1.5475
 7847TIP3   OH247735   2.647   5.573  11.159  0.5275 -0.1824 -0.0364
 7847TIP3    H147736   2.717   5.559  11.223  1.6126  1.4104 -0.8187
 7847TIP3    H247737   2.665   5.511  11.089 -1.3831 -2.8368  1.6574
 7848TIP3   OH247738   1.557   3.551  12.667  0.0223  0.1537 -0.4724
 7848TIP3    H147739   1.521   3.465  12.648  0.5581 -0.3389  0.6718
 7848TIP3    H247740   1.588   3.545  12.757  1.5084  1.0403 -0.8852
 7849TIP3   OH247741   2.190   1.094  12.146 -0.1982  0.1740 -0.0948
 7849TIP3    H147742   2.249   1.166  12.171  0.1919 -0.2431  0.2041
 7849TIP3    H247743   2.141   1.073  12.225 -2.2358  1.8530 -0.8184
 7850TIP3   OH247744   7.635   5.873  11.960 -0.0745 -0.8223  0.5766
 7850TIP3    H147745   7.587   5.921  12.027  1.1634  1.3488  0.0023
 7850TIP3    H247746   7.572   5.860  11.889 -0.7470 -1.0855  1.2116
 7851TIP3   OH247747   5.420   4.782  10.870  0.2268  0.0520 -0.3121
 7851TIP3    H147748   5.451   4.854  10.815 -1.6304 -0.2444 -1.8541
 7851TIP3    H247749   5.325   4.782  10.858 -0.0400 -1.2851  1.3896
 7852TIP3   OH247750   3.899   0.426  10.857 -0.3133  0.3517  0.0760
 7852TIP3    H147751   3.835   0.460  10.795 -2.5669 -1.5160  1.2230
 7852TIP3    H247752   3.855   0.428  10.942  2.5536  2.5106  1.6761
 7853TIP3   OH247753   2.785   7.137  12.954  0.2690 -0.9285  0.0242
 7853TIP3    H147754   2.816   7.106  12.869  1.7962 -0.8873  0.5384
 7853TIP3    H247755   2.862   7.180  12.993 -0.5011 -0.6601  1.2880
 7854TIP3   OH247756   1.708   1.818  11.340 -0.8898 -0.3840 -0.5365
 7854TIP3    H147757   1.772   1.752  11.314 -2.6971 -2.7393  0.5763
 7854TIP3    H247758   1.733   1.843  11.429 -0.5488  0.0196 -0.7406
 7855TIP3   OH247759   0.972   5.253  11.560  0.3706 -0.2488  0.7268
 7855TIP3    H147760   0.901   5.217  11.506  1.6596 -1.7591 -0.0188
 7855TIP3    H247761   0.966   5.205  11.642  1.1398 -1.1047  0.2922
 7856TIP3   OH247762   2.137   6.764  11.641 -0.4555  0.5399 -0.2592
 7856TIP3    H147763   2.171   6.799  11.724 -1.6711 -0.2732  0.6052
 7856TIP3    H247764   2.082   6.835  11.606 -4.9522 -1.0197  2.6954
 7857TIP3   OH247765   0.612   3.012  12.735 -0.3139 -0.1556 -0.5112
 7857TIP3    H147766   0.690   3.046  12.779 -0.9356 -1.5127  1.8093
 7857TIP3    H247767   0.547   3.005  12.805 -1.8764 -0.9859 -1.9854
 7858TIP3   OH247768   7.176   5.942  11.756  0.1244  0.5015 -0.1016
 7858TIP3    H147769   7.202   6.028  11.725  0.0197  0.4251 -0.4034
 7858TIP3    H247770   7.205   5.940  11.848 -0.1799  0.9845  0.0089
 7859TIP3   OH247771   3.236   4.661  11.851 -0.0778 -0.2768  0.3604
 7859TIP3    H147772   3.181   4.642  11.927 -0.7416  0.6889  0.1512
 7859TIP3    H247773   3.190   4.621  11.777 -1.1873  1.5436  0.0032
 7860TIP3   OH247774   5.247   0.912  11.210 -0.1055 -0.2198  0.4311
 7860TIP3    H147775   5.257   0.943  11.120  0.7324 -0.4890  0.4260
 7860TIP3    H247776   5.240   0.817  11.202  0.2022 -0.2627  0.6711
 7861TIP3   OH247777   0.852   6.836  10.674  0.5987 -0.2568 -0.0229
 7861TIP3    H147778   0.808   6.921  10.679 -0.2224 -0.7019  0.4163
 7861TIP3    H247779   0.810   6.783  10.742 -0.7418 -1.8484 -1.9834
 7862TIP3   OH247780   7.032   2.016  11.950 -0.0180 -0.1022  0.8619
 7862TIP3    H147781   7.026   2.068  11.870 -2.5273 -0.4500  0.7483
 7862TIP3    H247782   6.989   1.933  11.928  1.8353 -1.3768  1.7377
 7863TIP3   OH247783   2.486   3.747  12.823  0.0433 -0.0495  0.3705
 7863TIP3    H147784   2.398   3.778  12.804  0.0703 -0.8191 -1.1997
 7863TIP3    H247785   2.477   3.652  12.832  0.4258  0.0402  2.1748
 7864TIP3   OH247786   7.249   2.525  11.543  0.4531  0.4496 -0.1213
 7864TIP3    H147787   7.206   2.599  11.586  0.5625  0.0425  0.7005
 7864TIP3    H247788   7.337   2.555  11.523 -0.2409  1.3919 -2.0713
 7865TIP3   OH247789   1.783   6.474  11.861  0.6901 -0.1948  0.3601
 7865TIP3    H147790   1.871   6.505  11.883  1.1513  0.7007 -2.3275
 7865TIP3    H247791   1.745   6.545  11.809 -0.9770 -1.2843  0.0188
 7866TIP3   OH247792   5.372   2.165  11.028 -0.6087 -0.2634 -0.2551
 7866TIP3    H147793   5.301   2.109  10.997  0.4605 -1.2863 -0.9752
 7866TIP3    H247794   5.345   2.254  11.006 -2.0185 -0.5486  0.2414
 7867TIP3   OH247795   5.479   2.891  11.496 -0.3330  0.4102  0.1853
 7867TIP3    H147796   5.561   2.879  11.545 -0.9885  0.4451  1.3209
 7867TIP3    H247797   5.411   2.896  11.563 -1.4225 -0.7487 -0.7617
 7868TIP3   OH247798   1.502   0.982  11.995 -0.6670  0.9422 -0.2005
 7868TIP3    H147799   1.553   1.040  12.051  1.5808  0.0958 -1.2453
 7868TIP3    H247800   1.446   1.041  11.945 -1.1950  1.8610  1.4253
 7869TIP3   OH247801   3.201   3.581  12.405  0.1653 -0.4266  0.2773
 7869TIP3    H147802   3.117   3.592  12.450 -0.4896  0.5948 -1.1529
 7869TIP3    H247803   3.236   3.669  12.397 -0.7176 -0.2399 -2.9668
 7870TIP3   OH247804   4.897   2.117  11.711  0.5000 -0.0172 -0.6593
 7870TIP3    H147805   4.863   2.106  11.623  0.3433 -0.1240 -0.5866
 7870TIP3    H247806   4.958   2.190  11.705 -0.0182  0.4129 -0.7124
 7871TIP3   OH247807   5.216   4.547  11.046 -0.1179 -0.7572 -0.4773
 7871TIP3    H147808   5.155   4.576  10.979  1.1908  0.8280 -1.0564
 7871TIP3    H247809   5.230   4.624  11.102  2.9501 -0.3070 -1.6507
 7872TIP3   OH247810   7.438   5.424  11.609 -0.6119 -0.5410 -0.2061
 7872TIP3    H147811   7.498   5.391  11.675  0.8041  2.6393  0.3082
 7872TIP3    H247812   7.363   5.457  11.659 -0.8207 -0.6522 -0.4438
 7873TIP3   OH247813   4.180   6.499  12.970  0.1433 -0.4178 -0.5198
 7873TIP3    H147814   4.157   6.414  12.933  1.6178 -0.4543 -1.4446
 7873TIP3    H247815   4.099   6.532  13.009 -1.5386 -0.4013 -3.7147
 7874TIP3   OH247816   1.733   5.808  12.223  0.0576  0.0965  0.2839
 7874TIP3    H147817   1.739   5.789  12.130  0.2871  1.2146  0.0590
 7874TIP3    H247818   1.669   5.745  12.256  0.9958 -1.2317 -0.3479
 7875TIP3   OH247819   1.247   5.570  10.840 -0.5611 -1.0480  0.7542
 7875TIP3    H147820   1.337   5.540  10.855 -0.0434 -0.0420 -0.1969
 7875TIP3    H247821   1.197   5.490  10.827  0.6683 -1.5794 -1.1057
 7876TIP3   OH247822   1.067   6.252  12.899 -0.4811 -0.4652 -0.2883
 7876TIP3    H147823   1.148   6.286  12.937 -0.0029 -2.3586  0.4980
 7876TIP3    H247824   1.078   6.262  12.805  1.0050 -1.3600 -0.2396
 7877TIP3   OH247825   5.345   2.229  12.073  0.1658 -0.3022 -0.7957
 7877TIP3    H147826   5.386   2.284  12.139 -1.0561 -0.7106  0.3230
 7877TIP3    H247827   5.409   2.227  12.001  0.5869  1.8666 -0.5390
 7878TIP3   OH247828   6.860   5.015  13.068  0.3404  0.5432 -0.5001
 7878TIP3    H147829   6.811   5.096  13.084  2.5487  2.2183 -1.7419
 7878TIP3    H247830   6.836   4.958  13.142 -2.3560  1.7397 -0.3319
 7879TIP3   OH247831   3.036   5.975  12.606 -0.2210 -0.6323 -0.2211
 7879TIP3    H147832   3.061   6.062  12.578  1.2667 -1.1132 -0.4746
 7879TIP3    H247833   3.071   5.917  12.538  2.2475 -1.7167  1.8464
 7880TIP3   OH247834   1.190   3.952  12.545 -0.0130  0.5211 -0.3799
 7880TIP3    H147835   1.178   4.041  12.579 -0.1092 -0.2112  1.6606
 7880TIP3    H247836   1.139   3.950  12.464 -1.2146  1.9029  0.2927
 7881TIP3   OH247837   1.751   1.448  12.615 -0.0718  0.6683 -0.8267
 7881TIP3    H147838   1.655   1.453  12.614 -0.2138 -1.2599  0.0907
 7881TIP3    H247839   1.771   1.384  12.682  1.9269  1.6272 -0.4458
 7882TIP3   OH247840   5.315   3.687  11.357  0.5852  0.2196 -0.4434
 7882TIP3    H147841   5.223   3.713  11.365  0.3953 -0.7780  0.9077
 7882TIP3    H247842   5.364   3.761  11.393  0.1384 -0.4686  1.6754
 7883TIP3   OH247843   4.110   6.128  13.160  0.3511  0.0614 -0.8899
 7883TIP3    H147844   4.180   6.108  13.221  0.8896 -0.2848 -1.6046
 7883TIP3    H247845   4.123   6.220  13.138 -1.6629  1.1251  1.8017
 7884TIP3   OH247846   0.551   1.189  12.158 -0.1999  0.1506 -0.4262
 7884TIP3    H147847   0.545   1.254  12.088 -1.6958 -0.8379 -1.2904
 7884TIP3    H247848   0.570   1.239  12.237 -2.0669  1.7718 -0.9192
 7885TIP3   OH247849   0.807   5.143  10.884  0.1365 -0.6299  0.0460
 7885TIP3    H147850   0.855   5.068  10.920 -0.3791 -0.1085  1.9595
 7885TIP3    H247851   0.824   5.139  10.790  0.4198 -2.9356  0.1201
 7886TIP3   OH247852   3.155   1.489  11.857 -0.1626 -0.8575  0.0572
 7886TIP3    H147853   3.131   1.561  11.915  0.7994  0.5417 -1.2117
 7886TIP3    H247854   3.248   1.474  11.874  0.4491  0.3636 -1.8544
 7887TIP3   OH247855   2.634   1.179  12.409  0.2563  0.3010  0.2041
 7887TIP3    H147856   2.581   1.176  12.329 -0.6886 -0.8659  0.8330
 7887TIP3    H247857   2.634   1.271  12.434 -1.7571  0.3077  0.3329
 7888TIP3   OH247858   6.005   6.453  12.199 -0.1423 -0.0050 -0.2550
 7888TIP3    H147859   5.933   6.390  12.195 -0.1447 -0.0166 -0.0634
 7888TIP3    H247860   5.977   6.517  12.264 -0.3560  0.4712 -0.8184
 7889TIP3   OH247861   6.798   2.582  11.801 -0.0065  0.0106  0.0784
 7889TIP3    H147862   6.735   2.635  11.752  2.0643  0.8816 -1.7742
 7889TIP3    H247863   6.858   2.646  11.839  1.5659 -0.9026 -0.7941
 7890TIP3   OH247864   4.244   3.185  12.578  0.0295 -0.2242  0.4296
 7890TIP3    H147865   4.264   3.091  12.572 -3.0296 -0.8713 -1.5567
 7890TIP3    H247866   4.229   3.200  12.671 -0.0507 -1.8780  0.7181
 7891TIP3   OH247867   2.226   5.735  11.012 -0.5272 -0.3319  0.0830
 7891TIP3    H147868   2.255   5.824  10.991  1.8454 -1.3371 -1.2780
 7891TIP3    H247869   2.263   5.718  11.099 -1.9854  0.3780  0.8734
 7892TIP3   OH247870   2.509   1.887  13.310  0.2401 -0.0888 -0.0372
 7892TIP3    H147871   2.449   1.938  13.256  1.6159 -0.3102 -1.8951
 7892TIP3    H247872   2.561   1.952  13.356 -0.9469  0.1040  1.0926
 7893TIP3   OH247873   0.753   7.076  11.235  0.3714  0.0601 -0.4677
 7893TIP3    H147874   0.780   7.005  11.292 -1.2341 -1.6266 -1.6918
 7893TIP3    H247875   0.659   7.065  11.225 -0.7101  4.5227  2.0777
 7894TIP3   OH247876   4.571   3.268  12.512  0.4533  0.5412  0.0681
 7894TIP3    H147877   4.635   3.338  12.522 -0.1608  1.1740 -0.3976
 7894TIP3    H247878   4.492   3.311  12.480 -0.0163 -0.3219  0.0323
 7895TIP3   OH247879   1.354   6.062  11.485 -0.4044  0.6107  0.1168
 7895TIP3    H147880   1.334   6.135  11.544 -0.6696 -0.0258  0.8379
 7895TIP3    H247881   1.311   6.085  11.403 -0.3215  1.3509  0.2704
 7896TIP3   OH247882   0.470   2.049  11.330  0.7281  0.1481 -0.2577
 7896TIP3    H147883   0.472   1.971  11.274 -2.1513  1.0221 -1.7849
 7896TIP3    H247884   0.424   2.115  11.277 -0.2176  1.7141  2.3332
 7897TIP3   OH247885   6.672   2.249  11.309  0.3865 -0.2107 -0.0493
 7897TIP3    H147886   6.758   2.244  11.351  0.8776  0.0381 -1.0170
 7897TIP3    H247887   6.670   2.335  11.268 -1.2551  0.7801  1.8905
 7898TIP3   OH247888   1.542   1.013  10.766 -0.1008  0.0419  0.0461
 7898TIP3    H147889   1.501   0.953  10.704 -0.7929  0.9982 -0.4274
 7898TIP3    H247890   1.636   0.990  10.762 -0.2208 -0.3413 -0.8528
 7899TIP3   OH247891   0.343   5.350  11.994 -0.0186  0.2423 -0.3739
 7899TIP3    H147892   0.324   5.395  11.912  3.7645 -0.2460 -1.7317
 7899TIP3    H247893   0.329   5.258  11.974  0.2085  0.1793 -0.2453
 7900TIP3   OH247894   4.579   0.243  10.524 -0.2799 -0.1835 -0.0751
 7900TIP3    H147895   4.630   0.313  10.564  0.5784 -0.3635 -0.8372
 7900TIP3    H247896   4.540   0.196  10.598 -0.9702  1.1570  0.4410
 7901TIP3   OH247897   1.564   2.849  11.043 -1.0340 -0.1391  0.3271
 7901TIP3    H147898   1.612   2.818  11.120 -1.9363 -1.3893  0.4218
 7901TIP3    H247899   1.597   2.794  10.971 -0.5002  0.7320 -0.1043
 7902TIP3   OH247900   6.656   0.801  11.789  0.3171  0.1023 -0.2530
 7902TIP3    H147901   6.664   0.709  11.765  3.0397  0.2909 -0.3141
 7902TIP3    H247902   6.609   0.841  11.715  0.7551 -0.9050 -1.0886
 7903TIP3   OH247903   6.451   1.895  10.773  0.9614 -0.5217 -0.0629
 7903TIP3    H147904   6.517   1.963  10.765 -0.6009  1.1872  0.7998
 7903TIP3    H247905   6.469   1.854  10.857 -0.2202  1.3375  1.1782
 7904TIP3   OH247906   4.258   2.068  12.507  0.3556 -0.3549  0.0180
 7904TIP3    H147907   4.205   2.008  12.559  1.3807  0.6393  2.3517
 7904TIP3    H247908   4.345   2.027  12.504  0.5059 -0.0213 -0.2754
 7905TIP3   OH247909   0.724   4.617  10.455 -0.1234  0.0220 -0.0463
 7905TIP3    H147910   0.731   4.543  10.515 -2.4208  1.3610  2.0920
 7905TIP3    H247911   0.814   4.644  10.439  0.6366 -0.4819  2.8131
 7906TIP3   OH247912   2.156   2.076  12.643  0.5201  0.8894 -0.1140
 7906TIP3    H147913   2.128   2.167  12.632 -0.0615  0.5302 -1.8683
 7906TIP3    H247914   2.078   2.032  12.678  0.6050  0.9444  0.1439
 7907TIP3   OH247915   2.390   4.371  16.944 -0.9006 -0.1693 -0.1355
 7907TIP3    H147916   2.420   4.405  17.029 -1.2087 -0.8501  0.2568
 7907TIP3    H247917   2.446   4.414  16.880 -0.7754  0.4882  0.4018
 7908TIP3   OH247918   1.872   1.619  11.046 -0.2908  0.6915  0.1059
 7908TIP3    H147919   1.802   1.604  10.982 -0.8728  0.0579  0.8756
 7908TIP3    H247920   1.846   1.569  11.123  1.4235 -0.2190  0.1393
 7909TIP3   OH247921   2.268   3.980  10.876 -0.1497 -0.0079  0.3928
 7909TIP3    H147922   2.356   3.959  10.846  0.4455  2.2612  0.3547
 7909TIP3    H247923   2.280   4.017  10.963 -1.2882 -1.2845  1.1438
 7910TIP3   OH247924   5.709   6.901  11.624  0.3039 -0.3265  0.1194
 7910TIP3    H147925   5.742   6.855  11.547  0.6543 -0.9019  0.6024
 7910TIP3    H247926   5.622   6.931  11.599 -0.2910 -1.9842  0.0642
 7911TIP3   OH247927   3.128   7.363  12.389  0.3507 -0.4470  0.3535
 7911TIP3    H147928   3.131   7.458  12.385 -0.6103 -0.4100  0.2929
 7911TIP3    H247929   3.212   7.335  12.353  1.3317  0.4030  1.8930
 7912TIP3   OH247930   5.157   2.157  12.367  0.0715  0.2495 -0.3149
 7912TIP3    H147931   5.107   2.237  12.353 -2.2510 -0.6374  1.9804
 7912TIP3    H247932   5.244   2.187  12.392 -0.8027  2.1118  0.7322
 7913TIP3   OH247933   6.486   0.634  11.481  0.6337 -0.0177  0.3639
 7913TIP3    H147934   6.453   0.659  11.395  1.1317 -0.9019 -0.0883
 7913TIP3    H247935   6.413   0.653  11.541 -0.0256 -0.2119 -0.3631
 7914TIP3   OH247936   2.272   4.271  11.804  0.3822 -0.4199 -0.3572
 7914TIP3    H147937   2.279   4.328  11.727 -0.1617 -0.9629 -0.8146
 7914TIP3    H247938   2.271   4.331  11.878  3.5374  0.0710 -0.5535
 7915TIP3   OH247939   7.387   4.449  13.541 -0.0892 -0.0049  0.2096
 7915TIP3    H147940   7.379   4.529  13.595 -0.6164  0.2043 -0.1703
 7915TIP3    H247941   7.319   4.459  13.475  1.4134  0.3840 -1.3392
 7916TIP3   OH247942   3.333   0.090  11.194 -0.3271 -0.3236 -0.1097
 7916TIP3    H147943   3.344   0.049  11.280  0.8167  0.0363 -0.0642
 7916TIP3    H247944   3.321   0.183  11.214  1.1179 -0.0509 -0.3517
 7917TIP3   OH247945   6.099   7.571  11.863  0.0482  0.3292 -0.3600
 7917TIP3    H147946   6.010   7.581  11.829  0.1099 -0.2005 -0.6987
 7917TIP3    H247947   6.128   7.487  11.827  0.3048 -0.0034  0.5956
 7918TIP3   OH247948   2.809   6.917  10.688 -0.7543  0.3072  0.1115
 7918TIP3    H147949   2.859   6.968  10.624 -0.6849 -0.9434 -0.8502
 7918TIP3    H247950   2.728   6.895  10.644  0.6334 -3.4330 -0.9172
 7919TIP3   OH247951   4.892   0.697  11.146 -0.4505  0.1719 -0.1180
 7919TIP3    H147952   4.923   0.666  11.231 -1.0404  0.4388  0.2014
 7919TIP3    H247953   4.899   0.792  11.152 -1.8068  0.2730  0.1609
 7920TIP3   OH247954   2.279   2.654  11.769  0.1968  0.2955  0.3745
 7920TIP3    H147955   2.334   2.704  11.829  0.0434  0.4139  0.4154
 7920TIP3    H247956   2.331   2.650  11.688 -0.1566  1.2907  0.0723
 7921TIP3   OH247957   2.080   4.671  12.073 -0.1327 -0.2804  0.2105
 7921TIP3    H147958   2.068   4.673  12.168 -0.9364  0.4310  0.1032
 7921TIP3    H247959   2.054   4.582  12.048  2.5430 -1.3559  0.9376
 7922TIP3   OH247960   4.128   1.124  10.576  0.4242  0.0557  0.2163
 7922TIP3    H147961   4.055   1.150  10.520  0.0274  0.5892  0.9614
 7922TIP3    H247962   4.124   1.184  10.650  1.9751  0.4690 -0.0067
 7923TIP3   OH247963   0.252   7.193  10.642  0.1064 -0.0108  0.3130
 7923TIP3    H147964   0.334   7.143  10.647 -0.3589 -0.9988 -1.3260
 7923TIP3    H247965   0.280   7.284  10.629  0.9564 -0.2944  0.1067
 7924TIP3   OH247966   0.105   3.572  11.394  0.3337  0.1085 -0.4216
 7924TIP3    H147967   0.127   3.634  11.463 -1.5771 -0.9352  1.2411
 7924TIP3    H247968   0.026   3.608  11.353 -0.2940 -0.7765 -0.0118
 7925TIP3   OH247969   1.641   4.664  10.206 -0.2369 -0.2047  0.1385
 7925TIP3    H147970   1.673   4.751  10.184  1.1512 -0.4600  1.0508
 7925TIP3    H247971   1.715   4.606  10.189 -0.6868 -1.0164  0.8645
 7926TIP3   OH247972   7.513   2.391  11.851 -0.2908  0.2846  0.1884
 7926TIP3    H147973   7.423   2.370  11.826  0.1334 -1.5493  0.0974
 7926TIP3    H247974   7.521   2.363  11.942 -0.2586  1.9703  0.7399
 7927TIP3   OH247975   0.047   0.786  10.484  0.0166  0.0506 -0.0288
 7927TIP3    H147976   0.018   0.707  10.529  1.2274 -0.2410  0.2668
 7927TIP3    H247977   0.140   0.773  10.469 -0.0451  0.8060 -1.2732
 7928TIP3   OH247978   3.272   7.549  12.214 -0.0081  0.1710  0.3258
 7928TIP3    H147979   3.246   7.555  12.122 -2.3875 -0.8542  0.8663
 7928TIP3    H247980   3.361   7.514  12.211 -0.3604 -0.7180 -1.5721
 7929TIP3   OH247981   2.895   6.749  11.348  0.0637 -0.1189 -0.5863
 7929TIP3    H147982   2.824   6.794  11.394  0.2100  0.5040 -0.9570
 7929TIP3    H247983   2.868   6.657  11.346 -1.8859  0.3914 -2.7345
 7930TIP3   OH247984   3.280   0.358  11.271  0.1129  0.2828  0.0260
 7930TIP3    H147985   3.200   0.383  11.319  1.5838  2.0088  1.7364
 7930TIP3    H247986   3.296   0.431  11.212 -0.1694 -0.6021 -1.1937
 7931TIP3   OH247987   5.997   4.215  12.806  0.6042  0.1899 -0.1063
 7931TIP3    H147988   6.077   4.178  12.842  2.0978  2.3276 -1.0176
 7931TIP3    H247989   6.002   4.195  12.712 -0.4877 -0.5864 -0.0103
 7932TIP3   OH247990   6.456   6.392  10.498  0.1210  0.3602 -0.1298
 7932TIP3    H147991   6.385   6.441  10.540 -0.5246 -0.0397 -0.7271
 7932TIP3    H247992   6.414   6.349  10.424  0.5452 -1.5004  0.6454
 7933TIP3   OH247993   1.459   1.133  11.010  0.1916 -1.3531  0.1643
 7933TIP3    H147994   1.530   1.084  11.052  2.5452 -0.4039 -2.3731
 7933TIP3    H247995   1.481   1.133  10.917 -2.1060  0.7058 -0.4982
 7934TIP3   OH247996   2.695   7.274  12.640  0.5832 -0.1083 -0.3835
 7934TIP3    H147997   2.789   7.267  12.624  0.9479 -1.3018  1.8633
 7934TIP3    H247998   2.664   7.184  12.639 -0.5365  0.2723 -1.0235
 7935TIP3   OH247999   0.014   0.771  12.464 -0.0033  0.0963  0.2615
 7935TIP3    H148000   0.040   0.862  12.451  0.0213 -0.0939 -1.2471
 7935TIP3    H248001  -0.076   0.767  12.433 -1.0241  0.1761  2.9752
 7936TIP3   OH248002   5.149   1.175  10.988 -0.5315  0.2506 -0.0432
 7936TIP3    H148003   5.081   1.152  10.925  0.2980  0.3066 -0.9889
 7936TIP3    H248004   5.225   1.123  10.962  0.5124  1.9168 -0.4912
 7937TIP3   OH248005   5.677   7.411  12.129 -0.0187 -0.6508 -0.6648
 7937TIP3    H148006   5.619   7.477  12.168  0.8950  0.7681 -1.6162
 7937TIP3    H248007   5.733   7.382  12.201 -1.3529 -1.4658  0.0849
 7938TIP3   OH248008   5.014   5.896  11.491 -0.2423 -0.1958  0.0651
 7938TIP3    H148009   4.962   5.908  11.571 -0.4012  0.7201 -0.1612
 7938TIP3    H248010   5.027   5.802  11.484 -0.4159 -0.3031  1.0563
 7939TIP3   OH248011   7.560   3.697  13.180 -0.5660 -0.1197 -0.1053
 7939TIP3    H148012   7.556   3.670  13.272  1.0410 -1.1844 -0.3070
 7939TIP3    H248013   7.569   3.615  13.132  2.2114  0.5826 -0.9326
 7940TIP3   OH248014   2.962   0.290  11.123  0.6770  0.1669 -0.1012
 7940TIP3    H148015   2.957   0.208  11.074 -0.6611  0.5014 -0.5850
 7940TIP3    H248016   3.035   0.337  11.082  1.1443 -0.5654 -0.1393
 7941TIP3   OH248017   5.025   1.103  12.375  0.2146 -0.0778 -0.4458
 7941TIP3    H148018   4.994   1.154  12.450  0.4041 -1.6184  0.7223
 7941TIP3    H248019   4.956   1.114  12.309 -0.3711  0.6272  0.2592
 7942TIP3   OH248020   5.683   4.360  10.969 -0.0355 -0.3373  0.0207
 7942TIP3    H148021   5.618   4.415  10.924  0.8317  1.8147  1.2480
 7942TIP3    H248022   5.636   4.326  11.045 -0.1055  0.1696  0.2106
 7943TIP3   OH248023   1.888   2.484  13.683  0.3087 -0.1132 -0.7829
 7943TIP3    H148024   1.922   2.460  13.597  0.3546 -0.4998 -0.6585
 7943TIP3    H248025   1.942   2.559  13.710  0.9102 -0.5589 -0.6988
 7944TIP3   OH248026   7.248   4.734  11.762  0.1254 -0.5540  0.2364
 7944TIP3    H148027   7.196   4.725  11.682  1.0108  1.3691 -0.6337
 7944TIP3    H248028   7.328   4.684  11.744 -0.3131 -1.3811  0.5476
 7945TIP3   OH248029   3.853   4.898  11.724  0.3084 -0.2981  0.1277
 7945TIP3    H148030   3.912   4.906  11.799 -1.0471 -0.6304  1.2739
 7945TIP3    H248031   3.769   4.874  11.762 -0.0262 -2.2137 -1.6499
 7946TIP3   OH248032   2.894   2.413  11.834 -0.0130  0.2317  0.0024
 7946TIP3    H148033   2.867   2.492  11.788  2.0538  1.9160  1.4438
 7946TIP3    H248034   2.989   2.410  11.824 -0.0125 -2.1564 -0.0574
 7947TIP3   OH248035   4.685   6.229  10.725  0.1221  0.2152  0.4738
 7947TIP3    H148036   4.774   6.225  10.691  0.1190 -0.0357  0.4911
 7947TIP3    H248037   4.630   6.244  10.649  0.2465  1.2112  0.5583
 7948TIP3   OH248038   4.504   3.614  11.459  0.2650 -0.1790  0.2140
 7948TIP3    H148039   4.491   3.709  11.461  2.2824  0.1316 -0.1726
 7948TIP3    H248040   4.539   3.593  11.546  0.5770 -0.4558  0.0215
 7949TIP3   OH248041   4.942   1.427  11.846 -0.0701 -0.4148 -0.4699
 7949TIP3    H148042   4.981   1.476  11.774 -1.3659  0.1233 -0.8429
 7949TIP3    H248043   4.851   1.458  11.849  0.0140 -0.2208  1.5597
 7950TIP3   OH248044   7.410   0.809  12.910 -0.2366  0.3671 -0.6229
 7950TIP3    H148045   7.388   0.812  13.003 -0.3069 -1.1631 -0.5669
 7950TIP3    H248046   7.465   0.886  12.896 -0.7727  0.9861  0.5271
 7951TIP3   OH248047   1.854   4.199  10.705 -0.2395 -0.1802  0.2859
 7951TIP3    H148048   1.837   4.107  10.721  0.0840 -0.2575  0.1892
 7951TIP3    H248049   1.948   4.210  10.722  0.0514 -0.1912 -1.2167
 7952TIP3   OH248050   2.808   2.228  11.307  0.1968  0.0239  0.3296
 7952TIP3    H148051   2.832   2.245  11.398 -0.9808  1.1735  0.4646
 7952TIP3    H248052   2.763   2.144  11.309  1.4035 -0.6332  0.5610
 7953TIP3   OH248053   6.033   5.880  11.506 -0.4509 -0.0494 -0.0782
 7953TIP3    H148054   6.082   5.934  11.444 -1.3066  2.8331  1.5853
 7953TIP3    H248055   6.068   5.792  11.493  1.8807  1.0441 -2.1383
 7954TIP3   OH248056   4.857   3.286  12.230  0.7291 -0.4955  0.0579
 7954TIP3    H148057   4.902   3.243  12.303  0.4330 -0.7871  0.0723
 7954TIP3    H248058   4.779   3.232  12.215  0.8304 -0.4824 -0.5281
 7955TIP3   OH248059   3.097   5.847  10.326  0.3723  0.6894 -0.1407
 7955TIP3    H148060   3.083   5.924  10.381 -2.5999  0.3424 -0.2433
 7955TIP3    H248061   3.027   5.787  10.351  2.0904 -1.6624 -0.6716
 7956TIP3   OH248062   4.591   3.894  11.744  0.6709  0.7500  0.5831
 7956TIP3    H148063   4.519   3.951  11.773  0.6376  0.5333  0.9376
 7956TIP3    H248064   4.548   3.814  11.715  0.8492 -0.0676  2.4208
 7957TIP3   OH248065   0.706   1.623  12.391  0.0248 -0.2942  0.2040
 7957TIP3    H148066   0.698   1.649  12.299  2.6118 -0.8363 -0.2522
 7957TIP3    H248067   0.717   1.705  12.438  2.9958 -0.1040 -0.5920
 7958TIP3   OH248068   3.523   3.477  10.605 -0.6787 -0.2974  0.4353
 7958TIP3    H148069   3.464   3.456  10.533  0.9480  0.6901 -1.2821
 7958TIP3    H248070   3.586   3.405  10.606  0.9148  0.9950 -1.0121
 7959TIP3   OH248071   4.873   4.505  11.253 -0.4592 -0.5995  0.0374
 7959TIP3    H148072   4.942   4.449  11.218 -0.0943 -0.9165  1.2082
 7959TIP3    H248073   4.914   4.553  11.325 -0.6857  1.4258 -1.1132
 7960TIP3   OH248074   1.615   0.224  10.288  0.5046  0.3961 -0.6660
 7960TIP3    H148075   1.687   0.263  10.238  0.8742  1.3093  0.5404
 7960TIP3    H248076   1.548   0.293  10.292 -0.8668 -0.7175 -2.5032
 7961TIP3   OH248077   4.136   0.726  11.962 -0.9445 -0.2285 -0.1154
 7961TIP3    H148078   4.081   0.760  12.032 -1.9406  0.3481 -1.1339
 7961TIP3    H248079   4.212   0.785  11.960 -1.1494  0.0472  0.1474
 7962TIP3   OH248080   5.414   0.566  11.465 -0.3990 -0.5021  0.0507
 7962TIP3    H148081   5.405   0.660  11.477 -1.6287 -0.5438 -0.4495
 7962TIP3    H248082   5.505   0.548  11.487 -0.3763  0.6697  1.0071
 7963TIP3   OH248083   0.597   3.281  12.291 -0.0236 -0.2416 -0.2764
 7963TIP3    H148084   0.598   3.223  12.367  1.8347  0.7959  0.5759
 7963TIP3    H248085   0.510   3.270  12.253 -1.0210 -0.8154  1.9809
 7964TIP3   OH248086   6.740   5.318  10.731  0.6307 -0.6998 -0.0523
 7964TIP3    H148087   6.718   5.388  10.793  1.8661 -0.4971  0.1890
 7964TIP3    H248088   6.665   5.259  10.735 -0.2004  0.3268  0.1390
 7965TIP3   OH248089   3.968   0.873  11.375  0.6165 -0.4055 -0.2315
 7965TIP3    H148090   4.063   0.877  11.365  0.6770 -0.4446  0.2860
 7965TIP3    H248091   3.944   0.785  11.347  0.8405 -0.6872  0.4291
 7966TIP3   OH248092   7.397   3.586  11.930 -0.4774  0.1507  0.1969
 7966TIP3    H148093   7.387   3.496  11.897  0.8234 -0.7595  2.0842
 7966TIP3    H248094   7.309   3.612  11.956 -0.9964 -0.2712 -1.0394
 7967TIP3   OH248095   4.548   0.664  10.216 -0.0610  0.2149  0.6131
 7967TIP3    H148096   4.547   0.758  10.198 -1.9656 -0.1179 -1.5017
 7967TIP3    H248097   4.631   0.633  10.178 -0.1531  0.8167 -0.0990
 7968TIP3   OH248098   2.573   5.316  10.983  0.2158  0.1093  0.1292
 7968TIP3    H148099   2.559   5.294  10.891 -0.0003  0.6474  0.0302
 7968TIP3    H248100   2.562   5.233  11.029 -2.1983  0.2504 -0.0624
 7969TIP3   OH248101   1.480   1.375  11.307 -0.1297  0.8179  0.7345
 7969TIP3    H148102   1.544   1.311  11.339  0.7272  1.5543  0.5289
 7969TIP3    H248103   1.405   1.322  11.278  0.8462 -0.1438 -0.1064
 7970TIP3   OH248104   3.249   3.183  12.666  0.0347  0.8974  0.1963
 7970TIP3    H148105   3.236   3.215  12.576  0.5912  1.5486  0.3360
 7970TIP3    H248106   3.344   3.188  12.679 -0.1002  1.4332  1.0409
 7971TIP3   OH248107   3.058   5.155  10.764  0.4118  0.0109 -0.2785
 7971TIP3    H148108   3.043   5.189  10.852 -0.9594 -0.8982 -0.1414
 7971TIP3    H248109   2.976   5.113  10.740  0.4574  0.9883 -2.3580
 7972TIP3   OH248110   3.079   1.228  10.719 -0.7471 -0.1097 -0.8351
 7972TIP3    H148111   3.051   1.143  10.688  0.6494 -0.3775 -1.4511
 7972TIP3    H248112   3.024   1.291  10.672 -2.9261 -0.6529  0.8255
 7973TIP3   OH248113   7.516   2.934  11.943  0.3888  0.5022  0.4712
 7973TIP3    H148114   7.453   2.866  11.965 -0.1616  0.6380 -0.5987
 7973TIP3    H248115   7.602   2.892  11.951  0.0623 -0.2901 -0.0707
 7974TIP3   OH248116   0.476   0.279  12.481 -0.3381  0.1739  0.1968
 7974TIP3    H148117   0.426   0.341  12.427  2.0666  0.4304 -1.9071
 7974TIP3    H248118   0.540   0.334  12.526  0.3990 -0.5126 -0.0033
 7975TIP3   OH248119   3.726   6.710  11.426 -0.0001 -0.1869  0.1210
 7975TIP3    H148120   3.782   6.734  11.500  0.1934 -1.1123  0.2861
 7975TIP3    H248121   3.769   6.748  11.350  1.3312 -1.6029  0.1363
 7976TIP3   OH248122   5.646   7.327  11.165 -0.3156  0.0652 -0.2179
 7976TIP3    H148123   5.637   7.268  11.090 -0.3041  0.3539 -0.4480
 7976TIP3    H248124   5.737   7.356  11.161 -0.7793  1.5287 -1.1921
 7977TIP3   OH248125   2.774   1.847  12.786 -0.9177  0.1853  0.7784
 7977TIP3    H148126   2.698   1.815  12.737 -0.6405 -0.5301  0.8053
 7977TIP3    H248127   2.740   1.921  12.837 -1.6555 -0.2910  0.9948
 7978TIP3   OH248128   3.955   6.923  13.104  0.3287 -0.2451 -0.5245
 7978TIP3    H148129   3.925   6.962  13.186  1.5960  0.2971 -0.2929
 7978TIP3    H248130   3.881   6.871  13.074 -0.2420 -0.2670  0.8414
 7979TIP3   OH248131   0.310   7.341  12.386 -0.2714  0.0623 -0.3748
 7979TIP3    H148132   0.381   7.394  12.350 -1.3143  0.9879 -1.1046
 7979TIP3    H248133   0.355   7.280  12.446  1.0012  1.4279  0.1355
 7980TIP3   OH248134   7.294   1.950  12.314 -0.3587 -0.6506  0.3489
 7980TIP3    H148135   7.291   1.855  12.307  0.7868 -0.6282 -0.6764
 7980TIP3    H248136   7.374   1.976  12.269 -0.0270  0.7221  1.6228
 7981TIP3   OH248137   3.366   1.098  11.703 -0.0114 -0.3233 -0.2802
 7981TIP3    H148138   3.459   1.122  11.707 -0.2021  0.8495 -1.7509
 7981TIP3    H248139   3.325   1.172  11.657 -2.0430  0.1978  2.1608
 7982TIP3   OH248140   1.721   5.000  11.307  0.1321 -0.2940  0.0461
 7982TIP3    H148141   1.816   5.011  11.317  0.2561  1.1747 -2.1556
 7982TIP3    H248142   1.711   4.923  11.251 -0.0120 -0.4850  0.3262
 7983TIP3   OH248143   4.519   0.291  13.415 -0.3440 -0.2233 -0.1072
 7983TIP3    H148144   4.574   0.308  13.338  0.1154 -0.6781  0.1110
 7983TIP3    H248145   4.563   0.218  13.459 -0.1815  0.5157  0.9881
 7984TIP3   OH248146   1.090   4.603  11.074  0.3366  0.5657 -0.2455
 7984TIP3    H148147   1.106   4.589  11.168  0.3595 -0.1037 -0.3481
 7984TIP3    H248148   0.995   4.606  11.067  0.3222  0.0997 -0.2728
 7985TIP3   OH248149   7.575   5.375  12.084 -0.2894  0.4264  0.2119
 7985TIP3    H148150   7.630   5.413  12.153  0.7078  2.9486 -1.8014
 7985TIP3    H248151   7.507   5.441  12.069  0.0271  0.3687 -1.7551
 7986TIP3   OH248152   1.400   5.620  11.149  0.4461 -0.4353 -0.4383
 7986TIP3    H148153   1.422   5.707  11.117  0.0802 -0.6958 -1.4394
 7986TIP3    H248154   1.366   5.574  11.072 -0.5905 -1.0430  0.3497
 7987TIP3   OH248155   5.872   0.962  10.718 -0.5130 -0.2791 -0.6382
 7987TIP3    H148156   5.792   1.015  10.711 -0.4937 -0.1898 -0.1692
 7987TIP3    H248157   5.861   0.913  10.800  1.2580  1.9609  1.0440
 7988TIP3   OH248158   6.648   6.611  12.601  0.1636 -0.2409  0.0089
 7988TIP3    H148159   6.571   6.578  12.553 -0.9422  0.6345  1.1303
 7988TIP3    H248160   6.665   6.697  12.562 -1.7483  1.2147  2.1394
 7989TIP3   OH248161   2.647   3.294  12.522  0.1991 -0.2530 -0.0942
 7989TIP3    H148162   2.674   3.366  12.578 -1.0179  0.3136 -0.2165
 7989TIP3    H248163   2.595   3.334  12.453 -0.3979 -1.2237 -0.2351
 7990TIP3   OH248164   6.502   3.730  10.823  0.3402  0.1692 -0.1857
 7990TIP3    H148165   6.478   3.731  10.915  0.1725 -0.8907 -0.2071
 7990TIP3    H248166   6.424   3.762  10.777  0.8082  1.8197  0.0899
 7991TIP3   OH248167   2.647   0.165  11.280  0.4797 -0.0275 -0.2426
 7991TIP3    H148168   2.734   0.189  11.313  0.5964  0.1469 -0.6698
 7991TIP3    H248169   2.655   0.172  11.185  0.3084 -1.0522 -0.3386
 7992TIP3   OH248170   6.969   5.571  12.951  0.3470 -0.1889 -0.2562
 7992TIP3    H148171   7.000   5.510  12.884  1.6424  0.4407 -0.2506
 7992TIP3    H248172   7.047   5.591  13.003 -0.4968 -0.1328  1.0300
 7993TIP3   OH248173   4.512   2.033  11.724 -0.2276  0.3615 -0.3238
 7993TIP3    H148174   4.532   1.982  11.802 -0.9956  0.7452  0.1348
 7993TIP3    H248175   4.447   2.097  11.753 -0.4459  0.5753 -1.2501
 7994TIP3   OH248176   3.889   2.968  12.558 -0.1349 -0.6644 -0.2784
 7994TIP3    H148177   3.882   3.018  12.477 -0.2551 -0.8473 -0.3799
 7994TIP3    H248178   3.974   2.925  12.553 -0.3613 -1.0853 -0.5402
 7995TIP3   OH248179   6.533   7.612  11.778  0.5215 -0.1824  0.8019
 7995TIP3    H148180   6.463   7.670  11.751  1.4227  1.1609  1.2740
 7995TIP3    H248181   6.491   7.526  11.787 -0.4019 -0.1646 -2.1038
 7996TIP3   OH248182   5.460   7.624  13.063 -0.0881 -0.2696  0.3251
 7996TIP3    H148183   5.536   7.681  13.075 -0.7591  1.0385 -1.2417
 7996TIP3    H248184   5.480   7.546  13.115  1.6934  0.6112  1.0488
 7997TIP3   OH248185   1.805   7.574  12.721  0.3640  0.0292 -0.3394
 7997TIP3    H148186   1.826   7.548  12.811  1.1757  0.1881 -0.4686
 7997TIP3    H248187   1.761   7.658  12.730  1.6559  0.7082 -0.1482
 7998TIP3   OH248188   4.285   0.808  11.164 -0.1370  0.6798 -0.1686
 7998TIP3    H148189   4.339   0.783  11.089  0.5217 -0.4463  0.6562
 7998TIP3    H248190   4.348   0.846  11.227 -0.4544  0.3355  0.3664
 7999TIP3   OH248191   4.914   4.087  10.716  0.0373 -0.3717  0.0534
 7999TIP3    H148192   4.870   4.165  10.751  0.3552 -0.3108  0.3298
 7999TIP3    H248193   4.845   4.023  10.705 -0.0935 -0.3455  0.6793
 8000TIP3   OH248194   6.309   2.994  12.753  0.0101 -0.1181  0.2715
 8000TIP3    H148195   6.357   3.054  12.696  0.3751 -0.6118  0.0544
 8000TIP3    H248196   6.218   3.006  12.729  0.2976 -2.1468 -2.2599
 8001TIP3   OH248197   4.009   6.646  12.655  0.3948  0.3731  0.1670
 8001TIP3    H148198   4.061   6.568  12.670  0.7355  0.6745  0.5726
 8001TIP3    H248199   4.038   6.679  12.569 -1.8175 -1.5582 -1.4337
 8002TIP3   OH248200   5.432   7.239  11.740  0.4018  0.1702  0.0956
 8002TIP3    H148201   5.472   7.255  11.825  1.6427  0.7775 -0.5786
 8002TIP3    H248202   5.388   7.155  11.749  1.8240 -0.5067  0.8771
 8003TIP3   OH248203   5.316   6.321  10.708  0.0540 -0.3453  0.2469
 8003TIP3    H148204   5.269   6.271  10.641  0.3987  0.9049 -0.9681
 8003TIP3    H248205   5.247   6.366  10.756 -0.0890  0.6813 -0.8735
 8004TIP3   OH248206   1.608   5.900  12.569  0.0464  0.2395  0.7378
 8004TIP3    H148207   1.620   5.833  12.502  2.3591  2.6280 -1.4700
 8004TIP3    H248208   1.526   5.875  12.613 -0.9233 -2.1930 -2.0617
 8005TIP3   OH248209   6.919   7.613  12.038  0.1394  0.2925 -0.5245
 8005TIP3    H148210   6.825   7.612  12.059  0.0871  0.4260 -0.7580
 8005TIP3    H248211   6.960   7.653  12.115  0.0035  0.2443 -0.4261
 8006TIP3   OH248212   4.352   3.369  10.976  0.3767  0.0837 -0.3810
 8006TIP3    H148213   4.398   3.287  10.959  0.2435 -0.0927  0.0925
 8006TIP3    H248214   4.330   3.365  11.069  0.7592  0.8633 -0.2533
 8007TIP3   OH248215   0.742   3.142  10.425 -0.1905 -0.0296  0.4420
 8007TIP3    H148216   0.779   3.199  10.493  0.5875  0.6867 -0.5576
 8007TIP3    H248217   0.648   3.140  10.444  0.1420 -0.8104  2.2390
 8008TIP3   OH248218   0.808   6.499  12.137  0.0118  0.6617 -0.1708
 8008TIP3    H148219   0.825   6.580  12.088 -0.1046  0.3562 -0.7159
 8008TIP3    H248220   0.828   6.429  12.076 -1.6381  0.2709 -0.3009
 8009TIP3   OH248221   2.053   6.618  10.783  0.1897  0.0731  0.0690
 8009TIP3    H148222   2.087   6.589  10.698 -0.0387 -1.2591  0.3982
 8009TIP3    H248223   2.074   6.546  10.842 -1.0313  0.2877  0.7977
 8010TIP3   OH248224   6.511   1.069  13.038  0.5153  0.7877  0.2324
 8010TIP3    H148225   6.424   1.087  13.002  0.4089  2.2121  1.1298
 8010TIP3    H248226   6.497   1.063  13.132  1.2854  0.3167  0.3225
 8011TIP3   OH248227   1.015   2.802  12.139 -0.0637  0.4180  0.2013
 8011TIP3    H148228   0.972   2.790  12.223  1.6585  0.6598  1.1599
 8011TIP3    H248229   0.947   2.780  12.074 -0.7373 -2.1623  1.6381
 8012TIP3   OH248230   4.182   1.058  11.819  0.4296 -0.1047  0.0432
 8012TIP3    H148231   4.203   1.145  11.786  1.2418 -0.3199 -0.0276
 8012TIP3    H248232   4.112   1.027  11.762  1.4984 -0.2853 -1.2113
 8013TIP3   OH248233   7.488   0.557  10.875 -0.0698  0.1594 -0.3026
 8013TIP3    H148234   7.501   0.552  10.970 -1.6092  2.4198  0.1137
 8013TIP3    H248235   7.395   0.577  10.864 -1.2871 -5.0616 -2.6101
 8014TIP3   OH248236   5.191   3.999  11.505  0.0329  0.3540 -0.2931
 8014TIP3    H148237   5.153   4.064  11.446 -0.5408  1.3741  1.1520
 8014TIP3    H248238   5.217   4.049  11.583 -0.6150 -1.1672  0.9505
 8015TIP3   OH248239   2.430   0.225  11.440  0.1481 -0.0803  0.2404
 8015TIP3    H148240   2.390   0.142  11.464 -0.3181 -0.3605 -1.4169
 8015TIP3    H248241   2.513   0.201  11.398  0.9734  0.3993  1.5217
 8016TIP3   OH248242   6.750   6.811  11.002 -0.2250 -0.1443 -0.1886
 8016TIP3    H148243   6.790   6.774  10.923 -0.2588 -0.9860  0.1786
 8016TIP3    H248244   6.793   6.896  11.013  0.7947 -0.6222 -0.3363
 8017TIP3   OH248245   3.155   3.774  12.962 -0.2415 -0.2755 -0.5731
 8017TIP3    H148246   3.154   3.863  12.997 -1.2791 -0.2470 -0.6251
 8017TIP3    H248247   3.107   3.722  13.028 -2.2325 -0.2163 -1.8907
 8018TIP3   OH248248   5.038   3.773  10.909 -0.7747 -0.2182  0.0371
 8018TIP3    H148249   5.070   3.850  10.957 -0.4665  0.1819 -0.7753
 8018TIP3    H248250   4.964   3.806  10.858  0.0065 -0.1935 -1.1209
 8019TIP3   OH248251   5.555   0.968  12.767 -0.2225 -0.0178 -0.1245
 8019TIP3    H148252   5.519   0.983  12.679  0.7250  0.0617 -0.5123
 8019TIP3    H248253   5.479   0.948  12.821 -0.8821  0.4751 -0.8486
 8020TIP3   OH248254   2.480   0.309  11.954  0.6064  0.5446 -0.0325
 8020TIP3    H148255   2.569   0.286  11.929  1.1364  0.9573  1.3699
 8020TIP3    H248256   2.447   0.361  11.880  1.1323 -0.4836 -1.0273
 8021TIP3   OH248257   0.533   4.938  13.230 -0.1156  0.0831  0.7020
 8021TIP3    H148258   0.607   4.900  13.183  1.6068  3.7560  0.1652
 8021TIP3    H248259   0.522   5.025  13.193 -1.5211  1.5440  4.1388
 8022TIP3   OH248260   2.111   4.515  11.383  0.3082  0.4659 -0.4802
 8022TIP3    H148261   2.165   4.568  11.441  1.6234 -1.5120  0.1930
 8022TIP3    H248262   2.037   4.488  11.438  1.6157 -1.5081  0.4264
 8023TIP3   OH248263   7.596   4.219  11.863  0.6430  0.0322  0.3922
 8023TIP3    H148264   7.597   4.140  11.809 -0.0879 -1.0828  1.9414
 8023TIP3    H248265   7.669   4.271  11.830  0.1149 -0.5044 -1.7713
 8024TIP3   OH248266   2.012   3.138  10.670 -0.5944  0.4477  0.3492
 8024TIP3    H148267   2.099   3.097  10.663 -1.5465 -1.5496 -0.5227
 8024TIP3    H248268   2.029   3.231  10.662  1.4842  0.1078  0.2088
 8025TIP3   OH248269   4.282   7.407  11.492 -0.5518 -0.3300 -0.2742
 8025TIP3    H148270   4.322   7.409  11.405 -2.7493  2.0531 -1.3289
 8025TIP3    H248271   4.352   7.375  11.549  1.1867 -1.2938 -2.7522
 8026TIP3   OH248272   3.500   0.182  11.801 -0.2768  0.3215 -0.2666
 8026TIP3    H148273   3.574   0.211  11.748 -0.6657  1.5422 -0.1812
 8026TIP3    H248274   3.526   0.199  11.891 -0.1077 -0.5913 -0.1318
 8027TIP3   OH248275   2.493   5.606  12.254  0.0660  0.1139  0.0922
 8027TIP3    H148276   2.455   5.530  12.298 -0.3437 -0.3058 -0.9433
 8027TIP3    H248277   2.437   5.620  12.178  1.0692  0.4503 -0.6102
 8028TIP3   OH248278   2.451   1.682  11.879 -0.2463  0.5192  0.2010
 8028TIP3    H148279   2.372   1.663  11.828  0.9158 -0.8961 -1.2044
 8028TIP3    H248280   2.522   1.673  11.816  1.2562 -1.0042  1.9916
 8029TIP3   OH248281   2.720   0.880  11.234 -0.0848  0.7995 -0.3820
 8029TIP3    H148282   2.775   0.915  11.164 -1.6871  0.9132 -1.6494
 8029TIP3    H248283   2.664   0.816  11.190 -0.3026 -0.0356  1.0478
 8030TIP3   OH248284   4.268   4.793  12.402  0.4270 -0.0594  0.1465
 8030TIP3    H148285   4.183   4.825  12.371 -0.0131 -2.5879 -1.5992
 8030TIP3    H248286   4.247   4.739  12.478  0.5382 -0.0966  0.1506
 8031TIP3   OH248287   1.577   6.326  12.057  0.2293  0.5541 -0.0773
 8031TIP3    H148288   1.549   6.240  12.027  0.2489  0.6987 -0.5304
 8031TIP3    H248289   1.649   6.349  11.998  0.9535  0.4083  0.7421
 8032TIP3   OH248290   0.331   1.884  12.403 -0.0560 -0.2235  0.4668
 8032TIP3    H148291   0.408   1.932  12.435  0.7663 -1.3298  0.2217
 8032TIP3    H248292   0.330   1.901  12.308 -0.7275  0.6172  0.6149
 8033TIP3   OH248293   6.117   4.115  12.116 -0.3355 -0.3993 -0.4585
 8033TIP3    H148294   6.174   4.068  12.176  0.5371  0.2834 -0.7335
 8033TIP3    H248295   6.162   4.198  12.100 -0.7134 -0.4310 -1.7952
 8034TIP3   OH248296   5.349   4.270  10.819 -0.6921 -0.0165  0.5452
 8034TIP3    H148297   5.374   4.242  10.731 -0.0573  0.6361  0.5119
 8034TIP3    H248298   5.373   4.362  10.822 -1.6215  0.2175  1.0730
 8035TIP3   OH248299   5.306   3.405  11.625  0.0620  0.2880  0.4266
 8035TIP3    H148300   5.225   3.429  11.580 -0.0032 -0.7571 -0.0495
 8035TIP3    H248301   5.375   3.424  11.561  0.1705  0.9090  0.7251
 8036TIP3   OH248302   1.573   0.716  10.292  0.3535 -0.9762  0.2492
 8036TIP3    H148303   1.643   0.764  10.247  0.3418 -0.8823  0.3294
 8036TIP3    H248304   1.505   0.782  10.307  1.6350 -0.1556  3.2542
 8037TIP3   OH248305   4.037   1.441  12.148 -0.1308  0.4012 -0.0044
 8037TIP3    H148306   4.117   1.418  12.101  0.3856  0.4071  0.8409
 8037TIP3    H248307   4.066   1.505  12.214 -1.2418  2.3387 -1.2775
 8038TIP3   OH248308   5.141   7.065  11.578 -0.5047 -0.4299 -0.3834
 8038TIP3    H148309   5.092   7.030  11.503 -0.8184  0.9199 -0.8353
 8038TIP3    H248310   5.112   7.156  11.585 -1.2139 -0.7795  1.9954
 8039TIP3   OH248311   1.320   0.210  11.915  0.1385 -0.3555 -0.0970
 8039TIP3    H148312   1.354   0.158  11.988  1.5588  0.0708 -0.4288
 8039TIP3    H248313   1.282   0.146  11.856 -1.1747 -0.6973  1.0613
 8040TIP3   OH248314   7.437   0.159  11.824  0.1182  0.1055  0.1578
 8040TIP3    H148315   7.372   0.134  11.759 -0.3261  0.5649  0.4144
 8040TIP3    H248316   7.489   0.080  11.838 -1.5432 -0.8674  1.2926
 8041TIP3   OH248317   4.341   1.982  11.006  0.0972 -0.2963  1.0343
 8041TIP3    H148318   4.365   1.963  10.915 -0.6610 -0.9791  0.9649
 8041TIP3    H248319   4.306   2.071  11.003 -3.7455 -1.6159 -0.1757
 8042TIP3   OH248320   4.143   0.263  10.625 -0.2115  0.6898  0.4693
 8042TIP3    H148321   4.212   0.325  10.600 -0.4807  0.7920 -0.0176
 8042TIP3    H248322   4.075   0.275  10.560 -0.1001 -0.4026  0.1374
 8043TIP3   OH248323   1.010   7.450  11.863 -0.3170  0.1053 -0.1141
 8043TIP3    H148324   1.013   7.389  11.789  1.7164  1.1620 -0.9902
 8043TIP3    H248325   1.077   7.417  11.923 -0.9483  0.0848  0.5896
 8044TIP3   OH248326   3.091   3.455  10.832  0.3521  0.1369 -0.2307
 8044TIP3    H148327   3.047   3.465  10.917  0.5657  0.8418 -0.1931
 8044TIP3    H248328   3.182   3.436  10.853 -0.3624 -4.5483 -0.2411
 8045TIP3   OH248329   7.639   0.837  10.764  0.7053 -0.1897 -0.4696
 8045TIP3    H148330   7.668   0.749  10.740 -1.1251 -0.4379 -2.0421
 8045TIP3    H248331   7.573   0.859  10.698 -1.2644  1.0604  1.7659
 8046TIP3   OH248332   2.864   2.121  11.887  0.2042 -0.5210 -0.2376
 8046TIP3    H148333   2.958   2.107  11.874  0.1200 -1.1728 -0.2029
 8046TIP3    H248334   2.852   2.215  11.875  1.1206 -0.1593  1.2941
 8047TIP3   OH248335   7.315   0.080  12.388  0.2755  0.3360  0.2042
 8047TIP3    H148336   7.258   0.031  12.447 -0.7420  2.2406  0.9154
 8047TIP3    H248337   7.319   0.168  12.427  0.3920  1.3781 -2.0092
 8048TIP3   OH248338   7.328   4.576  12.749  0.7496  0.1486 -0.0037
 8048TIP3    H148339   7.370   4.575  12.663 -1.1701 -1.4491 -0.9872
 8048TIP3    H248340   7.367   4.652  12.793  3.2793 -0.1853 -1.4753
 8049TIP3   OH248341   2.090   5.625  11.846 -0.4814  0.3232 -0.3605
 8049TIP3    H148342   2.117   5.542  11.807  0.6452  1.1083 -1.3376
 8049TIP3    H248343   2.017   5.655  11.791  0.2508  0.7948 -1.1068
 8050TIP3   OH248344   5.771   4.093  11.169  0.1961 -0.2290  0.4043
 8050TIP3    H148345   5.709   4.106  11.097  0.8975  1.7962  0.1029
 8050TIP3    H248346   5.790   3.999  11.168 -2.4004 -0.8416  0.1547
 8051TIP3   OH248347   4.490   6.233  10.906  0.0502 -0.4109  0.1040
 8051TIP3    H148348   4.554   6.234  10.835 -0.1789 -0.7900 -0.1145
 8051TIP3    H248349   4.408   6.259  10.864  0.2647  1.2471  0.6062
 8052TIP3   OH248350   0.952   3.396  11.035  0.2667 -0.5053 -0.1386
 8052TIP3    H148351   1.026   3.385  10.976 -0.1273 -0.2417 -0.6920
 8052TIP3    H248352   0.892   3.454  10.988  0.4264  0.6154  0.9748
 8053TIP3   OH248353   0.432   5.777  12.055  0.3185 -0.2676 -0.3758
 8053TIP3    H148354   0.365   5.730  12.106 -0.1285  2.5939  2.0018
 8053TIP3    H248355   0.511   5.771  12.109 -0.4736  3.8943  1.7267
 8054TIP3   OH248356   3.369   5.715  12.177 -0.1394 -0.3395 -0.2495
 8054TIP3    H148357   3.405   5.633  12.143 -0.4095 -0.7238  0.3763
 8054TIP3    H248358   3.446   5.764  12.207  0.2530  0.5746 -2.5452
 8055TIP3   OH248359   5.089   7.442  11.064  0.2178 -0.6072 -0.4863
 8055TIP3    H148360   5.087   7.538  11.071  1.5463 -0.5643 -0.3958
 8055TIP3    H248361   5.134   7.414  11.143 -0.1097 -1.3053 -0.5486
 8056TIP3   OH248362   4.511   0.814  11.366 -0.1541  0.7084  0.1115
 8056TIP3    H148363   4.539   0.773  11.284 -1.4009  1.9566 -1.0104
 8056TIP3    H248364   4.557   0.765  11.434  0.8089 -0.4861 -1.3056
 8057TIP3   OH248365   7.401   2.622  13.156  0.1651  0.0727  0.2213
 8057TIP3    H148366   7.409   2.718  13.151  1.1323 -0.0704 -2.9670
 8057TIP3    H248367   7.461   2.597  13.227  0.6226  1.7447  0.4700
 8058TIP3   OH248368   3.568   6.622  11.003  0.1494  0.4202  0.1300
 8058TIP3    H148369   3.505   6.600  10.934  0.8066  0.0841 -0.3779
 8058TIP3    H248370   3.515   6.660  11.073 -0.5738  0.4539 -0.4229
 8059TIP3   OH248371   6.107   1.411  10.921 -0.7322  0.2150 -0.2541
 8059TIP3    H148372   6.175   1.343  10.917 -1.7317 -0.8318  0.1187
 8059TIP3    H248373   6.120   1.452  11.006 -2.0383 -1.6155  0.9048
 8060TIP3   OH248374   5.656   7.600  12.852  1.1238 -0.7104 -0.1479
 8060TIP3    H148375   5.741   7.563  12.878  0.9364  0.7430  3.0316
 8060TIP3    H248376   5.593   7.561  12.913 -0.4573 -1.2976 -2.0519
 8061TIP3   OH248377   3.668   4.491  10.788 -0.3519 -0.5137  0.6460
 8061TIP3    H148378   3.674   4.539  10.706 -1.1254 -0.8813  0.3598
 8061TIP3    H248379   3.585   4.444  10.782  0.0333 -1.2949  1.2317
 8062TIP3   OH248380   1.073   5.775  11.747  0.5032  0.3029  0.0712
 8062TIP3    H148381   1.108   5.862  11.768 -1.5671  1.3861 -0.6189
 8062TIP3    H248382   1.081   5.769  11.652 -2.2440  1.1985 -0.3159
 8063TIP3   OH248383   1.846   1.680  10.678 -0.3252  0.3327 -0.3617
 8063TIP3    H148384   1.755   1.650  10.684  0.7290 -2.8913  2.3525
 8063TIP3    H248385   1.839   1.771  10.647 -4.4255  0.2205 -0.2855
 8064TIP3   OH248386   3.695   2.372  11.262  0.3532 -0.0708  0.3221
 8064TIP3    H148387   3.653   2.371  11.176 -0.4614  1.9085  0.6324
 8064TIP3    H248388   3.690   2.282  11.293 -0.4628 -0.5673 -1.1834
 8065TIP3   OH248389   4.367   5.928  12.628  0.4031  0.2417  0.9149
 8065TIP3    H148390   4.450   5.923  12.674  0.2388 -0.1318  1.1788
 8065TIP3    H248391   4.303   5.893  12.690  0.1101  0.1717  0.5795
 8066TIP3   OH248392   2.321   1.490  12.047 -0.3190 -0.2182  0.0240
 8066TIP3    H148393   2.375   1.566  12.030 -0.7863  0.2433  0.5600
 8066TIP3    H248394   2.367   1.417  12.006  0.9515  0.0870  0.8623
 8067TIP3   OH248395   2.298   6.010  12.898  0.1242 -0.3466 -0.0317
 8067TIP3    H148396   2.362   6.081  12.904 -1.7232  1.4156 -0.1534
 8067TIP3    H248397   2.257   6.021  12.812 -0.0491 -1.7355 -0.1583
 8068TIP3   OH248398   6.159   6.795  12.640 -0.1562  0.0000 -0.6332
 8068TIP3    H148399   6.157   6.791  12.544  0.9844 -0.4799 -0.6544
 8068TIP3    H248400   6.086   6.740  12.667 -0.3856 -0.0017 -1.2272
 8069TIP3   OH248401   5.286   3.423  12.448  0.5516 -0.3299 -0.0629
 8069TIP3    H148402   5.237   3.449  12.370  0.5810  0.5247  0.1956
 8069TIP3    H248403   5.360   3.483  12.451  1.2466 -1.1679 -0.0626
 8070TIP3   OH248404   6.398   4.292  13.264 -0.4572  0.2726 -0.4708
 8070TIP3    H148405   6.372   4.218  13.319 -1.4452 -0.1459 -1.4653
 8070TIP3    H248406   6.431   4.358  13.326  0.6799 -1.0694  0.4127
 8071TIP3   OH248407   0.587   6.783  10.935  0.5041  0.5887  0.1180
 8071TIP3    H148408   0.624   6.740  10.857 -0.1496 -0.3057  0.2889
 8071TIP3    H248409   0.645   6.755  11.006 -0.7658 -1.2701  0.4795
 8072TIP3   OH248410   5.185   3.048  11.722 -0.2758 -0.2132 -0.0398
 8072TIP3    H148411   5.116   3.089  11.773  1.2496  2.9208 -0.2211
 8072TIP3    H248412   5.147   3.034  11.636 -0.9065  0.8546  0.0503
 8073TIP3   OH248413   0.232   4.399  11.240 -0.2977 -0.4989  0.0072
 8073TIP3    H148414   0.169   4.327  11.233  0.8124 -1.4735 -0.2486
 8073TIP3    H248415   0.283   4.394  11.159 -0.6760  1.0643 -0.3597
 8074TIP3   OH248416   5.608   0.763  11.995 -0.3999 -0.3267  0.3905
 8074TIP3    H148417   5.520   0.794  12.016 -0.1245  0.3202  0.5924
 8074TIP3    H248418   5.594   0.695  11.929 -1.1023 -0.7744  0.9940
 8075TIP3   OH248419   2.029   0.382  10.884  0.1203 -0.4867 -0.2891
 8075TIP3    H148420   2.011   0.310  10.824 -0.5995 -2.6103  2.2900
 8075TIP3    H248421   1.957   0.444  10.870 -0.3229 -1.1839 -1.1936
 8076TIP3   OH248422   2.707   5.397  10.508  0.3979 -0.1791 -0.2213
 8076TIP3    H148423   2.713   5.484  10.468 -1.2154  0.1758  0.2510
 8076TIP3    H248424   2.790   5.387  10.555  0.5263  1.1949 -0.1102
 8077TIP3   OH248425   6.863   6.192  11.747 -0.2783  0.0482 -0.1452
 8077TIP3    H148426   6.812   6.232  11.677  0.1035  2.1779  0.7156
 8077TIP3    H248427   6.859   6.255  11.819  3.5021  0.4019 -0.0044
 8078TIP3   OH248428   1.673   6.212  10.626  0.2742  0.7800 -0.0011
 8078TIP3    H148429   1.673   6.220  10.531 -0.2758  0.1350 -0.0602
 8078TIP3    H248430   1.582   6.195  10.649  0.4522  0.6199  0.6083
 8079TIP3   OH248431   0.050   3.518  12.290  0.3677  0.0587 -0.1262
 8079TIP3    H148432  -0.011   3.592  12.289  0.9219  0.5751  1.3858
 8079TIP3    H248433  -0.002   3.443  12.262 -0.3027  0.9434 -1.3259
 8080TIP3   OH248434   0.888   1.085  10.644  0.3954  0.2436 -0.2234
 8080TIP3    H148435   0.794   1.103  10.640  0.1346 -1.0578 -0.4614
 8080TIP3    H248436   0.928   1.158  10.598 -0.2437  2.4217  2.4222
 8081TIP3   OH248437   5.786   5.538  12.755  1.1733  0.0988  0.1764
 8081TIP3    H148438   5.800   5.469  12.690 -0.7422  1.5699 -1.9602
 8081TIP3    H248439   5.727   5.498  12.819  0.1545 -0.3171 -0.9842
 8082TIP3   OH248440   0.798   5.302  12.822  0.4726 -0.0606 -0.1871
 8082TIP3    H148441   0.846   5.368  12.873  0.9581 -0.9869  0.5987
 8082TIP3    H248442   0.718   5.287  12.873  0.6929 -0.5803  0.0065
 8083TIP3   OH248443   1.705   0.466  11.116  0.1900  0.4648 -0.4648
 8083TIP3    H148444   1.780   0.484  11.173  0.3656 -0.7773 -0.2782
 8083TIP3    H248445   1.714   0.373  11.093 -2.8049 -0.5297  1.8507
 8084TIP3   OH248446   2.939   0.227  10.767  0.3736 -0.0209  0.5181
 8084TIP3    H148447   2.950   0.194  10.856  1.0231 -0.4418  0.2879
 8084TIP3    H248448   2.999   0.175  10.714 -2.3125 -2.0063 -0.7552
 8085TIP3   OH248449   3.570   6.919  10.524 -0.4903  0.0160  0.3979
 8085TIP3    H148450   3.598   6.850  10.464 -0.9874 -1.2149  1.5305
 8085TIP3    H248451   3.563   6.875  10.609 -1.0486  1.4165  1.1046
 8086TIP3   OH248452   3.478   6.500  12.648 -0.1036  0.6724 -0.5492
 8086TIP3    H148453   3.567   6.523  12.621  1.0601  0.0433  2.4258
 8086TIP3    H248454   3.469   6.407  12.623  1.2341 -0.1208  1.6683
 8087TIP3   OH248455   7.521   7.234  10.859 -0.5933  0.0709  0.2001
 8087TIP3    H148456   7.484   7.182  10.787 -0.4482  1.0717 -0.6161
 8087TIP3    H248457   7.550   7.315  10.818 -0.3967  0.6194  1.3803
 8088TIP3   OH248458   6.856   5.937  10.761 -0.2057 -0.1176 -0.1408
 8088TIP3    H148459   6.817   5.974  10.682  1.0158 -1.4090 -1.4003
 8088TIP3    H248460   6.807   5.856  10.777 -1.7676  1.0904  1.6406
 8089TIP3   OH248461   0.019   4.451  12.849 -0.1416 -0.4138 -0.0409
 8089TIP3    H148462  -0.032   4.512  12.901  3.4824  2.2487  0.8348
 8089TIP3    H248463   0.070   4.401  12.913  0.6804 -0.7218 -0.8980
 8090TIP3   OH248464   2.696   4.947  11.310  0.0658  0.1060  0.0945
 8090TIP3    H148465   2.744   5.001  11.373  1.4734  0.5885 -1.3327
 8090TIP3    H248466   2.751   4.869  11.298  0.4541  0.5766 -1.4176
 8091TIP3   OH248467   1.644   4.409  12.095 -0.0649  0.7100  0.3535
 8091TIP3    H148468   1.611   4.322  12.118 -0.4878  0.2300 -1.8526
 8091TIP3    H248469   1.588   4.470  12.144 -0.3258 -0.2238  1.2515
 8092TIP3   OH248470   2.980   2.923  11.361  0.7761 -0.5927  0.5844
 8092TIP3    H148471   3.033   2.997  11.332 -0.1967 -0.4303 -0.8499
 8092TIP3    H248472   2.982   2.861  11.288 -1.0431 -0.5492  0.4590
 8093TIP3   OH248473   7.578   2.583  12.767 -0.0103  0.1957 -0.3561
 8093TIP3    H148474   7.585   2.527  12.845 -0.3432  0.0192 -0.4494
 8093TIP3    H248475   7.516   2.651  12.792  1.2161  1.1569  0.1254
 8094TIP3   OH248476   1.876   2.988  12.071 -0.3797  0.8184 -0.2364
 8094TIP3    H148477   1.945   3.051  12.052  0.8681 -0.2904  0.4879
 8094TIP3    H248478   1.922   2.907  12.090 -1.9113 -0.0654 -0.1444
 8095TIP3   OH248479   0.034   1.030  12.494 -0.0650 -0.2227 -0.6802
 8095TIP3    H148480  -0.038   1.089  12.474 -0.6345 -1.0425 -1.1037
 8095TIP3    H248481   0.098   1.085  12.540 -0.9639  0.5034 -0.2617
 8096TIP3   OH248482   1.446   3.079  12.439 -0.5286  0.0429  0.2254
 8096TIP3    H148483   1.449   3.046  12.349  0.2062 -0.7744  0.5307
 8096TIP3    H248484   1.474   3.005  12.492 -1.8973  0.2004  1.2279
 8097TIP3   OH248485   3.961   7.679  11.882 -0.0547 -0.2230  0.1736
 8097TIP3    H148486   3.880   7.679  11.831 -0.3059  0.5337  0.5532
 8097TIP3    H248487   4.024   7.632  11.827 -1.1619 -2.2747  0.5633
 8098TIP3   OH248488   1.306   6.267  11.647 -0.3788 -0.9086  0.2798
 8098TIP3    H148489   1.353   6.214  11.710  2.0784  0.8950  0.1045
 8098TIP3    H248490   1.281   6.346  11.695  0.7313  0.0890 -0.7059
 8099TIP3   OH248491   6.878   1.795  11.935 -0.0258 -0.3922 -0.3471
 8099TIP3    H148492   6.828   1.788  11.854 -0.9839 -0.0836  0.2046
 8099TIP3    H248493   6.930   1.714  11.938 -0.8133 -0.9248 -0.7215
 8100TIP3   OH248494   5.730   3.147  13.749 -0.2016  0.0519  0.5231
 8100TIP3    H148495   5.658   3.210  13.759 -0.1526 -0.0793  1.9486
 8100TIP3    H248496   5.805   3.200  13.721 -0.3630  0.4946  0.9191
 8101TIP3   OH248497   2.722   0.425  12.107  0.0369  0.0267 -0.4441
 8101TIP3    H148498   2.651   0.366  12.083  0.7544 -1.2114  0.3273
 8101TIP3    H248499   2.795   0.367  12.130  0.4956  1.1646  1.2439
 8102TIP3   OH248500   2.927   2.537  11.460 -0.1180 -0.3863  0.1806
 8102TIP3    H148501   2.996   2.586  11.505 -0.4094  0.7520 -0.5639
 8102TIP3    H248502   2.954   2.445  11.467  0.5515 -0.1174  1.4233
 8103TIP3   OH248503   2.277   5.468  12.717  0.6735 -0.6231 -0.1256
 8103TIP3    H148504   2.186   5.498  12.717  0.8413  0.1686 -2.8268
 8103TIP3    H248505   2.272   5.374  12.704  0.1911 -0.4092 -1.7181
 8104TIP3   OH248506   3.337   1.174  10.729  0.6658 -0.2605  0.4513
 8104TIP3    H148507   3.248   1.186  10.695  1.6832  2.3831 -1.5954
 8104TIP3    H248508   3.356   1.256  10.774  2.6960 -0.0255 -0.7454
 8105TIP3   OH248509   3.220   1.989  11.228 -0.0206 -0.1143  0.1411
 8105TIP3    H148510   3.146   2.021  11.278  0.1077  0.4645 -0.0341
 8105TIP3    H248511   3.259   2.067  11.189  0.1636 -0.5000 -0.4748
 8106TIP3   OH248512   2.405   3.175  12.044  0.0629  0.1655  0.2226
 8106TIP3    H148513   2.377   3.239  11.979  0.9011  1.1914  0.8256
 8106TIP3    H248514   2.478   3.128  12.003  0.8265  1.0562  0.5297
 8107TIP3   OH248515   7.226   2.996  11.159  0.0550 -0.3603 -0.6698
 8107TIP3    H148516   7.268   2.911  11.153  1.5722  0.3847 -1.1914
 8107TIP3    H248517   7.156   2.993  11.095  0.9737 -0.7627 -1.6913
 8108TIP3   OH248518   7.200   4.031  11.313 -0.4940 -0.4603 -0.7184
 8108TIP3    H148519   7.148   3.957  11.281 -1.4320  0.4722 -1.3889
 8108TIP3    H248520   7.218   4.084  11.235  0.1118  0.0732 -0.2317
 8109TIP3   OH248521   4.702   0.285  13.877  0.4001 -0.4714  0.0299
 8109TIP3    H148522   4.763   0.291  13.803  0.2601  2.3254  0.0623
 8109TIP3    H248523   4.620   0.321  13.843  0.2187  0.4696  1.4097
 8110TIP3   OH248524   7.051   3.435  10.708 -0.1077 -0.0453 -0.0415
 8110TIP3    H148525   7.124   3.375  10.694 -1.4103 -1.4773 -1.0886
 8110TIP3    H248526   7.031   3.427  10.802 -1.1423 -2.4219 -0.3798
 8111TIP3   OH248527   1.699   4.003  12.417 -0.4225 -0.1230  0.2326
 8111TIP3    H148528   1.709   3.947  12.340  0.1354 -0.0399  0.2381
 8111TIP3    H248529   1.691   3.943  12.490 -0.3648 -0.1995  0.1762
 8112TIP3   OH248530   6.853   7.391  11.335  0.1402  0.1079  0.0548
 8112TIP3    H148531   6.830   7.307  11.374 -0.9310 -0.8393 -2.3813
 8112TIP3    H248532   6.776   7.446  11.349  0.4111  0.3276  0.6975
 8113TIP3   OH248533   6.241   4.944  13.190 -0.2878 -0.2889  0.6066
 8113TIP3    H148534   6.320   4.934  13.244  0.9312  0.5761 -0.9473
 8113TIP3    H248535   6.182   4.997  13.244  0.4818 -0.3352  1.5187
 8114TIP3   OH248536   5.014   2.928  11.960 -0.4806 -0.0676  0.5535
 8114TIP3    H148537   4.925   2.953  11.934 -0.8714 -1.5173  0.4181
 8114TIP3    H248538   5.006   2.904  12.052 -0.0227  0.6444  0.7947
 8115TIP3   OH248539   1.868   1.143  10.517  0.4027  0.7496  0.0230
 8115TIP3    H148540   1.830   1.057  10.533 -0.5556  1.1571  0.0368
 8115TIP3    H248541   1.944   1.127  10.461  2.0829 -0.4238  2.4798
 8116TIP3   OH248542   2.392   3.709  11.148 -0.5504 -0.2742  0.3519
 8116TIP3    H148543   2.381   3.656  11.069 -1.1473 -0.3469  0.4785
 8116TIP3    H248544   2.451   3.659  11.203 -0.2115 -0.2717 -0.0043
 8117TIP3   OH248545   5.581   7.601  11.198 -0.2367  0.2464  0.1283
 8117TIP3    H148546   5.653   7.631  11.254  0.3048  0.1796 -0.5290
 8117TIP3    H248547   5.584   7.506  11.205  0.1307  0.2155 -0.3726
 8118TIP3   OH248548   2.204   2.303  10.985 -0.3131  0.6607  0.1461
 8118TIP3    H148549   2.218   2.381  11.040 -0.7296  0.6310  0.3012
 8118TIP3    H248550   2.121   2.320  10.941  0.7314  1.3613 -1.6557
 8119TIP3   OH248551   0.607   2.418  13.128  0.8370 -0.1016 -0.5930
 8119TIP3    H148552   0.601   2.456  13.216  1.1613  1.3888 -1.1839
 8119TIP3    H248553   0.521   2.380  13.113  0.8884 -0.7096  0.4964
 8120TIP3   OH248554   1.920   1.963  12.699 -0.1615  0.4457  0.0794
 8120TIP3    H148555   1.901   1.952  12.793 -0.7054  1.5727  0.1234
 8120TIP3    H248556   1.912   1.875  12.663 -1.8202  0.2706  0.7736
 8121TIP3   OH248557   4.422   4.421  10.847 -0.1078  0.2036  0.4781
 8121TIP3    H148558   4.457   4.507  10.868 -1.1899  0.9946 -0.7935
 8121TIP3    H248559   4.439   4.368  10.925 -1.2718  2.1322  2.1378
 8122TIP3   OH248560   1.825   2.492  17.565  0.1098  0.2612 -0.1322
 8122TIP3    H148561   1.761   2.433  17.605 -0.3028 -0.3599 -1.6279
 8122TIP3    H248562   1.783   2.520  17.483  0.6230  2.0209  0.1586
 8123TIP3   OH248563   4.383   1.161  10.965 -0.1857  0.0601 -0.0439
 8123TIP3    H148564   4.398   1.091  10.902 -1.5702 -0.8430  0.5985
 8123TIP3    H248565   4.305   1.135  11.014  1.7914 -0.1885  3.3080
 8124TIP3   OH248566   3.059   7.433  10.611 -0.0970  0.3913 -0.0752
 8124TIP3    H148567   3.146   7.398  10.632  0.0281  0.0015 -1.1428
 8124TIP3    H248568   2.999   7.380  10.662  0.2232 -0.0992 -0.1997
 8125TIP3   OH248569   1.397   3.056  11.008 -0.4939 -0.9339 -0.4877
 8125TIP3    H148570   1.436   2.972  11.033  2.3753  0.4331 -0.0404
 8125TIP3    H248571   1.460   3.122  11.036 -2.7040  1.4352 -0.7001
 8126TIP3   OH248572   1.364   3.404  11.890 -0.5136 -0.1529  0.1345
 8126TIP3    H148573   1.458   3.411  11.875 -0.3356  1.2787  1.5664
 8126TIP3    H248574   1.356   3.334  11.956 -0.2661  0.8337  1.2411
 8127TIP3   OH248575   4.644   7.088  10.854  0.0453 -0.1795 -0.4594
 8127TIP3    H148576   4.678   7.134  10.931  0.4058 -2.0304  0.5467
 8127TIP3    H248577   4.567   7.041  10.886 -0.5273 -0.0208 -1.5435
 8128TIP3   OH248578   3.079   0.565  12.108 -0.0413  0.3410 -0.2092
 8128TIP3    H148579   2.997   0.584  12.063 -0.3303  0.3759  0.3236
 8128TIP3    H248580   3.133   0.522  12.042 -0.7813 -0.3992 -0.3520
 8129TIP3   OH248581   6.360   5.991  11.308  0.5644 -0.1324  0.3153
 8129TIP3    H148582   6.375   5.912  11.360  1.5514  0.9921  1.8352
 8129TIP3    H248583   6.446   6.013  11.272  0.6436  1.0402  1.1461
 8130TIP3   OH248584   2.704   4.457  10.983  0.4669  0.0985 -0.4841
 8130TIP3    H148585   2.669   4.543  10.959 -0.0579 -0.3600 -1.3758
 8130TIP3    H248586   2.627   4.400  10.990  0.9281 -0.6737 -1.4604
 8131TIP3   OH248587   5.965   1.040  12.817 -0.6133 -0.4028 -0.1315
 8131TIP3    H148588   5.885   0.994  12.843 -0.6641  0.2994  0.9835
 8131TIP3    H248589   5.971   1.114  12.876  0.2846  0.1857 -0.9310
 8132TIP3   OH248590   0.695   2.806  11.844 -0.2167 -0.0852  0.1288
 8132TIP3    H148591   0.714   2.762  11.927 -0.7587  0.8730  0.7905
 8132TIP3    H248592   0.724   2.745  11.777  0.1984 -0.9045  1.0247
 8133TIP3   OH248593   3.149   2.881  12.544  0.5072 -0.0090 -0.0977
 8133TIP3    H148594   3.154   2.899  12.450  1.2744 -1.3039 -0.3275
 8133TIP3    H248595   3.061   2.846  12.556  0.9359 -1.3465 -0.6436
 8134TIP3   OH248596   7.594   3.114  19.217  0.3575  0.0156  0.6203
 8134TIP3    H148597   7.546   3.032  19.204 -0.5110  0.4039  1.3382
 8134TIP3    H248598   7.684   3.092  19.195  0.2195 -1.2630  1.2436
 8135TIP3   OH248599   2.276   0.181  10.802 -0.2007 -0.5203  0.8454
 8135TIP3    H148600   2.291   0.241  10.874 -1.9582  0.9659  0.0433
 8135TIP3    H248601   2.249   0.236  10.729 -0.8606 -2.1924 -0.2422
 8136TIP3   OH248602   0.021   2.722  11.365  0.1586  0.2390 -0.0444
 8136TIP3    H148603  -0.024   2.661  11.307  0.1961 -1.5195  1.6819
 8136TIP3    H248604  -0.050   2.768  11.410  0.0757 -0.4265  0.5304
 8137TIP3   OH248605   2.331   0.826  12.862 -0.4427 -0.0967 -0.3793
 8137TIP3    H148606   2.321   0.734  12.887 -1.6672  0.6367  2.1150
 8137TIP3    H248607   2.417   0.851  12.896 -0.8001  0.0793  0.4241
 8138TIP3   OH248608   1.883   7.587  11.819  0.4540  0.0024  0.2149
 8138TIP3    H148609   1.898   7.497  11.847 -0.5976 -0.5460 -0.9022
 8138TIP3    H248610   1.969   7.628  11.822  0.6811 -0.4871  2.5209
 8139TIP3   OH248611   6.508   6.747  11.099 -0.0916 -0.1149  0.4779
 8139TIP3    H148612   6.483   6.709  11.015 -0.6368 -2.9999  1.7919
 8139TIP3    H248613   6.592   6.790  11.082 -0.6862  0.2777 -1.7309
 8140TIP3   OH248614   7.045   6.457  12.336  0.2597  0.2093 -0.1373
 8140TIP3    H148615   7.091   6.520  12.391  0.1582 -0.4512  0.7225
 8140TIP3    H248616   7.093   6.375  12.348 -1.0247 -0.4572  0.6651
 8141TIP3   OH248617   2.867   1.147  12.213  0.1123 -0.0777  0.4907
 8141TIP3    H148618   2.930   1.076  12.224  0.8015  0.6032  0.9865
 8141TIP3    H248619   2.812   1.143  12.291 -0.4634 -0.6629  0.0649
 8142TIP3   OH248620   5.317   5.049  11.563  0.3515  0.2083 -0.0975
 8142TIP3    H148621   5.367   4.969  11.544  0.3721  0.3594 -0.6894
 8142TIP3    H248622   5.349   5.113  11.499  0.2197  0.6486  0.2678
 8143TIP3   OH248623   3.406   7.285  12.356  0.2931 -0.4261  0.2483
 8143TIP3    H148624   3.459   7.287  12.277 -0.6968 -0.0572 -0.4261
 8143TIP3    H248625   3.399   7.192  12.378 -1.2619 -0.7445 -1.3994
 8144TIP3   OH248626   0.221   3.116  11.273  0.4591  0.1845 -0.6122
 8144TIP3    H148627   0.160   3.146  11.340 -0.5883 -5.0891  1.1941
 8144TIP3    H248628   0.283   3.189  11.263 -2.6691  3.5011  1.7130
 8145TIP3   OH248629   2.528   1.331  10.979 -0.0572  0.5492 -0.2529
 8145TIP3    H148630   2.586   1.362  11.049 -0.5518  0.6792  0.1066
 8145TIP3    H248631   2.455   1.392  10.979 -0.5823 -0.0641 -0.1663
 8146TIP3   OH248632   7.092   2.627  12.360  0.3067 -0.0050  0.2791
 8146TIP3    H148633   7.034   2.620  12.285  0.3190  1.3361  0.1241
 8146TIP3    H248634   7.180   2.636  12.322  0.2437  1.3710  0.4052
 8147TIP3   OH248635   3.140   2.024  13.304  0.0554 -0.1689 -0.3290
 8147TIP3    H148636   3.120   1.999  13.394  0.4560  1.4353  0.2442
 8147TIP3    H248637   3.058   2.008  13.255 -0.0666 -1.3404  0.2328
 8148TIP3   OH248638   5.674   3.295  10.656  0.0723 -0.3845 -0.0470
 8148TIP3    H148639   5.738   3.249  10.602  0.1661 -0.9870  0.5645
 8148TIP3    H248640   5.723   3.369  10.693 -0.1164  0.3137 -1.1395
 8149TIP3   OH248641   0.465   3.124  11.954 -0.3971  0.5642  0.0515
 8149TIP3    H148642   0.547   3.103  11.909 -0.2259  1.2603  0.0170
 8149TIP3    H248643   0.468   3.219  11.965 -0.9024  0.5218  0.6338
 8150TIP3   OH248644   6.062   3.817  10.683  0.0450  0.5345 -0.5319
 8150TIP3    H148645   6.107   3.816  10.767  0.7024  1.3948 -0.8554
 8150TIP3    H248646   6.036   3.908  10.670 -0.5425  0.3105 -1.0065
 8151TIP3   OH248647   3.594   5.788  13.828  0.0803 -0.3270  0.1034
 8151TIP3    H148648   3.554   5.722  13.771 -0.9106  0.6843 -0.3899
 8151TIP3    H248649   3.523   5.849  13.848  0.4547 -0.5423  2.2760
 8152TIP3   OH248650   4.770   1.298  10.856  0.2776  0.0201 -0.2034
 8152TIP3    H148651   4.791   1.239  10.784  1.4289  0.5112 -0.2964
 8152TIP3    H248652   4.802   1.253  10.934  0.9929  0.4147 -0.2551
 8153TIP3   OH248653   3.316   1.053  11.019  0.2644 -0.5733  0.1242
 8153TIP3    H148654   3.292   1.093  10.936 -0.3232  2.1116  1.4718
 8153TIP3    H248655   3.411   1.059  11.023  0.1561  1.8010  0.7058
 8154TIP3   OH248656   0.030   4.649  11.731  0.1021 -0.0329 -0.2372
 8154TIP3    H148657  -0.008   4.717  11.675 -0.0693 -0.8629 -1.1645
 8154TIP3    H248658  -0.046   4.604  11.768  0.2152  0.3115  0.4199
 8155TIP3   OH248659   6.765   1.475  13.172  0.7768 -0.4026 -0.0261
 8155TIP3    H148660   6.744   1.563  13.140  0.4944 -0.6039 -0.4013
 8155TIP3    H248661   6.804   1.490  13.258  0.3637  0.0682  0.0847
 8156TIP3   OH248662   0.505   3.896  11.038  0.2688  0.1760 -0.2366
 8156TIP3    H148663   0.555   3.977  11.027  0.4208  0.3523  1.4184
 8156TIP3    H248664   0.572   3.828  11.043  0.2247  0.1278 -0.3161
 8157TIP3   OH248665   4.769   4.690  11.680  0.2572 -0.4058  0.4269
 8157TIP3    H148666   4.822   4.672  11.603 -0.1211  0.5646 -0.0841
 8157TIP3    H248667   4.723   4.608  11.699 -0.5704 -0.3306 -1.1144
 8158TIP3   OH248668   2.591   7.570  11.284 -0.0502  0.3885  0.3846
 8158TIP3    H148669   2.597   7.665  11.291 -0.0993  0.3783  0.5479
 8158TIP3    H248670   2.502   7.549  11.309 -0.5746  0.4547 -1.2753
 8159TIP3   OH248671   1.878   4.194  12.327 -0.3525 -0.2162  0.0242
 8159TIP3    H148672   1.831   4.121  12.369  1.5962 -2.0698 -0.8552
 8159TIP3    H248673   1.875   4.174  12.234 -0.1770  1.1053 -0.2811
 8160TIP3   OH248674   6.993   5.473  12.657  1.0772  0.2752  0.2740
 8160TIP3    H148675   6.944   5.473  12.575  0.5941 -1.5245  0.5168
 8160TIP3    H248676   7.053   5.548  12.650 -0.7425  1.7154 -0.5965
 8161TIP3   OH248677   1.975   5.800  11.627 -0.4383  0.3513  0.0314
 8161TIP3    H148678   1.917   5.872  11.601  0.2730  0.2976 -1.9302
 8161TIP3    H248679   2.057   5.819  11.582  0.6055 -0.3373  1.5859
 8162TIP3   OH248680   2.610   2.828  11.152 -0.4292  0.2105 -0.8052
 8162TIP3    H148681   2.663   2.750  11.169  0.8188  1.1148 -0.4068
 8162TIP3    H248682   2.591   2.824  11.058  0.2664 -0.1857 -0.9345
 8163TIP3   OH248683   6.731   0.801  11.223  0.8129 -0.0611 -0.4522
 8163TIP3    H148684   6.706   0.849  11.143  1.0412  0.6286 -0.1195
 8163TIP3    H248685   6.739   0.710  11.195 -0.6302 -0.0772 -0.8848
 8164TIP3   OH248686   1.034   2.580  13.059 -0.2331  0.2857  0.3293
 8164TIP3    H148687   1.088   2.629  13.121 -0.4101  0.6000  0.2316
 8164TIP3    H248688   0.962   2.638  13.038 -0.3529  0.0493  0.0830
 8165TIP3   OH248689   5.110   6.377  11.657  0.7014  0.0197  0.0613
 8165TIP3    H148690   5.111   6.434  11.734  1.4938  0.2894 -0.1325
 8165TIP3    H248691   5.155   6.428  11.590  1.2368 -0.7501 -0.1735
 8166TIP3   OH248692   7.042   0.817  11.625  0.3559 -0.2143 -0.1060
 8166TIP3    H148693   7.021   0.828  11.532  0.2937 -0.3637 -0.1091
 8166TIP3    H248694   7.135   0.795  11.626  0.5697  0.6743 -0.0771
 8167TIP3   OH248695   1.720   0.162  12.670 -0.2144 -0.1736  0.4750
 8167TIP3    H148696   1.804   0.207  12.664 -0.0362 -0.6217 -0.3590
 8167TIP3    H248697   1.659   0.231  12.699  0.4051  0.1694  1.0037
 8168TIP3   OH248698   6.293   0.466  12.983  0.0899 -0.1435  0.1178
 8168TIP3    H148699   6.291   0.494  12.892  1.7329 -1.5107 -0.3955
 8168TIP3    H248700   6.358   0.523  13.025 -0.6294  0.4525  0.4422
 8169TIP3   OH248701   1.080   6.090  11.701  0.2516  0.3249 -0.2523
 8169TIP3    H148702   1.172   6.117  11.702  0.8192 -1.4540 -0.5602
 8169TIP3    H248703   1.061   6.064  11.791 -0.0696  0.9774 -0.1203
 8170TIP3   OH248704   0.493   4.297  11.374  0.4677 -0.2196 -1.2418
 8170TIP3    H148705   0.544   4.347  11.438 -0.7344 -0.3181 -0.1692
 8170TIP3    H248706   0.551   4.290  11.298  1.0072  2.0506 -1.1192
 8171TIP3   OH248707   4.691   6.313  12.048 -0.5221  0.0127  0.0789
 8171TIP3    H148708   4.601   6.301  12.077 -0.4819 -0.0779  0.1687
 8171TIP3    H248709   4.738   6.343  12.125 -0.6611  0.9615 -0.1997
 8172TIP3   OH248710   1.998   5.490  12.213  0.2377  0.1328  0.2782
 8172TIP3    H148711   1.998   5.581  12.243 -0.1362  0.1335  0.2693
 8172TIP3    H248712   1.917   5.453  12.248  0.2405 -0.1153  0.0239
 8173TIP3   OH248713   6.870   0.845  12.690 -0.2364 -0.7190 -0.3692
 8173TIP3    H148714   6.864   0.760  12.734 -0.8440  0.0932  1.2436
 8173TIP3    H248715   6.910   0.826  12.606  1.0882 -2.3830  0.5664
 8174TIP3   OH248716   0.538   2.718  10.305  0.1870  0.0739  0.0165
 8174TIP3    H148717   0.518   2.791  10.246  0.9700  0.7525  0.5667
 8174TIP3    H248718   0.589   2.758  10.375 -0.8251 -0.6950  1.2204
 8175TIP3   OH248719   6.968   6.929  12.145 -0.0511  0.0631  0.3525
 8175TIP3    H148720   6.893   6.899  12.196  0.7239 -1.7478  0.5336
 8175TIP3    H248721   6.951   6.898  12.056 -0.1895  0.9311  0.0718
 8176TIP3   OH248722   7.205   5.725  11.609  0.0790  0.4964 -0.1002
 8176TIP3    H148723   7.178   5.750  11.521  2.4823 -1.3906 -1.5125
 8176TIP3    H248724   7.202   5.806  11.659  0.6683  2.0951 -2.4749
 8177TIP3   OH248725   1.555   2.679  13.745  0.4167  0.1589  0.7459
 8177TIP3    H148726   1.461   2.699  13.746  0.7797  2.0323  1.6809
 8177TIP3    H248727   1.573   2.645  13.832  0.5999 -0.2404  0.5530
 8178TIP3   OH248728   2.923   0.146  11.386 -0.1212  0.0823  0.4351
 8178TIP3    H148729   2.972   0.215  11.341 -0.3408  0.2498  0.4502
 8178TIP3    H248730   2.895   0.185  11.468  0.4591 -0.2932  0.8202
 8179TIP3   OH248731   1.977   1.394  10.582 -0.2860  0.6333  0.1746
 8179TIP3    H148732   1.905   1.456  10.577 -1.0005 -0.1982 -0.2192
 8179TIP3    H248733   1.945   1.316  10.536  0.6876  0.0780  0.3984
 8180TIP3   OH248734   3.806   5.553  11.758 -0.3314 -0.0085  0.0513
 8180TIP3    H148735   3.763   5.501  11.826 -1.5588 -1.0274 -1.4366
 8180TIP3    H248736   3.900   5.546  11.778 -0.7024  1.1474  2.5820
 8181TIP3   OH248737   7.354   5.956  12.615 -0.7182  0.0181 -0.0285
 8181TIP3    H148738   7.371   6.012  12.691  0.5569 -0.3421 -0.0239
 8181TIP3    H248739   7.380   5.868  12.645  1.3837  0.1197 -1.3764
 8182TIP3   OH248740   5.316   5.490  12.701  0.1707  0.1622 -0.0415
 8182TIP3    H148741   5.305   5.506  12.794  0.7119  1.0321 -0.1147
 8182TIP3    H248742   5.227   5.489  12.665 -0.0530 -0.4361  0.5113
 8183TIP3   OH248743   3.031   6.132  11.446 -0.0740 -0.6192  0.5951
 8183TIP3    H148744   3.102   6.103  11.503  0.2198  0.9740  1.0733
 8183TIP3    H248745   2.977   6.189  11.501  0.1335  0.8387 -0.6509
 8184TIP3   OH248746   4.598   0.959  10.576 -0.2755  0.2093  0.2186
 8184TIP3    H148747   4.523   0.926  10.526 -0.4827  2.4414 -1.0487
 8184TIP3    H248748   4.568   0.961  10.666 -1.5021  0.3812 -0.1754
 8185TIP3   OH248749   7.490   4.414  12.411 -0.4191  0.4212  0.6591
 8185TIP3    H148750   7.580   4.436  12.389  0.0368  0.9873  2.8692
 8185TIP3    H248751   7.447   4.498  12.424 -0.1787  0.2112  3.4733
 8186TIP3   OH248752   5.506   0.957  10.404  0.0332  0.1374  0.1239
 8186TIP3    H148753   5.511   1.049  10.430 -0.3129 -0.2443  1.6235
 8186TIP3    H248754   5.487   0.910  10.485  0.1704 -1.2609 -0.6249
 8187TIP3   OH248755   7.081   4.761  12.503 -0.3101  0.2458 -0.2312
 8187TIP3    H148756   7.165   4.786  12.543 -0.9513 -0.8908  1.9286
 8187TIP3    H248757   7.022   4.832  12.526 -0.6270 -0.3076  0.6967
 8188TIP3   OH248758   5.240   0.105  13.114  0.4027 -0.3379  0.2772
 8188TIP3    H148759   5.161   0.067  13.074 -0.1527  1.8931 -0.9149
 8188TIP3    H248760   5.312   0.051  13.080 -0.3749 -0.6891 -0.8801
 8189TIP3   OH248761   4.307   3.820  11.644  0.1005 -0.4674  0.2372
 8189TIP3    H148762   4.305   3.879  11.568  0.1473  0.3262  0.8362
 8189TIP3    H248763   4.216   3.810  11.669  0.0998 -0.5595  0.1978
 8190TIP3   OH248764   4.021   3.353  11.846 -0.0663 -0.3139  0.8444
 8190TIP3    H148765   3.948   3.317  11.797  0.1754 -0.1663  0.3696
 8190TIP3    H248766   3.998   3.445  11.861  0.2573 -0.1250  0.2245
 8191TIP3   OH248767   1.282   2.709  10.985 -0.1927 -0.2329 -0.8922
 8191TIP3    H148768   1.359   2.689  11.038 -0.1138  1.9365 -0.0946
 8191TIP3    H248769   1.211   2.717  11.049 -0.7994 -0.8428 -1.4763
 8192TIP3   OH248770   4.724   3.506  13.392 -0.2640  0.4419 -0.1998
 8192TIP3    H148771   4.696   3.419  13.422 -0.5574  0.7059  0.3049
 8192TIP3    H248772   4.665   3.525  13.319  0.8377 -0.4570 -1.3656
 8193TIP3   OH248773   1.132   1.195  11.698 -0.4383  0.0230  0.0837
 8193TIP3    H148774   1.193   1.168  11.630 -0.7819 -0.4231 -0.0525
 8193TIP3    H248775   1.052   1.219  11.652  0.2299  2.5398  0.0743
 8194TIP3   OH248776   1.720   3.160  10.961  0.6165  0.4252  0.4507
 8194TIP3    H148777   1.798   3.119  10.999 -1.5426 -0.4326  4.4877
 8194TIP3    H248778   1.681   3.091  10.906  1.0204 -0.2395  0.9831
 8195TIP3   OH248779   0.303   7.530  12.704 -0.2282  0.4032  0.0630
 8195TIP3    H148780   0.349   7.548  12.622 -0.2757 -0.0585 -0.0675
 8195TIP3    H248781   0.236   7.466  12.680  0.4394 -0.5427  0.6646
 8196TIP3   OH248782   3.506   6.233  12.043 -0.7524  0.3433  0.5157
 8196TIP3    H148783   3.468   6.320  12.050 -1.4131  0.0647  0.5234
 8196TIP3    H248784   3.600   6.247  12.037 -0.8709  1.0620  0.3360
 8197TIP3   OH248785   2.545   7.592  12.170  0.3715  0.1611  0.3255
 8197TIP3    H148786   2.560   7.544  12.251 -1.0629  0.3000  0.7133
 8197TIP3    H248787   2.536   7.524  12.103  0.0848 -0.0297  0.5553
 8198TIP3   OH248788   0.460   3.851  11.372 -0.5642 -0.3766  0.7498
 8198TIP3    H148789   0.436   3.904  11.448 -0.8847  1.9481 -0.8770
 8198TIP3    H248790   0.537   3.894  11.336 -0.5727 -1.2844 -0.4037
 8199TIP3   OH248791   6.532   5.372  12.322 -0.2914  0.0931 -0.1645
 8199TIP3    H148792   6.552   5.371  12.228 -1.1309  2.3613 -0.4140
 8199TIP3    H248793   6.440   5.349  12.327  0.1099 -1.5626  0.2799
 8200TIP3   OH248794   2.334   1.572  12.634 -0.3152 -0.2747  0.2430
 8200TIP3    H148795   2.253   1.536  12.670 -0.7942  0.5307 -0.0043
 8200TIP3    H248796   2.305   1.633  12.566  0.5093 -0.1544 -0.0159
 8201TIP3   OH248797   7.656   2.859  13.379 -0.0716  0.5662 -0.7252
 8201TIP3    H148798   7.564   2.877  13.397 -0.3543 -0.2121 -1.3266
 8201TIP3    H248799   7.655   2.783  13.320  0.9706  0.1230 -0.2083
 8202TIP3   OH248800   1.249   1.940  12.710  0.1301  0.2841 -0.4471
 8202TIP3    H148801   1.197   1.953  12.789  0.6647 -0.0022 -0.0390
 8202TIP3    H248802   1.340   1.946  12.740  0.3403 -0.0421 -1.0050
 8203TIP3   OH248803   3.699   1.797  11.397  0.4397 -0.2381 -0.2038
 8203TIP3    H148804   3.605   1.781  11.396  0.5163 -0.9991  1.1991
 8203TIP3    H248805   3.731   1.744  11.470  1.9041  0.2961 -0.4242
 8204TIP3   OH248806   5.983   4.628  12.391  0.7036 -0.3737 -0.1637
 8204TIP3    H148807   5.941   4.635  12.477  2.2104 -0.4013  0.5993
 8204TIP3    H248808   6.015   4.538  12.387 -2.3837 -1.5443 -2.2582
 8205TIP3   OH248809   0.042   3.134  11.505 -0.2311  0.2682  0.3070
 8205TIP3    H148810  -0.014   3.090  11.569 -2.1772  0.8495 -0.9214
 8205TIP3    H248811   0.116   3.166  11.556 -0.2943 -1.7335  1.7562
 8206TIP3   OH248812   5.306   6.660  12.241  0.4660  0.2008  0.3718
 8206TIP3    H148813   5.315   6.740  12.293  2.0629  1.9757 -2.3669
 8206TIP3    H248814   5.240   6.682  12.175  1.8991 -0.2317 -1.2450
 8207TIP3   OH248815   6.179   0.448  12.088  0.4091 -0.5503  0.0465
 8207TIP3    H148816   6.087   0.442  12.062  0.1769 -1.1650  0.9762
 8207TIP3    H248817   6.195   0.542  12.098  0.3389 -0.3162 -1.6430
 8208TIP3   OH248818   4.544   7.588  11.838 -0.4689  0.3082 -0.2617
 8208TIP3    H148819   4.482   7.635  11.894  0.5258  0.7000  0.5438
 8208TIP3    H248820   4.613   7.559  11.898  0.3231  0.2290 -1.1930
 8209TIP3   OH248821   6.951   0.103  12.244 -0.0917  0.6628  0.0520
 8209TIP3    H148822   6.871   0.144  12.213 -0.8186 -0.9989 -0.3050
 8209TIP3    H248823   6.931   0.077  12.334 -0.0073  0.0842 -0.0979
 8210TIP3   OH248824   3.115   6.488  12.583  0.2408 -0.1769 -0.1459
 8210TIP3    H148825   3.176   6.547  12.538 -0.5502 -0.0069 -1.0089
 8210TIP3    H248826   3.153   6.477  12.670 -0.1607  2.5645  0.4798
 8211TIP3   OH248827   6.186   4.788  11.085 -0.8833 -0.3934  0.3036
 8211TIP3    H148828   6.158   4.739  11.008 -1.4317  0.8850 -0.3552
 8211TIP3    H248829   6.107   4.799  11.137 -0.4591 -1.4936  1.2235
 8212TIP3   OH248830   4.928   1.802  10.890 -0.3039  0.2042  0.0388
 8212TIP3    H148831   4.906   1.841  10.975 -0.6697 -1.4429  0.7432
 8212TIP3    H248832   4.877   1.720  10.888  1.2294 -0.7703 -0.8910
 8213TIP3   OH248833   7.102   6.637  11.061 -0.3639  0.4504  0.0386
 8213TIP3    H148834   7.127   6.545  11.059 -0.1622  0.3748  2.5674
 8213TIP3    H248835   7.151   6.676  10.989  0.5313 -1.1983 -0.3069
 8214TIP3   OH248836   4.610   3.611  11.706 -0.5258  0.5297  0.6033
 8214TIP3    H148837   4.703   3.595  11.720 -0.3588 -0.2712 -1.1997
 8214TIP3    H248838   4.566   3.560  11.775  0.2951 -1.7260 -0.4417
 8215TIP3   OH248839   2.726   2.081  10.682 -0.0473 -0.3221 -0.5133
 8215TIP3    H148840   2.786   2.136  10.631 -0.1696  1.2027  0.9218
 8215TIP3    H248841   2.650   2.070  10.625 -0.9737  2.8765 -0.0895
 8216TIP3   OH248842   6.288   6.459  11.582  0.4265 -0.1188 -0.2366
 8216TIP3    H148843   6.249   6.420  11.660  1.5264 -1.1491 -0.1596
 8216TIP3    H248844   6.276   6.553  11.593  0.5571 -0.2457  1.1812
 8217TIP3   OH248845   3.519   7.379  10.873 -0.7524  0.3501 -0.5853
 8217TIP3    H148846   3.443   7.353  10.821  0.6259 -1.6289 -1.7625
 8217TIP3    H248847   3.573   7.300  10.877  1.3358  1.7265  0.0234
 8218TIP3   OH248848   3.351   2.167  13.196  0.1669  0.2791 -0.5443
 8218TIP3    H148849   3.299   2.232  13.149  0.1018  1.5953  1.2543
 8218TIP3    H248850   3.286   2.106  13.232  0.1099  0.0917 -0.9656
 8219TIP3   OH248851   2.336   3.056  13.373  0.2511 -0.1107 -0.7008
 8219TIP3    H148852   2.321   2.996  13.300  1.6423  0.2888 -1.3591
 8219TIP3    H248853   2.422   3.094  13.355  0.8514 -0.3349  1.3952
 8220TIP3   OH248854   4.294   7.296  13.498 -0.0261 -0.1192 -0.0712
 8220TIP3    H148855   4.246   7.363  13.546 -0.8466 -1.1146  0.5273
 8220TIP3    H248856   4.292   7.325  13.407 -0.0935  0.8203  0.2223
 8221TIP3   OH248857   2.145   3.895  10.652 -0.2000  0.2881 -0.1140
 8221TIP3    H148858   2.210   3.847  10.602 -0.9208  0.8706 -1.6736
 8221TIP3    H248859   2.184   3.906  10.739  0.4959 -2.0044 -0.0644
 8222TIP3   OH248860   1.573   6.134  12.430  0.2417  0.6907  0.5940
 8222TIP3    H148861   1.587   6.071  12.500 -0.5208 -0.0083  0.1329
 8222TIP3    H248862   1.616   6.096  12.354  0.6343  1.2054  0.5542
 8223TIP3   OH248863   4.947   7.260  12.289  0.6143  0.2720  0.7414
 8223TIP3    H148864   4.922   7.208  12.366 -0.4398 -1.5825 -0.7616
 8223TIP3    H248865   4.864   7.297  12.258  0.4992 -1.3486 -1.0867
 8224TIP3   OH248866   3.846   0.841  12.671 -0.3051  0.3408 -0.6992
 8224TIP3    H148867   3.896   0.768  12.706  0.9466  0.2956 -2.4184
 8224TIP3    H248868   3.756   0.809  12.666 -0.6508  0.5072  2.6830
 8225TIP3   OH248869   7.592   6.955  10.599 -0.1684  0.1774  0.2662
 8225TIP3    H148870   7.499   6.974  10.594 -0.3300 -0.8592 -1.2380
 8225TIP3    H248871   7.623   7.007  10.673 -1.4288  2.6377 -0.8091
 8226TIP3   OH248872   3.592   1.317  11.966  0.5498 -1.2018  0.1001
 8226TIP3    H148873   3.601   1.296  11.873  1.6898  2.3634 -0.7498
 8226TIP3    H248874   3.677   1.294  12.004  0.8756 -0.5947 -0.2473
 8227TIP3   OH248875   3.640   4.299  12.146  0.4711 -0.0841 -0.1623
 8227TIP3    H148876   3.604   4.303  12.235  1.6189  1.6673  0.2671
 8227TIP3    H248877   3.565   4.276  12.091 -0.7270  0.7826  1.0345
 8228TIP3   OH248878   1.018   7.541  10.797  0.1074  0.1211  0.3312
 8228TIP3    H148879   0.924   7.558  10.792  0.2766  0.8540 -0.7577
 8228TIP3    H248880   1.037   7.484  10.722  0.5438  0.0446  0.4955
 8229TIP3   OH248881   7.391   2.752  12.826  0.0149  0.1728 -0.0022
 8229TIP3    H148882   7.320   2.806  12.790  1.8641  2.7673  0.0059
 8229TIP3    H248883   7.406   2.787  12.914  1.2494 -0.3982  0.0346
 8230TIP3   OH248884   6.455   6.233  11.847  0.5365 -0.0330 -0.0344
 8230TIP3    H148885   6.460   6.167  11.916  2.2749  0.1694  0.0813
 8230TIP3    H248886   6.482   6.186  11.768 -2.6579 -0.5977 -0.9152
 8231TIP3   OH248887   6.442   4.797  11.975 -0.0013  0.0744 -0.2590
 8231TIP3    H148888   6.527   4.780  11.935  0.3713  1.4811 -0.1201
 8231TIP3    H248889   6.379   4.783  11.905  0.5006  0.8022 -0.8683
 8232TIP3   OH248890   0.826   5.009  11.664 -0.5973  0.2873 -0.2904
 8232TIP3    H148891   0.916   5.022  11.693 -0.6060 -0.9745  0.3422
 8232TIP3    H248892   0.787   4.951  11.729 -1.0810 -1.3501 -1.9487
 8233TIP3   OH248893   6.325   4.075  13.455 -0.0485  0.3897 -0.0191
 8233TIP3    H148894   6.340   3.989  13.416 -0.2535  0.5866 -0.5331
 8233TIP3    H248895   6.230   4.082  13.464  0.0198 -0.1106  1.5731
 8234TIP3   OH248896   6.588   6.612  10.610  0.4579 -0.6695  0.1034
 8234TIP3    H148897   6.573   6.693  10.561 -0.4187 -1.3612 -0.8183
 8234TIP3    H248898   6.546   6.544  10.557  1.3308 -1.7591  0.7694
 8235TIP3   OH248899   2.491   4.325  11.313  0.2883  0.0138  0.0979
 8235TIP3    H148900   2.463   4.311  11.223  0.8691 -0.4333 -0.0137
 8235TIP3    H248901   2.411   4.353  11.358  0.2078  1.2561 -0.7673
 8236TIP3   OH248902   2.789   2.966  10.752  0.2935  0.4437  0.0580
 8236TIP3    H148903   2.842   3.040  10.726 -0.9452  1.2875 -0.1471
 8236TIP3    H248904   2.781   2.974  10.847 -2.7245  2.6698 -0.2556
 8237TIP3   OH248905   1.424   0.284  12.188 -0.2724 -0.3413 -0.1516
 8237TIP3    H148906   1.436   0.289  12.283 -0.6901 -0.7169 -0.0771
 8237TIP3    H248907   1.419   0.190  12.170  0.6158 -0.3000 -0.6493
 8238TIP3   OH248908   1.792   3.087  12.712  0.4768 -0.0934  0.2767
 8238TIP3    H148909   1.723   3.074  12.777  0.9933 -1.2947  0.6016
 8238TIP3    H248910   1.871   3.054  12.753  1.3224  1.4586 -0.0176
 8239TIP3   OH248911   3.981   3.977  11.588  0.1234  0.1972 -0.0558
 8239TIP3    H148912   3.925   4.008  11.517 -1.7885  0.0313  1.2796
 8239TIP3    H248913   4.004   4.056  11.637  0.8110  0.2296 -0.4279
 8240TIP3   OH248914   2.129   6.508  13.027  0.3334  0.1282  0.2725
 8240TIP3    H148915   2.162   6.595  13.048 -0.3665  0.4729 -0.0248
 8240TIP3    H248916   2.073   6.485  13.102  1.2087 -0.4447  0.7654
 8241TIP3   OH248917   4.643   4.043  10.921 -0.3578  0.0746  0.1176
 8241TIP3    H148918   4.637   4.122  10.866 -1.2757  1.8521  2.5658
 8241TIP3    H248919   4.714   4.063  10.982  1.2535 -2.2278 -0.8689
 8242TIP3   OH248920   6.602   6.939  11.771 -0.2857  0.1373 -0.2034
 8242TIP3    H148921   6.590   6.980  11.686  1.7776 -0.8552 -1.0535
 8242TIP3    H248922   6.696   6.947  11.789 -0.3426 -1.4002  1.0387
 8243TIP3   OH248923   3.325   3.438  13.234 -0.1466  0.6311 -0.0642
 8243TIP3    H148924   3.255   3.447  13.299  0.6409  0.9099  0.7682
 8243TIP3    H248925   3.281   3.445  13.150 -1.9483 -3.9555  0.1852
 8244TIP3   OH248926   1.150   4.680  11.921  0.0084  0.0087 -0.1831
 8244TIP3    H148927   1.186   4.714  11.840 -0.1528 -2.1537 -1.2369
 8244TIP3    H248928   1.129   4.588  11.901 -1.3788 -0.1841  1.8677
 8245TIP3   OH248929   6.724   3.053  11.624  0.1924  0.3730  0.3764
 8245TIP3    H148930   6.661   3.121  11.649 -0.2783 -0.1442  0.6307
 8245TIP3    H248931   6.723   3.055  11.528  0.4513  0.9639  0.3815
 8246TIP3   OH248932   2.124   5.329  12.441  0.0861 -0.5854 -0.0033
 8246TIP3    H148933   2.107   5.324  12.536  0.3493 -1.2541  0.0116
 8246TIP3    H248934   2.052   5.382  12.407  0.2779  0.1236  0.6443
 8247TIP3   OH248935   0.978   3.285  10.308 -0.4326  0.1295 -0.6536
 8247TIP3    H148936   1.040   3.256  10.375 -0.2344  2.8170  0.4682
 8247TIP3    H248937   0.894   3.248  10.336 -0.2786  0.8793  0.9308
 8248TIP3   OH248938   5.969   4.478  11.233 -0.0700  1.1503  0.0564
 8248TIP3    H148939   6.036   4.427  11.279 -1.3836  0.7707  1.6294
 8248TIP3    H248940   5.991   4.468  11.140 -0.1119 -2.1141  0.2854
 8249TIP3   OH248941   0.857   1.658  10.980  0.3545 -1.1862  0.3561
 8249TIP3    H148942   0.803   1.613  10.915 -1.4130  1.8229 -0.4011
 8249TIP3    H248943   0.814   1.639  11.064 -0.9026 -0.2375 -0.0505
 8250TIP3   OH248944   7.144   1.723  12.256 -0.2710  0.4683  0.4683
 8250TIP3    H148945   7.121   1.816  12.253 -0.6689  0.3506 -2.1395
 8250TIP3    H248946   7.062   1.676  12.240  0.3679 -0.2014 -1.0684
 8251TIP3   OH248947   5.610   7.095  11.009 -0.1024 -0.0044  0.3140
 8251TIP3    H148948   5.650   7.130  10.930 -0.5544 -1.0534 -0.3995
 8251TIP3    H248949   5.598   7.002  10.991 -1.9671  0.0907  0.8806
 8252TIP3   OH248950   6.256   5.339  12.391 -0.4099 -0.9801 -0.0351
 8252TIP3    H148951   6.233   5.415  12.337 -1.6137 -1.9412 -0.9167
 8252TIP3    H248952   6.224   5.362  12.478 -3.3070 -1.5437 -0.8576
 8253TIP3   OH248953   7.597   3.554  12.677  0.3177 -0.5366 -0.1678
 8253TIP3    H148954   7.626   3.633  12.631  0.5616  1.4429  3.0177
 8253TIP3    H248955   7.509   3.539  12.645 -0.2932  1.9712  0.0994
 8254TIP3   OH248956   5.435   1.150  12.552 -0.2817  0.2103 -0.3558
 8254TIP3    H148957   5.483   1.187  12.626 -0.8105  2.2086 -0.9485
 8254TIP3    H248958   5.491   1.167  12.476 -0.6091 -0.1005 -0.6695
 8255TIP3   OH248959   1.159   4.388  11.856 -1.1994  0.4912 -0.0084
 8255TIP3    H148960   1.074   4.357  11.826 -1.8529  1.6266  0.5994
 8255TIP3    H248961   1.186   4.325  11.923 -1.4544  0.0034 -0.3615
 8256TIP3   OH248962   7.116   1.275  12.426  0.0464 -0.4406  0.3175
 8256TIP3    H148963   7.177   1.349  12.417 -0.6295  0.1521  0.5429
 8256TIP3    H248964   7.172   1.198  12.426  0.6135 -0.3588 -4.4221
 8257TIP3   OH248965   3.842   7.638  10.941  0.2506  0.1707 -0.7689
 8257TIP3    H148966   3.881   7.719  10.907 -0.0813  0.2340 -1.0140
 8257TIP3    H248967   3.888   7.568  10.896 -0.9616  0.2686 -2.2804
 8258TIP3   OH248968   2.535   2.113  10.504 -0.3706 -0.7021  0.2235
 8258TIP3    H148969   2.534   2.140  10.412  2.0356 -0.9700  0.0529
 8258TIP3    H248970   2.464   2.163  10.545 -0.0316  1.1410 -1.3083
 8259TIP3   OH248971   1.314   6.188  10.416 -0.1829  0.0243  0.5547
 8259TIP3    H148972   1.295   6.107  10.368 -0.6981 -1.4272  2.9969
 8259TIP3    H248973   1.243   6.247  10.393  0.3189 -0.0988 -1.4536
 8260TIP3   OH248974   2.736   0.079  12.282  0.6180 -0.1537 -0.3335
 8260TIP3    H148975   2.746   0.049  12.373  1.2918 -1.8775 -0.9389
 8260TIP3    H248976   2.642   0.077  12.266  0.5475 -0.5124  0.1120
 8261TIP3   OH248977   7.284   2.005  11.470  0.2008  0.1200 -0.0036
 8261TIP3    H148978   7.375   2.034  11.467  0.2742 -0.1359 -0.3157
 8261TIP3    H248979   7.234   2.079  11.434  0.2011  0.5571  0.8568
 8262TIP3   OH248980   5.469   2.462  12.714 -0.0781 -0.0911  0.5083
 8262TIP3    H148981   5.462   2.519  12.637  0.3052 -0.8697 -0.1081
 8262TIP3    H248982   5.440   2.518  12.787  1.2788  1.2327  0.0804
 8263TIP3   OH248983   5.834   0.745  11.701 -0.5010  0.1598  0.4458
 8263TIP3    H148984   5.809   0.810  11.767 -2.2572 -0.7801  0.7730
 8263TIP3    H248985   5.903   0.788  11.650 -0.2917  1.5548  1.8161
 8264TIP3   OH248986   4.561   5.165  11.942 -0.5825 -0.0880 -0.2416
 8264TIP3    H148987   4.553   5.098  11.874 -0.4128  1.2044 -1.5694
 8264TIP3    H248988   4.518   5.126  12.019 -0.8006 -1.5661 -1.0688
 8265TIP3   OH248989   7.368   2.162  12.487  0.2228  0.0226 -0.4745
 8265TIP3    H148990   7.296   2.179  12.548  0.3040  0.3887 -0.4798
 8265TIP3    H248991   7.341   2.083  12.440 -0.3322  0.3495 -0.7110
 8266TIP3   OH248992   0.039   3.057  12.173 -0.0541  0.2448 -0.0874
 8266TIP3    H148993  -0.034   3.103  12.215 -0.2947 -1.4026  1.4334
 8266TIP3    H248994   0.038   3.088  12.083 -1.7610  1.3159  0.2511
 8267TIP3   OH248995   5.590   6.898  10.689  0.2251  0.6882 -0.0952
 8267TIP3    H148996   5.581   6.834  10.759  2.1867  0.9036  0.4118
 8267TIP3    H248997   5.501   6.928  10.673 -0.8428 -2.4933 -0.7342
 8268TIP3   OH248998   4.170   5.718  10.688 -0.1041 -0.2365  0.2759
 8268TIP3    H148999   4.077   5.718  10.708  0.3144 -0.5458  2.5203
 8268TIP3    H249000   4.197   5.809  10.701 -0.4238  0.3199 -2.4442
 8269TIP3   OH249001   7.035   0.805  10.895 -0.0481  0.4463  0.2608
 8269TIP3    H149002   7.040   0.890  10.939  0.5582  1.1753 -1.1615
 8269TIP3    H249003   6.945   0.800  10.861  0.0719  0.7631 -0.1102
 8270TIP3   OH249004   2.891   3.874  10.362  0.2295  0.1737  0.5264
 8270TIP3    H149005   2.812   3.887  10.309  1.0951  3.6271 -0.1580
 8270TIP3    H249006   2.858   3.864  10.452 -1.0324  0.8229  0.1611
 8271TIP3   OH249007   2.743   0.817  10.545 -0.4798 -0.5282 -0.1277
 8271TIP3    H149008   2.799   0.773  10.481 -0.2108  1.1775 -1.1063
 8271TIP3    H249009   2.690   0.746  10.582  0.1567 -1.7220 -1.3947
 8272TIP3   OH249010   5.815   0.145  12.059 -0.0315  0.0783  0.1668
 8272TIP3    H149011   5.733   0.161  12.105  0.2010 -1.2547  1.1040
 8272TIP3    H249012   5.804   0.189  11.974 -1.9036 -0.5149  0.0650
 8273TIP3   OH249013   6.787   7.143  11.469 -0.0353  0.2542  0.7005
 8273TIP3    H149014   6.707   7.152  11.520  0.0531  1.5274  0.6604
 8273TIP3    H249015   6.849   7.099  11.528 -0.8130 -0.9633  0.6403
 8274TIP3   OH249016   1.500   1.291  12.434 -0.5795 -0.4284  0.3273
 8274TIP3    H149017   1.546   1.269  12.514 -0.7914 -0.1434  0.5302
 8274TIP3    H249018   1.457   1.374  12.453 -0.9626 -0.5594  0.0537
 8275TIP3   OH249019   1.794   2.983  10.599  0.3909  0.2073  0.0848
 8275TIP3    H149020   1.861   3.048  10.621  0.9917 -0.4122  0.1245
 8275TIP3    H249021   1.711   3.031  10.604  0.9769  1.6332 -2.3995
 8276TIP3   OH249022   6.200   6.817  10.724  0.2445  0.1743 -0.0196
 8276TIP3    H149023   6.156   6.893  10.686 -0.4031  0.6341  1.5781
 8276TIP3    H249024   6.286   6.850  10.751  0.7559 -0.1842 -1.1456
 8277TIP3   OH249025   3.744   6.222  12.242 -0.0908  0.6729  0.1268
 8277TIP3    H149026   3.746   6.147  12.301  0.4873 -0.0780 -0.8039
 8277TIP3    H249027   3.757   6.298  12.298 -0.8609  0.1024  1.1165
 8278TIP3   OH249028   6.909   2.229  13.085 -0.0053  0.3423 -0.0051
 8278TIP3    H149029   6.869   2.264  13.164 -0.7491 -1.9081  0.6922
 8278TIP3    H249030   6.898   2.135  13.092  1.0188 -0.0131 -2.2174
 8279TIP3   OH249031   7.422   1.710  12.112 -0.3881 -0.7230 -0.4999
 8279TIP3    H149032   7.462   1.758  12.185 -2.5307 -2.0440  1.6924
 8279TIP3    H249033   7.367   1.775  12.068  0.0262 -0.1939 -0.2503
 8280TIP3   OH249034   1.897   3.512  10.423  0.3057  0.0235 -0.3141
 8280TIP3    H149035   1.949   3.474  10.494  2.3239  0.3239 -1.5514
 8280TIP3    H249036   1.883   3.603  10.449 -0.8151 -0.3823  0.6324
 8281TIP3   OH249037   3.821   5.768  12.346  0.5464  0.1104 -0.2092
 8281TIP3    H149038   3.865   5.829  12.405  0.6288 -0.6331  0.5251
 8281TIP3    H249039   3.891   5.716  12.308  0.3780 -0.5198  0.3219
 8282TIP3   OH249040   2.328   5.887  11.625  0.1451 -0.4874 -0.2476
 8282TIP3    H149041   2.249   5.858  11.670  1.2359 -0.9571  1.4550
 8282TIP3    H249042   2.386   5.916  11.695  0.5636  2.2925 -1.5948
 8283TIP3   OH249043   4.756   7.429  13.503 -0.1567  0.2319 -0.2158
 8283TIP3    H149044   4.838   7.451  13.547 -0.6943  1.1982  0.3469
 8283TIP3    H249045   4.704   7.384  13.570  0.4709 -1.7612 -1.0111
 8284TIP3   OH249046   2.953   4.390  10.590 -0.1079 -0.6204 -0.5760
 8284TIP3    H149047   2.868   4.417  10.556  0.2737  1.6122  0.0546
 8284TIP3    H249048   2.976   4.458  10.654  2.4767 -0.7267 -1.2744
 8285TIP3   OH249049   6.196   4.361  11.703 -0.3617 -0.1838  0.5255
 8285TIP3    H149050   6.138   4.287  11.718  1.4247 -2.2348 -1.7526
 8285TIP3    H249051   6.273   4.342  11.757 -0.2565  0.5197  0.6348
 8286TIP3   OH249052   1.367   6.842  11.552  0.2188  0.0248  0.0488
 8286TIP3    H149053   1.336   6.768  11.604 -0.2279 -0.4868 -0.9279
 8286TIP3    H249054   1.320   6.918  11.589 -2.5002 -0.7427 -1.5147
 8287TIP3   OH249055   4.030   3.732  11.644  0.0872  0.3368  0.4047
 8287TIP3    H149056   4.013   3.821  11.613 -0.0905 -0.1216 -0.8659
 8287TIP3    H249057   4.037   3.679  11.564 -0.0419 -0.8308  1.1365
 8288TIP3   OH249058   3.323   5.690  10.334 -0.3590  0.4424  0.2645
 8288TIP3    H149059   3.255   5.744  10.294 -1.7095 -0.2683  1.5481
 8288TIP3    H249060   3.292   5.672  10.422  2.1599  1.2836  1.4307
 8289TIP3   OH249061   2.367   3.416  12.571  0.0281 -0.0733  0.2831
 8289TIP3    H149062   2.433   3.480  12.544 -1.7536  1.6597 -0.1799
 8289TIP3    H249063   2.319   3.460  12.641 -2.1602 -0.2795 -1.0009
 8290TIP3   OH249064   5.833   4.192  10.833  0.7419 -0.3366  0.0717
 8290TIP3    H149065   5.746   4.219  10.859  0.8135 -0.0394  0.0036
 8290TIP3    H249066   5.819   4.131  10.760  0.5603 -0.8918  0.5612
 8291TIP3   OH249067   3.930   1.302  12.464  0.2532  0.0432  0.0944
 8291TIP3    H149068   4.007   1.337  12.509  0.7277 -0.5224 -0.2480
 8291TIP3    H249069   3.856   1.337  12.512  0.7203 -1.7943  2.3333
 8292TIP3   OH249070   7.197   0.187  11.034  0.0714 -0.0349 -0.5508
 8292TIP3    H149071   7.152   0.243  10.971 -0.3222 -0.2341 -0.4499
 8292TIP3    H249072   7.193   0.099  10.996 -0.4217 -0.2042 -0.1157
 8293TIP3   OH249073   3.940   0.588  11.332  0.4730  0.1100  0.5220
 8293TIP3    H149074   3.883   0.511  11.329  1.1835 -0.4180  0.3477
 8293TIP3    H249075   4.012   0.568  11.272 -0.0299  1.4797 -0.5958
 8294TIP3   OH249076   0.765   6.675  13.480  0.2375 -0.3873 -0.8324
 8294TIP3    H149077   0.852   6.713  13.463  0.8706 -0.8380  1.1560
 8294TIP3    H249078   0.782   6.581  13.491 -0.6594 -0.6118 -1.2767
 8295TIP3   OH249079   4.220   6.129  11.358 -0.2729  0.8948 -0.6746
 8295TIP3    H149080   4.214   6.069  11.284  2.1209 -0.0763 -0.1978
 8295TIP3    H249081   4.144   6.109  11.412  0.6987 -2.1542 -0.2724
 8296TIP3   OH249082   3.695   7.518  13.256 -0.8790  0.4139  0.5330
 8296TIP3    H149083   3.697   7.571  13.336  0.5062 -0.8702  1.3975
 8296TIP3    H249084   3.664   7.432  13.285 -1.0442  0.1280 -0.4616
 8297TIP3   OH249085   1.311   2.223  11.352  0.6378  0.5237  0.3192
 8297TIP3    H149086   1.245   2.290  11.337  0.0041  0.0207  0.8418
 8297TIP3    H249087   1.385   2.249  11.296 -1.1638 -0.6555 -2.9129
 8298TIP3   OH249088   1.561   0.375  12.753  0.3032  0.4281  0.2746
 8298TIP3    H149089   1.510   0.417  12.823  0.0212  1.8558 -0.7271
 8298TIP3    H249090   1.593   0.448  12.700  0.3432 -0.6025 -1.2024
 8299TIP3   OH249091   6.985   6.096  12.671  0.5692  0.0357 -0.4441
 8299TIP3    H149092   6.994   6.170  12.610 -0.1489 -0.0249 -0.6365
 8299TIP3    H249093   6.890   6.090  12.686  0.6028 -1.0243 -0.6421
 8300TIP3   OH249094   1.830   1.384  12.097 -0.0824 -0.2037 -0.1153
 8300TIP3    H149095   1.748   1.427  12.123  0.9890  1.0735  1.2742
 8300TIP3    H249096   1.878   1.372  12.178  1.0862 -1.0179 -0.9033
 8301TIP3   OH249097   1.923   0.574  11.586 -0.1939 -0.3668  0.0536
 8301TIP3    H149098   1.964   0.620  11.514  0.6639  0.1904  0.8695
 8301TIP3    H249099   1.891   0.644  11.644 -0.0697 -0.7912  0.6483
 8302TIP3   OH249100   6.368   4.563  11.098  0.0497  0.5440  0.4142
 8302TIP3    H149101   6.309   4.636  11.118 -0.2714  0.3724  0.1002
 8302TIP3    H249102   6.443   4.604  11.054 -0.5011  0.5898 -0.4907
 8303TIP3   OH249103   7.431   6.811  11.947  0.4677 -0.4209  0.0272
 8303TIP3    H149104   7.440   6.808  11.851 -0.3926 -1.1560 -0.0463
 8303TIP3    H249105   7.423   6.719  11.972  0.3651 -0.2077  0.7746
 8304TIP3   OH249106   5.383   6.457  12.065 -0.2304  0.4072  0.3570
 8304TIP3    H149107   5.371   6.519  12.137 -3.5258 -1.7045  1.9013
 8304TIP3    H249108   5.416   6.378  12.107  1.3874  0.2217 -1.1480
 8305TIP3   OH249109   6.671   2.301  12.214 -0.0468  0.2150  0.2421
 8305TIP3    H149110   6.720   2.382  12.205  1.3202 -0.7380 -1.5600
 8305TIP3    H249111   6.648   2.276  12.124  0.5133 -1.9104  0.6222
 8306TIP3   OH249112   6.885   6.313  10.577  0.6031  0.1313 -0.1541
 8306TIP3    H149113   6.815   6.249  10.564  0.3382  0.4616 -0.3469
 8306TIP3    H249114   6.910   6.302  10.669  2.1611 -1.8650 -0.7440
 8307TIP3   OH249115   0.965   3.187  12.376  0.5438 -0.1560 -0.2769
 8307TIP3    H149116   1.041   3.161  12.429 -0.2798  0.1185  1.0731
 8307TIP3    H249117   0.917   3.248  12.431  0.2550  1.0560 -1.8057
 8308TIP3   OH249118   6.683   7.431  12.333  0.1268 -0.2396  0.1483
 8308TIP3    H149119   6.719   7.509  12.375  1.6549 -1.1524  0.5818
 8308TIP3    H249120   6.691   7.448  12.239  2.2620 -0.6402  0.2205
 8309TIP3   OH249121   5.794   0.231  11.089 -0.0836 -0.6943 -0.2457
 8309TIP3    H149122   5.874   0.268  11.052  1.0055 -1.6913  1.0222
 8309TIP3    H249123   5.723   0.282  11.048  1.2399  1.2819 -0.2133
 8310TIP3   OH249124   0.915   5.329  11.173 -0.2457 -0.3877 -0.2144
 8310TIP3    H149125   0.937   5.420  11.154 -0.7814  0.3934  2.5140
 8310TIP3    H249126   0.999   5.283  11.173  0.4115  0.7381  1.2614
 8311TIP3   OH249127   0.511   2.120  10.868 -0.4740 -0.5904 -0.2086
 8311TIP3    H149128   0.456   2.194  10.843 -0.1251  0.0277  0.8080
 8311TIP3    H249129   0.589   2.160  10.907  0.2233 -1.4737 -0.6729
 8312TIP3   OH249130   1.672   2.542  11.493 -0.1598  0.1849 -0.3060
 8312TIP3    H149131   1.723   2.623  11.499 -1.2823  1.0306 -1.4824
 8312TIP3    H249132   1.621   2.553  11.412 -0.8474 -1.4060 -0.1120
 8313TIP3   OH249133   7.519   2.531  11.583 -0.3673  0.6792  0.1847
 8313TIP3    H149134   7.555   2.619  11.589  0.2310  0.4529  0.0103
 8313TIP3    H249135   7.533   2.493  11.670 -2.0512  1.2683  0.7692
 8314TIP3   OH249136   7.291   1.491  12.353  0.1390  0.5007 -0.0198
 8314TIP3    H149137   7.332   1.440  12.283 -0.3196 -1.8389  1.3109
 8314TIP3    H249138   7.302   1.582  12.326  3.0461 -0.1553 -1.4350
 8315TIP3   OH249139   0.644   3.690  13.154 -0.1472  0.0732  0.1844
 8315TIP3    H149140   0.588   3.612  13.159 -0.8485  0.6069  1.0514
 8315TIP3    H249141   0.720   3.669  13.207  1.5221 -1.4090 -2.5400
 8316TIP3   OH249142   4.994   4.561  11.488  0.4665  0.3132 -0.0357
 8316TIP3    H149143   5.068   4.621  11.479  0.2508  0.6326  0.2794
 8316TIP3    H249144   5.028   4.490  11.543  0.3454  0.8009  0.6812
 8317TIP3   OH249145   1.514   1.316  12.950 -0.6900 -0.0934 -0.2338
 8317TIP3    H149146   1.579   1.336  12.883 -0.7355 -2.4810 -1.0915
 8317TIP3    H249147   1.430   1.334  12.908 -0.6723  2.1102  0.5638
 8318TIP3   OH249148   7.190   2.300  11.392  0.2857  0.2268 -0.3064
 8318TIP3    H149149   7.275   2.271  11.358  1.2757  0.7458  1.6044
 8318TIP3    H249150   7.211   2.372  11.452 -1.2699 -0.9882  1.8352
 8319TIP3   OH249151   3.593   4.563  12.167  0.0355 -0.3572  0.0492
 8319TIP3    H149152   3.523   4.524  12.220  1.2729 -1.8899  0.6393
 8319TIP3    H249153   3.561   4.556  12.077 -1.2639  0.5039  0.4206
 8320TIP3   OH249154   6.541   5.146  10.814  0.0230  0.2085 -0.4601
 8320TIP3    H149155   6.523   5.175  10.903  2.8792  0.5747  0.1036
 8320TIP3    H249156   6.518   5.053  10.813 -0.1818  0.2400  0.6259
 8321TIP3   OH249157   1.818   2.186  13.652  0.0757 -0.6349  0.3783
 8321TIP3    H149158   1.896   2.157  13.699 -0.6515 -2.0643  0.7879
 8321TIP3    H249159   1.837   2.167  13.560 -0.5183 -2.9458  0.6666
 8322TIP3   OH249160   1.570   4.230  12.440  0.1449  0.2968 -0.0406
 8322TIP3    H149161   1.646   4.287  12.452  0.6026 -0.6007  1.6023
 8322TIP3    H249162   1.604   4.142  12.452 -1.2418 -0.0932  1.3870
 8323TIP3   OH249163   0.292   7.118  11.577 -0.3501 -0.5103 -0.4670
 8323TIP3    H149164   0.293   7.173  11.656 -1.5063  0.3270 -1.0139
 8323TIP3    H249165   0.233   7.046  11.599  0.2383 -0.9122 -0.1711
 8324TIP3   OH249166   6.460   0.054  12.094 -0.3495 -0.0164  0.1135
 8324TIP3    H149167   6.460   0.057  12.190  0.5079 -0.4341  0.1374
 8324TIP3    H249168   6.482   0.143  12.068  0.4089 -0.1207  0.3416
 8325TIP3   OH249169   1.487   1.235  12.148  0.2510 -0.0275  0.6429
 8325TIP3    H149170   1.404   1.279  12.129  1.1079  1.2365 -0.3606
 8325TIP3    H249171   1.504   1.257  12.240 -0.4965 -0.2772  0.8544
 8326TIP3   OH249172   2.020   0.181  12.383  0.4593 -0.2595 -0.4671
 8326TIP3    H149173   2.035   0.175  12.289 -1.0032 -2.6638 -0.6218
 8326TIP3    H249174   2.045   0.095  12.417 -0.1585  0.1651  1.1641
 8327TIP3   OH249175   6.895   6.523  12.116  0.3486 -0.5073  0.6793
 8327TIP3    H149176   6.911   6.508  12.210  0.3180 -1.0343  0.6037
 8327TIP3    H249177   6.822   6.584  12.114  0.4088 -0.4173  0.9982
 8328TIP3   OH249178   7.295   2.151  13.077 -0.3273  0.4177 -0.1100
 8328TIP3    H149179   7.380   2.165  13.035 -0.5672  1.3998 -0.2980
 8328TIP3    H249180   7.316   2.116  13.163  0.2958  1.0648  0.0084
 8329TIP3   OH249181   2.572   5.093  11.130  0.4273  0.0749  0.8534
 8329TIP3    H149182   2.492   5.124  11.171 -0.1174 -1.3374  0.9137
 8329TIP3    H249183   2.611   5.035  11.194  0.1935 -1.2028 -0.1240
 8330TIP3   OH249184   6.374   4.042  12.306  0.2989 -0.3303  0.2055
 8330TIP3    H149185   6.448   4.086  12.348  0.5646  1.5581 -2.0464
 8330TIP3    H249186   6.413   3.996  12.232 -0.7989  1.4711 -1.5894
 8331TIP3   OH249187   3.501   3.736  11.509 -0.3350  0.1422  0.1050
 8331TIP3    H149188   3.408   3.744  11.487 -0.1116 -1.5671 -1.6408
 8331TIP3    H249189   3.540   3.817  11.477 -1.0380  0.3991 -0.1156
 8332TIP3   OH249190   2.845   2.996  11.090 -0.2609 -0.0628  0.0777
 8332TIP3    H149191   2.813   3.079  11.126  1.1899  0.7275 -0.3700
 8332TIP3    H249192   2.787   2.930  11.127 -1.4427  1.1384  0.4686
 8333TIP3   OH249193   1.895   6.792  10.600  0.1109  0.0291 -0.0870
 8333TIP3    H149194   1.948   6.762  10.527  1.6030  0.4357  0.7799
 8333TIP3    H249195   1.932   6.748  10.677 -0.1703  1.0650  0.6665
 8334TIP3   OH249196   6.453   3.593  12.248  0.4613  0.6524  0.3479
 8334TIP3    H149197   6.501   3.650  12.308  0.7876 -1.1928  1.9260
 8334TIP3    H249198   6.518   3.570  12.181  2.4426 -2.8256  3.1143
 8335TIP3   OH249199   5.058   5.078  10.710  0.7313 -0.1334 -0.2249
 8335TIP3    H149200   4.972   5.058  10.671  0.4535  0.1544  0.2251
 8335TIP3    H249201   5.041   5.153  10.767  1.3031 -0.0272 -0.1925
 8336TIP3   OH249202   3.399   5.268  16.944 -0.0564 -0.0168 -0.0830
 8336TIP3    H149203   3.323   5.227  16.901  1.1367 -0.8908 -1.4371
 8336TIP3    H249204   3.414   5.348  16.893  0.0839  0.0228  0.0222
 8337TIP3   OH249205   4.924   3.629  11.164  0.0269  0.2500  0.0513
 8337TIP3    H149206   4.948   3.680  11.242  0.2031 -1.1698  0.9702
 8337TIP3    H249207   4.956   3.681  11.091  1.1564  0.9490  0.9959
 8338TIP3   OH249208   4.151   3.639  11.151 -0.4199  0.1632  0.4912
 8338TIP3    H149209   4.226   3.580  11.161 -1.3240 -1.0915  0.2126
 8338TIP3    H249210   4.122   3.625  11.061 -1.5305 -0.0658  0.8710
 8339TIP3   OH249211   3.204   4.323  10.627 -0.1594  0.0936  0.2294
 8339TIP3    H149212   3.205   4.228  10.638  0.6176  0.1132  0.3824
 8339TIP3    H249213   3.114   4.343  10.603 -0.9276 -0.4113  2.4824
 8340TIP3   OH249214   0.704   2.494  12.258  0.4166 -0.2980 -0.3668
 8340TIP3    H149215   0.712   2.585  12.288 -1.6576 -0.3623  0.5423
 8340TIP3    H249216   0.790   2.456  12.274  0.6839  0.9170  1.3383
 8341TIP3   OH249217   6.819   1.942  12.396  0.1815  0.3625  0.0770
 8341TIP3    H149218   6.888   2.009  12.397 -0.1907  0.8090 -1.4102
 8341TIP3    H249219   6.803   1.926  12.303  1.4793 -3.1239  0.3139
 8342TIP3   OH249220   4.542   3.523  11.969  0.4177 -0.2878  0.0401
 8342TIP3    H149221   4.591   3.452  11.927 -0.8819 -1.0338 -0.2421
 8342TIP3    H249222   4.530   3.494  12.059  2.4521  0.9350  0.7873
 8343TIP3   OH249223   3.552   3.133  12.512  0.3253  0.7378  0.0864
 8343TIP3    H149224   3.496   3.211  12.514  0.5478  0.9057  1.9221
 8343TIP3    H249225   3.596   3.134  12.597 -1.2424 -2.5114  1.1244
 8344TIP3   OH249226   6.042   5.061  11.425  0.2312 -0.0367 -0.3750
 8344TIP3    H149227   6.111   5.108  11.472 -0.0517  0.1416 -0.1375
 8344TIP3    H249228   5.961   5.089  11.467  0.1572 -2.0228  0.9017
 8345TIP3   OH249229   3.959   6.209  10.728 -0.1876 -0.5118  0.2706
 8345TIP3    H149230   3.931   6.205  10.820  0.6249  0.1937  0.5605
 8345TIP3    H249231   3.885   6.173  10.679 -0.8836 -0.3171  1.1510
 8346TIP3   OH249232   5.512   0.017  12.231 -0.1951 -0.2843  0.2311
 8346TIP3    H149233   5.463  -0.017  12.306 -0.7249 -0.9631 -0.3970
 8346TIP3    H249234   5.598   0.040  12.266 -0.4333 -0.5894  1.0442
 8347TIP3   OH249235   3.889   4.636  12.100  0.5901  0.5204  0.5723
 8347TIP3    H149236   3.816   4.651  12.159  0.4253 -1.1209  0.8190
 8347TIP3    H249237   3.850   4.598  12.022  0.9042  1.9462 -0.3313
 8348TIP3   OH249238   2.476   2.972  16.863  0.0372 -0.1075 -0.6037
 8348TIP3    H149239   2.476   2.923  16.945  1.3353 -1.6346 -1.4637
 8348TIP3    H249240   2.482   2.906  16.795 -1.5564  1.0864 -2.0040
 8349TIP3   OH249241   5.905   7.442  11.091  0.7628 -0.5587 -0.0134
 8349TIP3    H149242   5.865   7.511  11.039  0.8875 -0.3994  0.0990
 8349TIP3    H249243   5.995   7.472  11.104  0.8999 -0.8864 -0.2162
 8350TIP3   OH249244   5.549   5.750  12.767  0.1324  0.8865  0.0894
 8350TIP3    H149245   5.497   5.820  12.728  0.6927  0.3161 -1.7713
 8350TIP3    H249246   5.506   5.669  12.740  0.1339  0.4586  1.2811
 8351TIP3   OH249247   4.405   6.302  13.190  0.0407 -0.0833  0.2031
 8351TIP3    H149248   4.429   6.375  13.133 -0.2047 -0.7077 -0.7073
 8351TIP3    H249249   4.329   6.335  13.240  0.4399  0.5634  0.3928
 8352TIP3   OH249250   3.463   6.026  11.347 -0.8230  0.2493  0.2675
 8352TIP3    H149251   3.373   5.999  11.365 -1.1509  1.6297  0.8111
 8352TIP3    H249252   3.464   6.120  11.363  0.8489  0.1805  0.7760
 8353TIP3   OH249253   5.090   4.171  10.927  0.0546  0.4244 -0.0993
 8353TIP3    H149254   5.033   4.141  10.856 -2.0565  1.1039  1.2301
 8353TIP3    H249255   5.162   4.215  10.882  0.9923 -2.7048 -1.9278
 8354TIP3   OH249256   2.036   1.846  11.099 -0.0143 -0.0978 -0.3768
 8354TIP3    H149257   2.092   1.850  11.177 -0.8896  0.1185  0.2597
 8354TIP3    H249258   2.004   1.756  11.098 -0.1513 -0.0495 -0.3724
 8355TIP3   OH249259   2.461   5.046  11.477 -0.3347 -0.3648  0.0427
 8355TIP3    H149260   2.448   4.974  11.540  0.1483  0.3854  1.0344
 8355TIP3    H249261   2.535   5.018  11.424 -0.7821 -1.0334 -0.2509
 8356TIP3   OH249262   3.303   0.186  12.204  0.0013  0.6316 -0.5715
 8356TIP3    H149263   3.255   0.212  12.283 -0.1006 -0.5639 -0.2190
 8356TIP3    H249264   3.278   0.094  12.190  1.7361  0.1504 -0.7064
 8357TIP3   OH249265   2.087   7.271  12.553  0.3586 -0.0159  0.2578
 8357TIP3    H149266   2.010   7.239  12.600 -0.1179 -1.8170 -1.5998
 8357TIP3    H249267   2.162   7.236  12.601 -0.0620 -0.4509  0.6029
 8358TIP3   OH249268   7.022   3.616  12.726 -0.5071  0.3690 -0.2295
 8358TIP3    H149269   7.018   3.547  12.660  1.4213  0.6128 -0.6720
 8358TIP3    H249270   6.965   3.584  12.797 -0.3672 -1.2595 -0.7911
 8359TIP3   OH249271   2.983   6.038  12.192  0.0044 -0.4097  0.2648
 8359TIP3    H149272   2.902   6.071  12.233 -0.1415  0.4414 -0.6708
 8359TIP3    H249273   2.991   5.949  12.225 -1.8725 -0.8753 -0.3677
 8360TIP3   OH249274   0.115   0.752  11.607 -0.7813  0.3368 -0.1676
 8360TIP3    H149275   0.151   0.800  11.533  0.7865  1.5239  1.2807
 8360TIP3    H249276   0.113   0.661  11.578 -0.0482  0.7551 -1.6044
 8361TIP3   OH249277   6.743   0.525  11.419  0.2955  0.0107 -0.3485
 8361TIP3    H149278   6.688   0.447  11.425  0.8231 -0.4160 -0.8411
 8361TIP3    H249279   6.683   0.598  11.433 -0.4474 -0.4279 -1.1170
 8362TIP3   OH249280   1.345   5.240  12.648 -0.2730 -0.3280  0.5495
 8362TIP3    H149281   1.373   5.297  12.719 -1.4875  0.1451  0.6694
 8362TIP3    H249282   1.355   5.151  12.682  0.5604 -0.1572  0.7670
 8363TIP3   OH249283   3.993   2.355  12.783 -0.1926  0.4455 -0.5564
 8363TIP3    H149284   3.927   2.417  12.751 -1.1825  1.0578  2.3234
 8363TIP3    H249285   3.951   2.270  12.779 -0.9334  0.7428  0.6253
 8364TIP3   OH249286   2.105   3.162  12.045 -0.2889 -0.5897  0.0638
 8364TIP3    H149287   2.196   3.151  12.073  0.4301 -0.9402 -2.1813
 8364TIP3    H249288   2.109   3.228  11.976 -1.7000 -0.7888 -0.2367
 8365TIP3   OH249289   0.273   2.183  11.928  0.3497  0.0873 -0.6751
 8365TIP3    H149290   0.249   2.268  11.965 -1.4067  0.3305 -2.2167
 8365TIP3    H249291   0.194   2.154  11.881  0.7239 -2.6215  0.1705
 8366TIP3   OH249292   0.251   2.821  12.397 -0.2102 -0.1589  0.1591
 8366TIP3    H149293   0.212   2.736  12.374  0.0685  0.0862 -1.3039
 8366TIP3    H249294   0.264   2.865  12.313 -1.9426  2.0693  0.9505
 8367TIP3   OH249295   7.214   7.471  10.727 -0.0423 -0.3720 -0.0940
 8367TIP3    H149296   7.298   7.490  10.685  0.2090 -1.3512 -0.0695
 8367TIP3    H249297   7.199   7.545  10.787  1.2421 -0.6105  0.5578
 8368TIP3   OH249298   1.643   4.445  12.912  0.6783 -0.6109  0.3080
 8368TIP3    H149299   1.727   4.425  12.873 -0.8521 -0.1818 -3.6481
 8368TIP3    H249300   1.581   4.386  12.869 -1.4223  0.9207  1.0328
 8369TIP3   OH249301   4.543   0.340  12.676  0.7666  0.1570 -0.2524
 8369TIP3    H149302   4.510   0.271  12.618 -1.1853 -1.0025  2.0383
 8369TIP3    H249303   4.635   0.350  12.652  0.3460 -1.0643 -2.6921
 8370TIP3   OH249304   1.273   3.266  10.758 -0.8204  0.5315 -0.2230
 8370TIP3    H149305   1.260   3.311  10.842 -0.0615  0.6512 -0.1598
 8370TIP3    H249306   1.352   3.306  10.722 -0.5394 -0.2608 -0.5017
 8371TIP3   OH249307   5.940   0.411  11.956  0.0876 -0.1746 -0.1544
 8371TIP3    H149308   5.946   0.420  11.861  1.3576 -2.4468 -0.3681
 8371TIP3    H249309   5.915   0.498  11.987  0.2659  0.7922 -2.5028
 8372TIP3   OH249310   1.737   6.698  11.675 -0.8076 -0.0536  0.2018
 8372TIP3    H149311   1.814   6.755  11.671  0.6280 -1.8639  0.9048
 8372TIP3    H249312   1.666   6.757  11.700 -0.0021  1.9585 -1.8972
 8373TIP3   OH249313   6.730   6.213  12.789  0.6690  0.4112 -1.0264
 8373TIP3    H149314   6.716   6.188  12.880 -1.5154  0.5539 -1.2656
 8373TIP3    H249315   6.800   6.278  12.792  0.4169  0.6470  0.5923
 8374TIP3   OH249316   1.894   1.689  12.604 -0.6980  0.1740 -0.1577
 8374TIP3    H149317   1.950   1.662  12.530  0.8623 -0.8376  1.3223
 8374TIP3    H249318   1.843   1.610  12.624 -0.3323  0.1056  0.5126
 8375TIP3   OH249319   6.581   6.471  11.854  0.4315 -0.3845 -0.3932
 8375TIP3    H149320   6.510   6.416  11.819 -0.8127  1.1320 -0.3359
 8375TIP3    H249321   6.621   6.417  11.923 -0.8561 -1.1517 -0.2132
 8376TIP3   OH249322   3.559   0.820  10.540 -0.3996  0.2513  0.0573
 8376TIP3    H149323   3.560   0.896  10.482 -0.1163  1.0061  1.0120
 8376TIP3    H249324   3.521   0.749  10.488  0.8180  0.6124 -1.3808
 8377TIP3   OH249325   5.117   6.464  11.922 -0.2370  0.1308 -0.1004
 8377TIP3    H149326   5.044   6.504  11.969  0.2600  0.9806 -0.0204
 8377TIP3    H249327   5.192   6.473  11.981 -0.1350 -1.0396 -0.0383
 8378TIP3   OH249328   4.913   0.196  11.895 -0.2998  0.1016 -0.2041
 8378TIP3    H149329   4.906   0.101  11.888  0.6074  0.0581 -0.7329
 8378TIP3    H249330   4.914   0.214  11.989  1.5891 -0.6044 -0.0458
 8379TIP3   OH249331   1.658   3.705  13.279  0.5817 -0.3878  0.0601
 8379TIP3    H149332   1.637   3.725  13.370 -0.3243  0.1452 -0.2418
 8379TIP3    H249333   1.696   3.618  13.281  0.5705 -0.3822  0.9497
 8380TIP3   OH249334   5.268   1.336  10.625 -0.4169  0.3093  0.6657
 8380TIP3    H149335   5.203   1.266  10.640 -0.6581  0.1347 -1.0043
 8380TIP3    H249336   5.227   1.414  10.662 -2.0309  0.3774 -1.0532
 8381TIP3   OH249337   1.497   2.010  12.782  0.0451 -0.4889  0.5325
 8381TIP3    H149338   1.553   1.979  12.711  0.9402  0.7523  0.6533
 8381TIP3    H249339   1.522   2.102  12.794  0.1276 -0.7365  2.6540
 8382TIP3   OH249340   6.457   7.093  12.509 -0.8369 -0.1294 -0.0036
 8382TIP3    H149341   6.450   7.065  12.418 -2.3195 -0.0921  0.0805
 8382TIP3    H249342   6.370   7.079  12.545 -0.1533 -0.5256  1.5325
 8383TIP3   OH249343   0.388   3.258  11.065  0.8641 -0.0224 -0.8084
 8383TIP3    H149344   0.387   3.323  11.135 -0.6402 -1.4154  0.5360
 8383TIP3    H249345   0.458   3.288  11.006  2.2293  1.1850  1.2755
 8384TIP3   OH249346   3.517   1.092  11.351 -0.0371 -0.1499  0.0263
 8384TIP3    H149347   3.505   1.142  11.270  0.9084  0.4075  0.2150
 8384TIP3    H249348   3.612   1.090  11.363 -0.1239 -1.0765  0.6036
 8385TIP3   OH249349   5.274   1.005  12.320 -0.1444 -0.1833 -0.1119
 8385TIP3    H149350   5.185   1.026  12.347 -0.2096 -2.0866  1.3480
 8385TIP3    H249351   5.328   1.028  12.397  0.3524 -0.8683 -0.2438
 8386TIP3   OH249352   6.141   7.606  11.081 -1.0755 -0.1376  0.1823
 8386TIP3    H149353   6.223   7.562  11.064 -1.5193 -0.7807 -0.3228
 8386TIP3    H249354   6.138   7.677  11.017 -0.1646  0.9275  1.2709
 8387TIP3   OH249355   1.688   2.259  10.698 -0.0852 -0.2197 -0.0355
 8387TIP3    H149356   1.679   2.164  10.695 -1.0348 -0.1316 -0.4327
 8387TIP3    H249357   1.601   2.291  10.722  0.3277  0.5343  0.5164
 8388TIP3   OH249358   5.647   5.426  11.464 -0.0832 -0.2553 -0.6287
 8388TIP3    H149359   5.574   5.395  11.409  1.5499 -0.1563 -2.9789
 8388TIP3    H249360   5.676   5.506  11.422  2.9991 -1.6097 -1.3191
 8389TIP3   OH249361   1.573   5.263  12.857  0.6136 -0.7176  0.2231
 8389TIP3    H149362   1.582   5.338  12.915  0.1526 -0.5969  0.1411
 8389TIP3    H249363   1.583   5.187  12.914  1.4492 -0.5983  0.2447
 8390TIP3   OH249364   3.811   4.424  12.349 -0.4843 -0.3192 -0.6484
 8390TIP3    H149365   3.839   4.513  12.370  1.2330 -0.7052 -1.1599
 8390TIP3    H249366   3.751   4.435  12.274  2.1652  0.2540 -2.8362
 8391TIP3   OH249367   4.271   0.957  11.424 -0.6150  0.0147 -0.1988
 8391TIP3    H149368   4.235   0.894  11.487  0.7651 -0.2331  0.3850
 8391TIP3    H249369   4.359   0.923  11.404 -0.0219  1.4996 -0.2223
 8392TIP3   OH249370   6.105   7.072  12.420  0.3160 -0.0674  0.1980
 8392TIP3    H149371   6.050   7.151  12.425 -1.2652 -1.1162  0.0979
 8392TIP3    H249372   6.150   7.070  12.505 -1.1124 -0.0672  1.0028
 8393TIP3   OH249373   1.443   1.835  11.760  0.3792  0.0770  0.5472
 8393TIP3    H149374   1.491   1.784  11.825  0.1169  2.3330  2.6992
 8393TIP3    H249375   1.493   1.916  11.751 -1.0162  0.9225 -0.0027
 8394TIP3   OH249376   6.847   1.769  11.308 -0.7665  0.2286  0.3465
 8394TIP3    H149377   6.760   1.763  11.347 -0.2057 -1.3261  1.4328
 8394TIP3    H249378   6.882   1.852  11.341 -0.8687 -0.3626  2.0153
 8395TIP3   OH249379   3.857   1.762  12.780  0.1133 -0.2381 -0.0786
 8395TIP3    H149380   3.793   1.781  12.711  0.5790 -1.6618 -0.9286
 8395TIP3    H249381   3.806   1.721  12.849 -0.3316  1.0670  0.4019
 8396TIP3   OH249382   5.978   2.996  11.527  0.0789 -0.6312  0.1763
 8396TIP3    H149383   5.945   3.084  11.509 -0.1391 -0.4419  1.4500
 8396TIP3    H249384   6.011   2.966  11.442 -0.3045  0.4712 -0.3905
 8397TIP3   OH249385   2.080   6.413  12.024 -0.6711  0.5867 -0.4380
 8397TIP3    H149386   2.054   6.503  12.002  0.5137  1.4235  1.3629
 8397TIP3    H249387   2.033   6.394  12.105  2.2196  1.2168  1.5189
 8398TIP3   OH249388   5.454   7.102  13.164  0.2202  0.6149 -0.5351
 8398TIP3    H149389   5.383   7.067  13.110 -0.4330  1.7273 -0.4185
 8398TIP3    H249390   5.412   7.124  13.247  0.8785  0.5118 -0.1678
 8399TIP3   OH249391   1.914   2.081  13.380 -0.0711 -0.4879  0.0006
 8399TIP3    H149392   1.944   1.990  13.389 -0.6422 -0.6818 -0.0237
 8399TIP3    H249393   1.986   2.125  13.336  0.1880 -0.9455 -0.0452
 8400TIP3   OH249394   4.831   2.150  10.726 -0.5484  0.2391  0.3345
 8400TIP3    H149395   4.802   2.111  10.644  0.4548 -0.1109  0.1365
 8400TIP3    H249396   4.922   2.122  10.736  0.5086  3.0989 -0.2012
 8401TIP3   OH249397   7.509   0.525  11.588 -0.3149  0.4263  0.4960
 8401TIP3    H149398   7.512   0.559  11.499 -0.5646 -1.3575 -0.2363
 8401TIP3    H249399   7.562   0.445  11.585 -0.8635 -0.0126  1.7864
 8402TIP3   OH249400   3.159   6.259  12.805  1.0279  0.1128  0.0750
 8402TIP3    H149401   3.214   6.336  12.816  0.7710  0.1511  1.1255
 8402TIP3    H249402   3.220   6.188  12.783  1.7487 -0.2115  2.7537
 8403TIP3   OH249403   0.014   6.606  11.270 -0.0802  0.0690 -0.3166
 8403TIP3    H149404  -0.032   6.551  11.207  0.3326 -1.0121  0.2805
 8403TIP3    H249405   0.076   6.546  11.313  1.9041  1.4546 -1.0943
 8404TIP3   OH249406   3.569   2.594  10.870  0.3569  0.0153 -0.4921
 8404TIP3    H149407   3.577   2.595  10.965 -0.9568  0.6371 -0.3673
 8404TIP3    H249408   3.647   2.547  10.840  1.2549  0.5889  0.8315
 8405TIP3   OH249409   6.935   6.866  10.278 -0.1644 -0.6159  0.5628
 8405TIP3    H149410   6.917   6.897  10.189 -0.5900  0.2066  0.9322
 8405TIP3    H249411   6.876   6.791  10.289  1.2411 -1.9515 -0.5141
 8406TIP3   OH249412   5.206   5.332  11.534 -0.3272 -0.4449  0.7779
 8406TIP3    H149413   5.141   5.349  11.467  0.0591 -1.3237  0.1636
 8406TIP3    H249414   5.269   5.404  11.526  0.8467 -1.6152 -1.2307
 8407TIP3   OH249415   1.213   6.085  12.385 -0.1582 -0.2224 -0.1115
 8407TIP3    H149416   1.162   6.165  12.376  0.1988  0.2459  1.6818
 8407TIP3    H249417   1.294   6.112  12.429  0.0728 -1.5155  0.3213
 8408TIP3   OH249418   2.073   3.028  13.424  0.3776 -0.4096 -0.0268
 8408TIP3    H149419   2.164   3.040  13.399  0.5396 -1.0052  0.2650
 8408TIP3    H249420   2.023   3.062  13.349  0.8249  0.2310 -0.0427
 8409TIP3   OH249421   5.458   7.558  12.665  0.1284 -0.6078 -0.7547
 8409TIP3    H149422   5.509   7.594  12.737  0.0850 -1.7925 -0.0973
 8409TIP3    H249423   5.459   7.626  12.598  0.2955  0.4602  0.2977
 8410TIP3   OH249424   6.016   1.989  11.683 -0.5784 -0.2389  0.4697
 8410TIP3    H149425   6.029   2.017  11.774  0.5413  1.3309 -0.1308
 8410TIP3    H249426   6.085   2.033  11.634 -1.0708 -1.1707 -1.1461
 8411TIP3   OH249427   3.050   4.904  11.930  0.3772  0.0810 -0.2018
 8411TIP3    H149428   2.962   4.925  11.963  0.6426 -0.2132  0.7149
 8411TIP3    H249429   3.055   4.808  11.936  0.0536 -0.1009 -2.1015
 8412TIP3   OH249430   6.700   2.890  12.548  0.0151  0.1140 -0.8061
 8412TIP3    H149431   6.635   2.880  12.617 -0.5510 -0.0089 -1.3450
 8412TIP3    H249432   6.739   2.976  12.563  0.3490 -0.1734  0.0382
 8413TIP3   OH249433   2.202   2.584  13.289  0.1431  0.5349  0.1535
 8413TIP3    H149434   2.282   2.562  13.335  0.6165  0.8862 -0.4786
 8413TIP3    H249435   2.210   2.678  13.269  0.0442  0.3587 -0.7923
 8414TIP3   OH249436   6.085   4.930  13.661  0.2733  0.1752  0.6617
 8414TIP3    H149437   5.998   4.955  13.694 -0.6961 -0.1844 -1.4716
 8414TIP3    H249438   6.080   4.835  13.649  0.3259  0.3570 -1.0857
 8415TIP3   OH249439   1.620   2.321  13.414  0.2245 -0.2433  0.5802
 8415TIP3    H149440   1.624   2.414  13.439 -1.7333  0.3351 -0.9546
 8415TIP3    H249441   1.558   2.282  13.476 -2.3944  0.5524 -1.3466
 8416TIP3   OH249442   3.663   5.613  13.002 -0.4250 -0.5679  0.0553
 8416TIP3    H149443   3.714   5.668  12.942  0.9467  0.0351  1.6937
 8416TIP3    H249444   3.681   5.649  13.089 -3.0304 -0.8721  0.8000
 8417TIP3   OH249445   1.472   5.649  11.638  0.0011  0.1226 -0.3887
 8417TIP3    H149446   1.384   5.669  11.606 -1.0631 -0.8183  1.7312
 8417TIP3    H249447   1.487   5.558  11.612 -1.1407 -0.8732  2.0845
 8418TIP3   OH249448   3.254   7.224  11.803  0.8777  0.3730  0.0949
 8418TIP3    H149449   3.234   7.143  11.755  0.2303 -0.0734  1.1020
 8418TIP3    H249450   3.216   7.294  11.749 -0.5250 -0.1887  0.3296
 8419TIP3   OH249451   4.185   3.211  12.844  0.0657  0.1428  0.0861
 8419TIP3    H149452   4.136   3.170  12.915  1.1237 -0.0557  0.7349
 8419TIP3    H249453   4.188   3.304  12.866 -0.7241  0.2893 -0.3966
 8420TIP3   OH249454   5.030   3.282  12.769  0.0639  0.2928  0.3117
 8420TIP3    H149455   5.115   3.264  12.730 -0.2011  1.3867 -0.8259
 8420TIP3    H249456   5.018   3.211  12.833  1.3266 -0.4986 -0.2775
 8421TIP3   OH249457   5.580   2.931  13.221 -0.3259 -0.1244  0.1520
 8421TIP3    H149458   5.664   2.888  13.208 -0.4849  0.2386 -2.8054
 8421TIP3    H249459   5.595   2.991  13.294  1.6291 -0.8965  0.4525
 8422TIP3   OH249460   0.971   0.439  11.356  0.6338 -0.3562  0.2358
 8422TIP3    H149461   0.992   0.377  11.426 -2.4118 -1.0785  0.6475
 8422TIP3    H249462   0.884   0.413  11.326  0.3381  2.1580 -1.3797
 8423TIP3   OH249463   4.674   7.392  12.898  0.3700 -0.6787 -0.0428
 8423TIP3    H149464   4.670   7.304  12.936 -1.8543 -0.0423  1.4284
 8423TIP3    H249465   4.729   7.442  12.959 -1.1234 -0.2933  1.0739
 8424TIP3   OH249466   4.016   5.700  12.690 -0.0241 -0.0775  0.5870
 8424TIP3    H149467   4.032   5.607  12.676  1.5314  0.3785 -1.1708
 8424TIP3    H249468   4.080   5.726  12.756  1.4179  0.1963 -0.8316
 8425TIP3   OH249469   7.238   2.896  11.528  0.1489 -0.2241 -0.6522
 8425TIP3    H149470   7.190   2.887  11.611  1.4571  0.7458  0.2460
 8425TIP3    H249471   7.171   2.883  11.461 -1.2459  0.4045  0.5444
 8426TIP3   OH249472   6.660   0.853  12.998  0.3207 -0.4931  0.0498
 8426TIP3    H149473   6.596   0.917  13.028  0.3131 -1.1496  1.5367
 8426TIP3    H249474   6.610   0.772  12.987  0.6761 -0.7329  0.1558
 8427TIP3   OH249475   0.716   4.459  13.444 -0.2596  0.0077  0.4028
 8427TIP3    H149476   0.622   4.472  13.450 -0.1256  1.4107 -0.2185
 8427TIP3    H249477   0.751   4.544  13.418  1.1256 -0.6327  0.0513
 8428TIP3   OH249478   0.563   1.890  12.129  0.0034 -0.1339  0.3797
 8428TIP3    H149479   0.640   1.849  12.169 -0.3411 -0.5414  0.6350
 8428TIP3    H249480   0.535   1.827  12.063 -0.5125 -0.3035  0.7536
 8429TIP3   OH249481   7.559   6.575  11.554 -0.6561 -0.5051  0.3001
 8429TIP3    H149482   7.643   6.535  11.575 -0.4689  0.8919  2.5433
 8429TIP3    H249483   7.549   6.562  11.459  1.4382 -1.8610  0.2087
 8430TIP3   OH249484   4.812   1.420  12.752  0.0642 -0.1235  0.0464
 8430TIP3    H149485   4.733   1.472  12.756 -1.3074 -2.0708 -0.3014
 8430TIP3    H249486   4.802   1.354  12.820  1.0469 -0.8489 -0.4691
 8431TIP3   OH249487   6.651   2.030  12.706 -0.5797 -0.0496  0.1056
 8431TIP3    H149488   6.594   2.042  12.629 -1.7801 -1.6728  0.7003
 8431TIP3    H249489   6.734   2.071  12.680 -0.9378 -0.5469 -2.0621
 8432TIP3   OH249490   1.866   5.381  11.416  0.6097  0.1617 -0.2544
 8432TIP3    H149491   1.776   5.356  11.395  0.7042  0.0321 -0.5135
 8432TIP3    H249492   1.920   5.319  11.367  0.8425 -0.4903  0.7902
 8433TIP3   OH249493   4.692   5.748  10.989 -0.3944 -0.1802 -0.3283
 8433TIP3    H149494   4.671   5.841  10.978 -0.3295 -0.1947 -0.5736
 8433TIP3    H249495   4.613   5.711  11.029  0.2912  0.3479  1.6019
 8434TIP3   OH249496   2.563   0.926  12.077 -0.1579  0.0756 -0.5080
 8434TIP3    H149497   2.651   0.916  12.041 -0.9334  0.5068 -2.6730
 8434TIP3    H249498   2.555   1.020  12.096  0.0915 -0.0795  0.3874
 8435TIP3   OH249499   2.026   0.658  10.297  0.2410  0.4701  0.0107
 8435TIP3    H149500   2.090   0.722  10.327 -0.8474  1.3545  0.5272
 8435TIP3    H249501   2.016   0.597  10.370 -1.6186  2.0138  1.1581
 8436TIP3   OH249502   3.764   4.737  12.361  0.0109  0.6785  0.0845
 8436TIP3    H149503   3.808   4.707  12.440  0.3162 -0.0270 -0.3481
 8436TIP3    H249504   3.671   4.739  12.385 -0.4706 -3.5671 -0.6828
 8437TIP3   OH249505   6.310   3.331  11.502  0.0824  0.2672  0.7093
 8437TIP3    H149506   6.293   3.289  11.418 -0.8083  1.7350  0.1111
 8437TIP3    H249507   6.367   3.405  11.481  0.9530 -0.1274  1.6083
 8438TIP3   OH249508   1.410   5.351  12.407  0.1372 -0.1084 -0.1683
 8438TIP3    H149509   1.327   5.398  12.395  0.4732  0.8692  1.1079
 8438TIP3    H249510   1.400   5.304  12.490  1.2300  0.9173  0.5800
 8439TIP3   OH249511   1.208   6.388  11.896  0.4759 -0.1592 -0.3186
 8439TIP3    H149512   1.159   6.468  11.916 -1.7878 -1.7322  0.8432
 8439TIP3    H249513   1.238   6.356  11.981  3.1299  0.4100 -0.9447
 8440TIP3   OH249514   3.185   7.067  11.590  0.5681 -0.5734  0.3433
 8440TIP3    H149515   3.091   7.057  11.573 -0.1038  1.9445  1.9799
 8440TIP3    H249516   3.227   7.054  11.505 -1.2074 -2.1586 -0.3446
 8441TIP3   OH249517   2.880   1.752  12.139  0.1395 -0.2412 -0.1119
 8441TIP3    H149518   2.851   1.754  12.048  1.5133 -1.5447 -0.6142
 8441TIP3    H249519   2.975   1.739  12.133  0.1683 -0.9507  1.5037
 8442TIP3   OH249520   1.609   7.320  13.402  0.8127  0.1336  0.5148
 8442TIP3    H149521   1.538   7.278  13.451  2.4440 -3.2340  0.2708
 8442TIP3    H249522   1.668   7.353  13.470  0.0226  1.1165  0.7340
 8443TIP3   OH249523   0.291   1.166  13.000  0.2874  0.2901 -0.0541
 8443TIP3    H149524   0.356   1.189  12.933  0.3873 -0.1154 -0.1030
 8443TIP3    H249525   0.303   1.232  13.068 -0.5830  1.3927 -0.9203
 8444TIP3   OH249526   7.097   3.180  11.727  0.3226  0.0646  0.1887
 8444TIP3    H149527   7.007   3.189  11.758  0.4415 -0.1068  0.5852
 8444TIP3    H249528   7.124   3.092  11.755  0.7103  0.2240  0.3191
 8445TIP3   OH249529   0.743   7.055  13.084  0.1016 -0.7480  0.5930
 8445TIP3    H149530   0.712   7.126  13.140 -0.9900 -0.3035 -0.5354
 8445TIP3    H249531   0.814   7.094  13.033 -2.1479  0.4549 -1.9192
 8446TIP3   OH249532   4.356   6.375  11.853  0.1942 -0.3264  0.3290
 8446TIP3    H149533   4.426   6.315  11.825  3.6007  3.2967  0.1237
 8446TIP3    H249534   4.327   6.416  11.771 -1.5364 -1.0424  0.5489
 8447TIP3   OH249535   7.546   7.359  11.249 -0.8427 -0.1439 -0.1676
 8447TIP3    H149536   7.608   7.412  11.300  0.9182 -1.8991 -0.3370
 8447TIP3    H249537   7.475   7.419  11.228 -0.3199  1.3860  2.0051
 8448TIP3   OH249538   2.180   1.042  13.107 -0.3923  0.1570 -0.5660
 8448TIP3    H149539   2.254   0.987  13.133 -0.1331  0.6699 -0.2204
 8448TIP3    H249540   2.117   0.980  13.071 -0.0282 -0.3530 -0.3444
 8449TIP3   OH249541   2.830   4.470  12.180  0.4813 -0.0907  0.3238
 8449TIP3    H149542   2.786   4.544  12.221  0.6285 -0.3649  0.9786
 8449TIP3    H249543   2.918   4.471  12.216  1.7956  1.7721 -2.5936
 8450TIP3   OH249544   5.584   1.693  12.999  0.1705  0.5720 -0.5685
 8450TIP3    H149545   5.504   1.687  12.948  1.4231 -0.0206 -2.5686
 8450TIP3    H249546   5.581   1.617  13.058 -0.9283  0.8230 -0.2793
 8451TIP3   OH249547   6.274   6.748  12.100  0.2159  0.1280 -0.0830
 8451TIP3    H149548   6.302   6.782  12.014  1.6185 -0.5660  0.0695
 8451TIP3    H249549   6.236   6.663  12.080  1.4319 -0.4627  0.0726
 8452TIP3   OH249550   4.054   0.572  12.978  0.0852  0.3591 -0.2758
 8452TIP3    H149551   4.017   0.486  12.958  0.4291  0.4622 -1.4185
 8452TIP3    H249552   4.115   0.589  12.906  0.5715  1.2361  0.3298
 8453TIP3   OH249553   0.110   3.402  11.101  0.2700  0.0468  0.2333
 8453TIP3    H149554   0.201   3.416  11.077  0.4107 -0.3157  0.5416
 8453TIP3    H249555   0.108   3.411  11.196  0.1931 -0.9819  0.3471
 8454TIP3   OH249556   1.972   2.344  10.761 -0.1118 -0.4667 -0.5638
 8454TIP3    H149557   1.880   2.350  10.735 -0.7170  1.3675  1.6942
 8454TIP3    H249558   1.999   2.257  10.732 -3.2751 -2.0619  0.8428
 8455TIP3   OH249559   5.357   0.460  11.974 -0.5622  0.4301  0.5532
 8455TIP3    H149560   5.352   0.556  11.971  0.7508  0.5222  0.2299
 8455TIP3    H249561   5.281   0.430  11.924 -0.1893  1.3513 -0.6280
 8456TIP3   OH249562   0.929   1.157  11.189  0.0212  0.2288 -0.4925
 8456TIP3    H149563   0.909   1.159  11.096  1.2074 -0.5349 -0.7819
 8456TIP3    H249564   0.843   1.164  11.232 -0.4339  2.0890 -1.5902
 8457TIP3   OH249565   5.090   2.327  12.114  0.4341  0.6191 -0.0958
 8457TIP3    H149566   5.043   2.248  12.088 -0.8126  1.1053  0.6031
 8457TIP3    H249567   5.182   2.307  12.098  0.0676 -0.6825 -0.6631
 8458TIP3   OH249568   0.620   5.792  13.334  0.3561 -0.3826  0.0539
 8458TIP3    H149569   0.574   5.866  13.375  0.0273  0.1425 -1.1961
 8458TIP3    H249570   0.703   5.830  13.304  0.4311 -0.6600 -0.0864
 8459TIP3   OH249571   7.242   5.142  10.887  0.3591  0.5321 -0.1229
 8459TIP3    H149572   7.211   5.065  10.838  1.3600 -0.5884  0.9311
 8459TIP3    H249573   7.186   5.213  10.856 -0.8442 -0.6742 -0.8911
 8460TIP3   OH249574   7.215   2.922  12.381 -0.2978  0.2059 -0.0095
 8460TIP3    H149575   7.245   2.832  12.369 -0.5612  0.0868  0.2275
 8460TIP3    H249576   7.282   2.962  12.436 -1.3920 -0.5370  1.9780
 8461TIP3   OH249577   6.172   1.349  11.427 -0.3334  0.1631 -0.6745
 8461TIP3    H149578   6.095   1.313  11.383 -0.7471  0.5884 -0.3071
 8461TIP3    H249579   6.180   1.298  11.508 -0.0232 -0.1089 -0.8735
 8462TIP3   OH249580   6.265   5.627  12.598  0.0326  0.2624  0.6040
 8462TIP3    H149581   6.259   5.553  12.659 -0.1034  0.5354  0.9251
 8462TIP3    H249582   6.184   5.624  12.548 -0.1319  0.4001  0.8586
 8463TIP3   OH249583   4.679   6.534  11.813 -0.0676  0.1876 -0.0089
 8463TIP3    H149584   4.710   6.470  11.877  4.1660  2.2654  0.4072
 8463TIP3    H249585   4.613   6.585  11.860 -0.6566 -1.3605  0.9374
 8464TIP3   OH249586   2.823   6.123  11.257  0.0471  0.1669  0.3230
 8464TIP3    H149587   2.764   6.076  11.315  1.0261 -1.2627  0.2161
 8464TIP3    H249588   2.911   6.100  11.287  0.5619  0.5394 -0.8103
 8465TIP3   OH249589   4.213   4.579  11.701  0.6027  0.4028  0.0477
 8465TIP3    H149590   4.218   4.634  11.779  0.3019  0.5134 -0.0100
 8465TIP3    H249591   4.288   4.606  11.648  0.7565  0.3892  0.2572
 8466TIP3   OH249592   1.372   3.313  12.808  0.1647 -0.2119  0.3733
 8466TIP3    H149593   1.420   3.266  12.875 -1.5132 -2.4716  0.1150
 8466TIP3    H249594   1.309   3.366  12.857 -0.6589 -1.4034  0.6476
 8467TIP3   OH249595   0.808   5.690  12.408  0.5316 -0.1703 -0.1185
 8467TIP3    H149596   0.819   5.636  12.486 -0.3160 -0.0816  0.0775
 8467TIP3    H249597   0.869   5.763  12.420  0.6716 -0.3527  0.2808
 8468TIP3   OH249598   4.659   5.286  12.449 -0.0992  0.7085 -0.3141
 8468TIP3    H149599   4.573   5.323  12.467 -0.3084  0.1097 -0.0467
 8468TIP3    H249600   4.705   5.289  12.533 -0.6804 -1.0650  0.1170
 8469TIP3   OH249601   6.350   0.779  12.806 -0.6898 -0.5246 -0.7573
 8469TIP3    H149602   6.403   0.700  12.820  0.1262  0.2413  0.6797
 8469TIP3    H249603   6.292   0.783  12.882 -1.2869 -0.1631 -1.2210
 8470TIP3   OH249604   4.205   3.674  10.721 -0.4477 -0.0056  0.6051
 8470TIP3    H149605   4.190   3.668  10.626 -0.1967 -0.0755  0.5717
 8470TIP3    H249606   4.172   3.761  10.744  0.4575  0.4381  0.2771
 8471TIP3   OH249607   1.802   2.829  13.659 -0.0994  0.2386 -0.2315
 8471TIP3    H149608   1.854   2.761  13.703  0.3370 -0.3511 -1.5937
 8471TIP3    H249609   1.713   2.814  13.690 -0.0645 -1.1907 -0.7585
 8472TIP3   OH249610   4.851   7.679  12.545  0.2371 -0.3434  0.3857
 8472TIP3    H149611   4.763   7.644  12.537 -0.7424  1.3814  2.5672
 8472TIP3    H249612   4.873   7.710  12.457 -2.8837  2.5433  0.4259
 8473TIP3   OH249613   3.372   3.795  11.171 -0.1795 -0.0968  0.0586
 8473TIP3    H149614   3.334   3.876  11.204 -0.1317 -1.4065  3.7813
 8473TIP3    H249615   3.297   3.742  11.145 -0.4530 -0.1091  0.8579
 8474TIP3   OH249616   6.595   3.295  11.682 -0.1894 -0.0229  0.4382
 8474TIP3    H149617   6.621   3.384  11.705 -0.7377  0.0019  0.9961
 8474TIP3    H249618   6.585   3.297  11.587 -0.2559  0.5291  0.4521
 8475TIP3   OH249619   6.661   0.220  11.159 -0.0748  0.2112 -0.3308
 8475TIP3    H149620   6.610   0.139  11.153  1.1072 -0.4558 -4.0217
 8475TIP3    H249621   6.712   0.210  11.240 -1.3241 -1.8301  0.2961
 8476TIP3   OH249622   3.615   6.305  10.920 -0.6680 -0.7397 -0.7324
 8476TIP3    H149623   3.530   6.261  10.923 -1.8861  1.4827  0.9175
 8476TIP3    H249624   3.594   6.396  10.898  1.3289 -0.2148 -0.6599
 8477TIP3   OH249625   7.316   5.162  12.444 -0.2086  0.0551 -0.1393
 8477TIP3    H149626   7.273   5.175  12.529  1.7821 -0.1212  0.9618
 8477TIP3    H249627   7.404   5.199  12.456  0.3086 -0.4867 -1.9488
 8478TIP3   OH249628   7.230   7.303  11.587 -0.2695 -0.3469 -0.0316
 8478TIP3    H149629   7.288   7.247  11.536 -0.1932  0.9363 -1.4232
 8478TIP3    H249630   7.197   7.368  11.524 -0.1680  1.3171  1.5465
 8479TIP3   OH249631   0.814   0.580  12.340  0.0521 -0.1089  0.2363
 8479TIP3    H149632   0.861   0.632  12.405 -0.3177  0.8279 -0.2284
 8479TIP3    H249633   0.819   0.632  12.260 -0.0523 -0.9466 -0.3255
 8480TIP3   OH249634   0.518   6.979  12.908 -0.5025  0.4789  0.0795
 8480TIP3    H149635   0.581   7.038  12.951 -0.9165  0.9087  0.1140
 8480TIP3    H249636   0.515   7.009  12.818 -1.6378  1.3284  0.3795
 8481TIP3   OH249637   5.064   0.031  11.107  0.0520 -0.3300  0.0004
 8481TIP3    H149638   4.975   0.037  11.073 -0.2909 -1.6612  0.6239
 8481TIP3    H249639   5.083   0.119  11.140 -1.4933 -0.3409  0.9800
 8482TIP3   OH249640   0.836   5.568  10.394  0.3615  0.4994  0.2058
 8482TIP3    H149641   0.811   5.567  10.487  1.2029  3.1521  0.5388
 8482TIP3    H249642   0.754   5.584  10.348 -0.1617 -1.4203  0.3924
 8483TIP3   OH249643   6.794   3.800  11.134  0.0982  0.2768 -0.2685
 8483TIP3    H149644   6.762   3.839  11.052 -0.0324  0.3603 -0.1785
 8483TIP3    H249645   6.735   3.725  11.149  0.0622  0.3188 -0.2011
 8484TIP3   OH249646   1.370   2.205  10.794  0.1726 -0.0282 -0.4257
 8484TIP3    H149647   1.280   2.175  10.785  0.1673 -1.0393  2.0576
 8484TIP3    H249648   1.366   2.299  10.783 -1.3900  0.0563  0.5673
 8485TIP3   OH249649   6.735   2.021  10.881 -0.1042 -0.5916  0.1679
 8485TIP3    H149650   6.715   1.999  10.972 -0.6480  0.2245  0.2592
 8485TIP3    H249651   6.768   2.111  10.885 -0.6304 -0.3606 -0.4936
 8486TIP3   OH249652   6.203   5.092  10.946 -0.0778  0.1737  0.4207
 8486TIP3    H149653   6.205   5.071  10.852 -0.6539  1.8433  0.0020
 8486TIP3    H249654   6.288   5.063  10.979  0.7688  0.9942 -0.9593
 8487TIP3   OH249655   0.744   4.356  12.794  0.4067 -0.8843 -0.3635
 8487TIP3    H149656   0.669   4.384  12.741  0.7712 -1.4307 -1.1938
 8487TIP3    H249657   0.803   4.314  12.732  0.7338 -1.7808  0.5215
 8488TIP3   OH249658   4.467   4.713  11.600  0.3431  0.3197  0.2779
 8488TIP3    H149659   4.489   4.760  11.520  0.7304 -1.8533 -0.9609
 8488TIP3    H249660   4.552   4.697  11.642  0.5219 -1.4728 -0.6572
 8489TIP3   OH249661   2.064   6.044  10.930 -0.0345  0.0036  0.1618
 8489TIP3    H149662   2.148   6.007  10.903  0.0097  0.3865 -0.2312
 8489TIP3    H249663   2.086   6.121  10.981 -0.1488  0.0323  0.1687
 8490TIP3   OH249664   4.341   4.265  12.262  0.1327  0.4576 -0.1320
 8490TIP3    H149665   4.433   4.272  12.287 -0.3166 -0.5446  2.0604
 8490TIP3    H249666   4.300   4.344  12.297 -0.4726 -0.8871  2.5001
 8491TIP3   OH249667   0.997   5.806  10.848  0.3860 -0.5712 -0.7076
 8491TIP3    H149668   0.906   5.835  10.840  0.6877  1.7187  2.3257
 8491TIP3    H249669   0.992   5.721  10.891 -0.3564 -0.0398  0.3085
 8492TIP3   OH249670   2.319   1.487  11.460  0.5404  0.0802  0.1896
 8492TIP3    H149671   2.247   1.425  11.452  0.7962 -0.1218 -0.6750
 8492TIP3    H249672   2.305   1.549  11.388  1.4758 -0.2383 -0.2914
 8493TIP3   OH249673   5.098   2.105  10.967  0.2381  0.0875  0.2332
 8493TIP3    H149674   5.037   2.049  11.015  0.1847 -0.2856 -0.2566
 8493TIP3    H249675   5.052   2.188  10.956  0.1798  0.1119  0.6604
 8494TIP3   OH249676   0.477   7.119  13.254  0.0254  0.4482  0.2172
 8494TIP3    H149677   0.407   7.183  13.265 -1.6469 -0.3884 -3.8341
 8494TIP3    H249678   0.555   7.171  13.236 -0.2938  1.3612  1.3973
 8495TIP3   OH249679   6.362   1.055  11.338  0.9691 -0.2761 -0.2417
 8495TIP3    H149680   6.430   1.122  11.347  0.2183  0.5153 -0.3054
 8495TIP3    H249681   6.295   1.081  11.401  1.1424 -1.5896  0.5132
 8496TIP3   OH249682   0.598   5.921  12.644  0.1382 -0.1134  0.2352
 8496TIP3    H149683   0.643   5.950  12.723  0.7585 -1.2483  0.3057
 8496TIP3    H249684   0.667   5.913  12.578 -0.4395  1.3181 -0.5969
 8497TIP3   OH249685   4.927   2.626  11.685  0.2120 -0.4343 -0.3068
 8497TIP3    H149686   4.868   2.664  11.620 -0.0348  0.5154  0.4454
 8497TIP3    H249687   4.880   2.635  11.768  0.8214 -0.9568  0.1054
 8498TIP3   OH249688   5.557   5.321  11.011  0.1997 -0.1712 -0.1115
 8498TIP3    H149689   5.498   5.336  10.937  0.0233  0.7134  0.1947
 8498TIP3    H249690   5.561   5.406  11.056 -0.6663 -0.9869  1.6080
 8499TIP3   OH249691   3.666   5.944  11.070 -0.4943 -0.5502  0.3818
 8499TIP3    H149692   3.714   5.965  11.150  0.6541 -0.6667 -0.2485
 8499TIP3    H249693   3.575   5.963  11.091 -0.0837  0.4751  1.3632
 8500TIP3   OH249694   7.373   6.449  11.761 -0.1722 -0.4850  0.6437
 8500TIP3    H149695   7.295   6.458  11.706 -0.3959  3.5095  1.3127
 8500TIP3    H249696   7.446   6.471  11.704  0.1810 -1.3209  0.7527
 8501TIP3   OH249697   3.537   4.724  12.495  0.0598  0.1590  0.0309
 8501TIP3    H149698   3.532   4.793  12.561  2.9475 -0.6718  1.2514
 8501TIP3    H249699   3.485   4.652  12.531  0.9841 -0.0022  1.0991
 8502TIP3   OH249700   0.593   0.671  11.123  0.3264 -0.0132 -0.0156
 8502TIP3    H149701   0.643   0.713  11.193 -2.2310  0.3209  1.7623
 8502TIP3    H249702   0.652   0.605  11.088  1.8014 -0.0690  2.3498
 8503TIP3   OH249703   6.473   1.599  11.834 -0.3016  0.2453 -0.2823
 8503TIP3    H149704   6.545   1.652  11.800 -0.1573  0.6795  0.6666
 8503TIP3    H249705   6.403   1.663  11.851 -0.6030 -0.0562 -0.3797
 8504TIP3   OH249706   4.006   4.851  12.603  0.4185  0.0485  0.0701
 8504TIP3    H149707   4.037   4.854  12.512  0.8376  0.0551  0.2134
 8504TIP3    H249708   3.987   4.942  12.625  0.6142  0.0844  0.0910
 8505TIP3   OH249709   5.860   2.568  12.113  0.5917 -0.0404  0.3517
 8505TIP3    H149710   5.815   2.502  12.060  0.2163  0.6269 -0.1933
 8505TIP3    H249711   5.860   2.647  12.058 -0.0317  0.7536  1.4357
 8506TIP3   OH249712   6.704   4.835  11.884 -0.0988 -0.6670 -0.3594
 8506TIP3    H149713   6.767   4.766  11.861 -0.9152 -1.1027 -1.3602
 8506TIP3    H249714   6.750   4.889  11.948  1.3521 -0.8968 -1.1633
 8507TIP3   OH249715   3.407   0.181  10.900 -0.0415  0.0279  0.1207
 8507TIP3    H149716   3.446   0.093  10.894 -1.4641 -0.6738  0.7154
 8507TIP3    H249717   3.410   0.202  10.993 -0.5082  0.2239  0.0936
 8508TIP3   OH249718   2.774   2.805  12.869  0.0066  0.3684  0.1827
 8508TIP3    H149719   2.857   2.766  12.895 -1.0206 -0.2582  3.0315
 8508TIP3    H249720   2.746   2.854  12.947 -1.6359  1.7117 -1.1791
 8509TIP3   OH249721   7.637   1.222  11.081 -0.0475 -0.2050 -0.3356
 8509TIP3    H149722   7.590   1.142  11.056 -0.9224 -0.4465  1.8511
 8509TIP3    H249723   7.572   1.292  11.071  0.7400  0.3090 -2.3247
 8510TIP3   OH249724   6.465   2.567  11.501  0.4260  0.0675  0.1450
 8510TIP3    H149725   6.515   2.635  11.548 -0.3542  0.2320  0.7523
 8510TIP3    H249726   6.450   2.499  11.566 -0.8826  0.4095  0.2108
 8511TIP3   OH249727   4.254   7.394  12.620 -0.4522  0.2161 -0.1684
 8511TIP3    H149728   4.315   7.347  12.676  0.3220  1.4955  0.0966
 8511TIP3    H249729   4.261   7.485  12.648 -2.6236  0.3798 -0.0201
 8512TIP3   OH249730   4.508   0.011  11.248  0.3567  0.5877 -0.0955
 8512TIP3    H149731   4.518  -0.039  11.329 -3.0231 -0.8312 -0.4096
 8512TIP3    H249732   4.479   0.098  11.276  1.1217  0.7485  0.2369
 8513TIP3   OH249733   6.858   0.364  10.576 -0.1230 -0.1461 -0.1922
 8513TIP3    H149734   6.870   0.366  10.481  0.7511 -0.5199 -0.1057
 8513TIP3    H249735   6.868   0.455  10.603  0.3558 -0.1363 -0.3852
 8514TIP3   OH249736   3.695   6.020  12.040 -0.2352  0.3688 -0.2570
 8514TIP3    H149737   3.663   6.067  11.964  2.3436 -0.3610 -1.9448
 8514TIP3    H249738   3.723   6.089  12.101 -2.1853  0.9560  0.0280
 8515TIP3   OH249739   4.434   0.426  12.280 -0.4118 -0.2858 -0.0483
 8515TIP3    H149740   4.388   0.499  12.239  1.6749  1.4395  0.4823
 8515TIP3    H249741   4.504   0.405  12.218  0.3004 -0.3959  0.7834
 8516TIP3   OH249742   7.363   6.871  11.046  0.4970  0.4815  0.0928
 8516TIP3    H149743   7.405   6.952  11.075  1.1554  0.3349 -0.4234
 8516TIP3    H249744   7.289   6.900  10.991 -0.0537  0.7372  0.9501
 8517TIP3   OH249745   5.728   3.696  11.376 -0.3994 -0.6129 -0.7762
 8517TIP3    H149746   5.703   3.751  11.450  0.1517 -0.3093 -0.8066
 8517TIP3    H249747   5.765   3.617  11.415  1.2035  0.1401 -0.6900
 8518TIP3   OH249748   6.404   0.013  12.439 -0.1126 -0.3281  0.1837
 8518TIP3    H149749   6.393  -0.032  12.523  0.3190  0.2745  0.5680
 8518TIP3    H249750   6.499   0.022  12.429 -0.1896  2.0629  0.9679
 8519TIP3   OH249751   5.734   2.479  11.697  0.5377  0.5987  0.0609
 8519TIP3    H149752   5.724   2.482  11.792  1.6683  0.7477  0.1953
 8519TIP3    H249753   5.779   2.396  11.681 -1.3801 -0.3828 -0.5459
 8520TIP3   OH249754   3.670   2.946  12.735 -0.2170  0.0023 -0.5040
 8520TIP3    H149755   3.758   2.954  12.699 -0.4261  0.3438 -0.9388
 8520TIP3    H249756   3.652   2.852  12.733 -0.2983  0.0250 -1.4775
 8521TIP3   OH249757   0.968   3.832  10.963 -0.0027  0.6457  0.3011
 8521TIP3    H149758   0.977   3.926  10.977  0.9023  0.5732  0.2906
 8521TIP3    H249759   0.900   3.805  11.025 -0.7194  1.3994 -0.1362
 8522TIP3   OH249760   2.687   0.166  11.828  0.2001  0.7979 -0.1084
 8522TIP3    H149761   2.758   0.150  11.765  2.4066 -1.0981  2.6588
 8522TIP3    H249762   2.619   0.105  11.802  1.1415 -0.0999 -0.5406
 8523TIP3   OH249763   3.544   0.301  12.459  0.5984 -0.7474 -0.2522
 8523TIP3    H149764   3.629   0.266  12.488  1.8530 -0.0697 -2.7835
 8523TIP3    H249765   3.562   0.393  12.440 -0.6877 -0.6221 -0.9661
 8524TIP3   OH249766   5.109   6.596  12.432 -1.0805  0.1370 -0.2549
 8524TIP3    H149767   5.161   6.555  12.363 -0.2981 -0.3609  0.6075
 8524TIP3    H249768   5.152   6.680  12.448 -0.9735  0.0456 -0.0534
 8525TIP3   OH249769   4.651   6.767  10.710  0.3950  0.3250 -0.1818
 8525TIP3    H149770   4.598   6.839  10.744 -0.5769 -0.9412  1.1283
 8525TIP3    H249771   4.643   6.699  10.777  1.5682 -0.8653 -1.2148
 8526TIP3   OH249772   6.422   4.333  10.778 -0.3109 -0.1918  0.0255
 8526TIP3    H149773   6.348   4.306  10.833  1.2614 -1.7577  1.4911
 8526TIP3    H249774   6.480   4.380  10.838  0.6110 -0.3188 -0.7473
 8527TIP3   OH249775   1.083   3.623  12.286  0.5599 -0.0271 -0.3219
 8527TIP3    H149776   1.052   3.710  12.310 -0.0656 -0.0030 -1.1653
 8527TIP3    H249777   1.016   3.563  12.320  2.1211 -0.4053  2.3209
 8528TIP3   OH249778   1.013   4.004  11.960 -0.4470  0.0414  0.3934
 8528TIP3    H149779   0.976   3.959  11.884  0.1091  1.4127 -0.7377
 8528TIP3    H249780   1.106   4.010  11.941 -0.4745  1.4548  0.5854
 8529TIP3   OH249781   5.858   6.566  11.023  0.0096  0.0048 -0.1748
 8529TIP3    H149782   5.784   6.525  10.978 -0.4837  1.2330 -0.5198
 8529TIP3    H249783   5.900   6.619  10.955  0.1987  0.6458  0.4359
 8530TIP3   OH249784   1.957   6.892  12.231 -0.6219  0.2716  0.4263
 8530TIP3    H149785   2.047   6.880  12.202 -1.0665 -0.3557 -0.7405
 8530TIP3    H249786   1.965   6.924  12.322  0.7415 -0.7039  0.6724
 8531TIP3   OH249787   0.397   5.792  11.515 -0.3222  0.1669 -0.6357
 8531TIP3    H149788   0.338   5.720  11.492  0.4046 -0.2840 -1.1499
 8531TIP3    H249789   0.436   5.765  11.599 -0.6533  0.3499 -0.4203
 8532TIP3   OH249790   3.843   1.585  11.548  0.0856 -0.0883 -0.0745
 8532TIP3    H149791   3.809   1.621  11.629  0.0457  1.8950 -0.9181
 8532TIP3    H249792   3.767   1.545  11.505  0.0885 -1.0507  0.7690
 8533TIP3   OH249793   3.798   1.217  11.449  0.0823 -0.4107 -0.0837
 8533TIP3    H149794   3.861   1.270  11.499 -0.4566 -0.0799  0.2547
 8533TIP3    H249795   3.850   1.177  11.380  0.7471 -0.4648  0.4331
 8534TIP3   OH249796   4.221   5.670  12.401 -0.5018  0.5223 -0.0910
 8534TIP3    H149797   4.210   5.620  12.481 -1.3960  0.0910 -0.4751
 8534TIP3    H249798   4.218   5.605  12.331 -0.9629  1.0322 -0.5540
 8535TIP3   OH249799   7.371   4.812  11.338  0.3335  0.1788 -0.0383
 8535TIP3    H149800   7.359   4.906  11.327 -2.1859  0.1047  1.2163
 8535TIP3    H249801   7.366   4.777  11.249 -0.3916  1.1214 -0.3918
 8536TIP3   OH249802   0.440   3.707  12.248  0.4930 -0.3797 -0.3412
 8536TIP3    H149803   0.444   3.794  12.287 -2.6470  0.0692 -0.7797
 8536TIP3    H249804   0.479   3.649  12.313  0.9006  1.0863  0.7627
 8537TIP3   OH249805   4.876   6.187  12.684  0.8467 -0.2784 -0.1025
 8537TIP3    H149806   4.901   6.099  12.658 -0.0028 -0.6523  0.2772
 8537TIP3    H249807   4.855   6.232  12.602 -2.0784 -1.5246 -0.1556
 8538TIP3   OH249808   1.232   0.501  12.056 -0.2360  0.0490  0.0711
 8538TIP3    H149809   1.283   0.582  12.050 -0.8969  0.3760 -1.9361
 8538TIP3    H249810   1.288   0.435  12.015 -0.7227  0.0566 -0.6221
 8539TIP3   OH249811   1.250   4.187  11.628  0.4514  0.5277 -0.0249
 8539TIP3    H149812   1.210   4.181  11.541 -0.1931  0.5011  0.2716
 8539TIP3    H249813   1.277   4.279  11.635  0.4594  0.5426 -0.2326
 8540TIP3   OH249814   1.514   5.882  11.015 -0.1555  0.3635 -0.0426
 8540TIP3    H149815   1.527   5.899  10.922  0.1704 -1.8767 -0.4423
 8540TIP3    H249816   1.533   5.966  11.057  1.5471  0.9496 -1.8270
 8541TIP3   OH249817   3.143   5.527  11.606  0.4450  0.2212  0.1464
 8541TIP3    H149818   3.122   5.443  11.646  2.3212 -1.2886 -1.7611
 8541TIP3    H249819   3.213   5.563  11.661  1.6100 -0.8865 -0.5306
 8542TIP3   OH249820   7.208   0.622  10.968 -0.0986  0.4776 -0.0027
 8542TIP3    H149821   7.139   0.567  11.005 -0.2663  0.3721 -0.4651
 8542TIP3    H249822   7.163   0.702  10.942  0.0880  0.7066  0.3677
 8543TIP3   OH249823   5.205   4.892  12.511 -0.3072  0.3641  0.0490
 8543TIP3    H149824   5.258   4.929  12.441 -0.0838 -1.3549 -0.7390
 8543TIP3    H249825   5.115   4.906  12.482 -0.2148 -0.9559 -0.9725
 8544TIP3   OH249826   3.309   4.846  12.100 -0.0277 -0.5745  0.0274
 8544TIP3    H149827   3.289   4.780  12.167 -0.3788  0.1893  0.6896
 8544TIP3    H249828   3.226   4.890  12.085  0.2195 -0.2417 -0.3693
 8545TIP3   OH249829   2.368   5.684  11.238  0.2958 -0.3582 -0.5035
 8545TIP3    H149830   2.358   5.651  11.328 -0.7227 -3.2874 -1.5975
 8545TIP3    H249831   2.463   5.685  11.224  0.4098 -1.6963  0.0191
 8546TIP3   OH249832   6.792   4.165  13.122 -0.1116 -0.0673  0.2921
 8546TIP3    H149833   6.767   4.077  13.149  1.7719 -0.4356  0.9905
 8546TIP3    H249834   6.871   4.184  13.172 -1.7104  2.9707  1.8795
 8547TIP3   OH249835   4.475   2.797  11.753  0.2218  0.3641  0.0091
 8547TIP3    H149836   4.430   2.793  11.669 -0.4876  1.1978  0.3329
 8547TIP3    H249837   4.409   2.828  11.814  0.8663  0.2498  0.7768
 8548TIP3   OH249838   2.802   2.710  10.930  0.3578  1.2892 -0.0697
 8548TIP3    H149839   2.742   2.636  10.929  2.0684 -0.2232  1.4013
 8548TIP3    H249840   2.779   2.761  10.853 -3.2025  1.1764  0.7616
 8549TIP3   OH249841   5.122   5.346  12.275 -0.0516 -0.2274  0.4907
 8549TIP3    H149842   5.100   5.418  12.333 -1.6378 -0.2128 -0.0793
 8549TIP3    H249843   5.060   5.276  12.297 -1.1881  0.0404 -1.6152
 8550TIP3   OH249844   5.555   3.915  19.676  0.1399  0.1448  0.1244
 8550TIP3    H149845   5.493   3.988  19.687  0.1644  0.2458 -0.4009
 8550TIP3    H249846   5.636   3.957  19.647  0.7595  0.1224  1.7022
 8551TIP3   OH249847   7.371   3.512  11.249  0.1749 -0.0910  0.3483
 8551TIP3    H149848   7.347   3.569  11.323 -1.3897  0.7483 -0.7455
 8551TIP3    H249849   7.452   3.469  11.277 -0.1329  0.5327  2.3676
 8552TIP3   OH249850   0.806   3.354  10.614 -0.4468  0.2578 -0.3435
 8552TIP3    H149851   0.858   3.296  10.670 -0.9266  0.3094  0.1682
 8552TIP3    H249852   0.870   3.412  10.573  0.0039 -0.3808 -0.5628
 8553TIP3   OH249853   6.470   4.354  11.251 -0.2821 -0.0972 -0.0700
 8553TIP3    H149854   6.476   4.437  11.205  1.2538 -0.5484 -0.7246
 8553TIP3    H249855   6.390   4.313  11.216 -1.2166  1.2005  0.4781
 8554TIP3   OH249856   2.034   0.743  11.965  0.3419 -0.1680  0.2383
 8554TIP3    H149857   2.118   0.774  11.930  0.9158 -1.5683  0.3276
 8554TIP3    H249858   2.055   0.659  12.005 -1.0392 -0.3318  0.6441
 8555TIP3   OH249859   3.624   5.411  13.192 -0.4434  0.4711 -0.2716
 8555TIP3    H149860   3.655   5.450  13.111  0.0254 -1.3309 -0.9918
 8555TIP3    H249861   3.549   5.466  13.217 -1.8710 -0.0593 -2.9905
 8556TIP3   OH249862   4.736   3.789  12.818 -0.1217 -0.2593 -0.3584
 8556TIP3    H149863   4.736   3.709  12.870  1.6301 -0.6784 -0.9293
 8556TIP3    H249864   4.645   3.818  12.818 -1.1149 -3.0732 -1.3918
 8557TIP3   OH249865   3.100   5.360  12.536 -0.1931 -0.7226 -0.6635
 8557TIP3    H149866   3.180   5.352  12.484  0.6964  0.0621  0.5307
 8557TIP3    H249867   3.124   5.325  12.622 -1.5741 -1.8079 -0.6955
 8558TIP3   OH249868   4.006   6.060  11.494 -0.1160 -0.5365 -0.0314
 8558TIP3    H149869   3.931   6.007  11.522  0.1050  0.2808  2.3287
 8558TIP3    H249870   4.002   6.139  11.548  2.3312 -0.3953  0.0802
 8559TIP3   OH249871   6.995   2.505  11.160 -0.2311 -0.3162 -0.4092
 8559TIP3    H149872   7.002   2.410  11.149  0.0842 -0.6297  2.0074
 8559TIP3    H249873   7.047   2.542  11.089  0.2893 -1.9606 -0.9150
 8560TIP3   OH249874   3.931   6.535  13.499 -0.4098 -0.7034  0.2383
 8560TIP3    H149875   3.928   6.627  13.473  1.1598 -0.7269 -0.1247
 8560TIP3    H249876   4.020   6.522  13.531 -0.1666 -2.4166 -0.9619
 8561TIP3   OH249877   0.139   3.478  13.547 -0.7488 -0.1268  0.1039
 8561TIP3    H149878   0.117   3.465  13.455  0.4621  0.0990 -0.2255
 8561TIP3    H249879   0.213   3.538  13.546  0.0101 -1.0045  1.1615
 8562TIP3   OH249880   6.405   2.163  18.555 -0.3188 -0.0274  0.3252
 8562TIP3    H149881   6.474   2.186  18.617 -0.2885  1.0060 -0.0693
 8562TIP3    H249882   6.345   2.108  18.604  0.3814 -0.2865  0.8948
 8563TIP3   OH249883   0.176   0.655  11.286 -0.7207  0.0315 -0.8723
 8563TIP3    H149884   0.162   0.592  11.216  0.2192 -0.5209 -0.5704
 8563TIP3    H249885   0.183   0.602  11.365  0.1928  0.5048 -0.6285
 8564TIP3   OH249886   4.084   2.252  11.422 -0.0822  0.2525 -0.0659
 8564TIP3    H149887   4.044   2.301  11.494  1.5127 -1.9401  2.5692
 8564TIP3    H249888   4.160   2.304  11.397 -0.0334  0.5417  0.6427
 8565TIP3   OH249889   0.931   1.721  12.553 -0.1646  0.9094 -0.1725
 8565TIP3    H149890   1.007   1.771  12.524  0.0857  1.6987  1.7312
 8565TIP3    H249891   0.856   1.775  12.528 -0.0939  0.5113 -1.3183
 8566TIP3   OH249892   0.497   5.716  11.767  0.1111  0.6387  0.1575
 8566TIP3    H149893   0.589   5.717  11.792  0.4462 -0.6260 -0.9347
 8566TIP3    H249894   0.450   5.730  11.849  1.2345 -0.3581  1.0047
 8567TIP3   OH249895   0.320   2.004  12.129 -0.0432  0.5046  0.3793
 8567TIP3    H149896   0.304   2.056  12.050 -0.4930  1.8800  1.3384
 8567TIP3    H249897   0.414   1.985  12.127  0.1716  1.5437  0.1101
 8568TIP3   OH249898   6.447   7.384  11.169 -0.2517  0.0463  0.4677
 8568TIP3    H149899   6.368   7.348  11.128 -0.0162  0.8166 -0.7168
 8568TIP3    H249900   6.445   7.351  11.259 -2.4743  0.9021  0.7914
 8569TIP3   OH249901   2.064   3.171  12.578 -0.1033  0.3363  0.1487
 8569TIP3    H149902   2.030   3.100  12.524  0.9655  0.1087 -0.2475
 8569TIP3    H249903   2.143   3.200  12.532 -0.8025  2.1593  0.0057
 8570TIP3   OH249904   6.448   3.490  11.873  0.2619 -0.0701  0.7487
 8570TIP3    H149905   6.535   3.496  11.912  0.1519 -0.3981  1.0477
 8570TIP3    H249906   6.430   3.396  11.869  0.4860 -0.0876 -0.5630
 8571TIP3   OH249907   5.723   2.318  11.988 -0.5449 -0.2889  0.3838
 8571TIP3    H149908   5.649   2.357  11.943  0.4331  0.3368 -0.7473
 8571TIP3    H249909   5.702   2.224  11.993 -2.1899  0.1039  1.6907
 8572TIP3   OH249910   3.638   2.958  11.438 -0.1993 -0.1455 -0.4755
 8572TIP3    H149911   3.590   2.990  11.514 -2.2258 -0.6197 -1.4861
 8572TIP3    H249912   3.686   3.034  11.406  2.6587 -0.4510  2.5658
 8573TIP3   OH249913   2.524   3.284  12.258  0.3552  0.0980  0.3454
 8573TIP3    H149914   2.466   3.254  12.188  1.1357 -0.2090 -0.1856
 8573TIP3    H249915   2.514   3.219  12.327 -0.6256  0.5509  0.6416
 8574TIP3   OH249916   2.483   6.940  11.798 -0.0669 -0.1749 -0.0031
 8574TIP3    H149917   2.426   6.942  11.721  0.6547 -2.9317 -0.7304
 8574TIP3    H249918   2.562   6.988  11.771 -1.1332  1.8279  0.2798
 8575TIP3   OH249919   1.356   4.903  10.481  0.3203 -0.1146 -0.0598
 8575TIP3    H149920   1.371   4.809  10.480  1.1120 -0.0634  2.2389
 8575TIP3    H249921   1.442   4.942  10.463 -0.0225  0.2120 -1.1080
 8576TIP3   OH249922   5.681   5.318  12.913  0.4017 -0.2879  0.1844
 8576TIP3    H149923   5.593   5.334  12.949 -1.0319 -2.2215 -2.1580
 8576TIP3    H249924   5.713   5.242  12.961  0.5615  0.0615  0.6383
 8577TIP3   OH249925   6.731   0.759  12.079  0.1470 -0.1465 -0.2466
 8577TIP3    H149926   6.702   0.778  11.989  1.4251  0.2925 -0.5871
 8577TIP3    H249927   6.795   0.828  12.098 -0.2375 -0.1352  1.0824
 8578TIP3   OH249928   5.658   0.529  12.246  0.1901 -0.0647  0.1777
 8578TIP3    H149929   5.577   0.576  12.224  0.6339  0.6634  0.0504
 8578TIP3    H249930   5.709   0.593  12.296  0.5425 -0.6373  0.5601
 8579TIP3   OH249931   1.215   7.353  11.454  0.4563 -0.0754  0.3580
 8579TIP3    H149932   1.254   7.422  11.508  0.3787 -0.5016  0.9687
 8579TIP3    H249933   1.288   7.318  11.403  0.8035 -0.5858  1.1838
 8580TIP3   OH249934   2.864   5.391  12.242  0.1973  0.2343 -0.5923
 8580TIP3    H149935   2.788   5.344  12.209  0.9079 -0.7717 -0.8461
 8580TIP3    H249936   2.938   5.358  12.190  1.2727 -1.0504  1.5866
 8581TIP3   OH249937   5.457   3.878  12.120  0.2026 -0.1436 -0.0197
 8581TIP3    H149938   5.552   3.877  12.112  0.1942 -0.1887 -0.1143
 8581TIP3    H249939   5.432   3.786  12.131 -0.0394 -0.4320 -2.5036
 8582TIP3   OH249940   6.272   1.222  12.397 -0.1256 -0.5732  0.1041
 8582TIP3    H149941   6.360   1.227  12.436 -0.1193 -0.3846  0.0644
 8582TIP3    H249942   6.213   1.235  12.471 -0.1077  0.4977 -0.0574
 8583TIP3   OH249943   3.770   3.014  11.891  0.4070 -0.2091  0.3153
 8583TIP3    H149944   3.857   2.984  11.917  1.0996 -0.8907 -2.3799
 8583TIP3    H249945   3.782   3.107  11.870  0.8913 -0.6170 -1.3735
 8584TIP3   OH249946   5.057   3.602  12.992  0.2813  0.0054 -0.5855
 8584TIP3    H149947   5.016   3.637  13.071  1.1642 -0.6235  0.1755
 8584TIP3    H249948   5.029   3.511  12.989  0.7523 -0.1391 -0.6426
 8585TIP3   OH249949   1.481   0.479  10.374  1.0056  0.0347  0.2931
 8585TIP3    H149950   1.409   0.465  10.436  0.7399 -0.7813 -0.1748
 8585TIP3    H249951   1.485   0.574  10.361  0.4602  0.1338  0.8488
 8586TIP3   OH249952   5.133   1.928  11.521  0.6147 -0.1263 -0.3431
 8586TIP3    H149953   5.171   1.846  11.491 -0.8116 -0.7058 -0.6607
 8586TIP3    H249954   5.202   1.969  11.574  1.0020 -2.0151  0.7024
 8587TIP3   OH249955   0.760   3.174  12.071  0.2479 -0.1176  0.1950
 8587TIP3    H149956   0.688   3.188  12.133 -0.4136  0.9178 -0.7584
 8587TIP3    H249957   0.827   3.238  12.096  0.2156 -0.0802  0.1851
 8588TIP3   OH249958   3.897   3.396  11.062 -0.7107  0.1948 -0.3380
 8588TIP3    H149959   3.962   3.416  10.995 -0.8834  0.5385 -0.4022
 8588TIP3    H249960   3.946   3.349  11.129 -0.2675  1.0051 -0.0914
 8589TIP3   OH249961   1.539   4.964  12.352  0.1628 -0.2955 -0.4295
 8589TIP3    H149962   1.588   4.933  12.429 -0.0892  0.9954  0.2788
 8589TIP3    H249963   1.452   4.926  12.363 -0.4171  1.2808  0.9144
 8590TIP3   OH249964   4.148   0.486  10.277 -0.3424 -0.1689 -0.2807
 8590TIP3    H149965   4.198   0.550  10.328  1.2792 -0.2998 -1.6212
 8590TIP3    H249966   4.213   0.425  10.245 -1.1965  0.1830 -2.8973
 8591TIP3   OH249967   4.901   2.025  11.360 -0.5378 -0.4280  0.3608
 8591TIP3    H149968   4.817   2.012  11.404 -0.2470 -0.4077  0.9334
 8591TIP3    H249969   4.964   1.979  11.415 -0.4219 -2.1017 -1.0673
 8592TIP3   OH249970   1.577   4.160  10.456  0.2948  0.2094  0.4695
 8592TIP3    H149971   1.596   4.145  10.548 -0.7543  1.1305  0.8531
 8592TIP3    H249972   1.573   4.255  10.447  0.7913  0.1472 -0.6165
 8593TIP3   OH249973   2.070   0.330  11.974  0.0113 -0.7057 -0.8194
 8593TIP3    H149974   1.991   0.336  12.027 -1.6543  2.9331 -3.2668
 8593TIP3    H249975   2.128   0.397  12.010  0.6764 -1.1878 -0.9776
 8594TIP3   OH249976   7.001   3.135  12.596  0.1390 -0.0987 -0.1007
 8594TIP3    H149977   7.042   3.196  12.658  0.5893 -1.5508  1.0830
 8594TIP3    H249978   7.072   3.109  12.537  0.2708 -0.5024  0.2329
 8595TIP3   OH249979   2.417   5.757  11.951  0.0862 -0.0641 -0.0376
 8595TIP3    H149980   2.382   5.668  11.945 -1.9319  0.7154 -1.1371
 8595TIP3    H249981   2.481   5.763  11.881 -0.7512 -0.2833 -0.8405
 8596TIP3   OH249982   4.269   5.229  13.382  0.2944  0.0523  0.1026
 8596TIP3    H149983   4.297   5.215  13.291 -0.5631 -1.6047  0.0596
 8596TIP3    H249984   4.269   5.141  13.421 -0.3632  0.6035  1.4092
 8597TIP3   OH249985   1.021   3.520  10.415  0.1274  0.2658 -0.2697
 8597TIP3    H149986   1.101   3.563  10.385  0.3928 -1.6206 -2.5213
 8597TIP3    H249987   1.021   3.436  10.370 -1.4355 -1.2201  2.3282
 8598TIP3   OH249988   3.046   1.134  11.509 -0.5537 -1.1515 -0.5020
 8598TIP3    H149989   3.092   1.114  11.427 -0.7184 -2.5707 -0.2652
 8598TIP3    H249990   2.970   1.185  11.481  0.2689 -0.1838 -1.0559
 8599TIP3   OH249991   6.324   6.202  12.934 -0.5480 -0.3223 -0.2650
 8599TIP3    H149992   6.230   6.186  12.950 -0.5208  0.1306  0.3506
 8599TIP3    H249993   6.359   6.115  12.913 -1.4473 -0.2410 -2.3519
 8600TIP3   OH249994   3.871   1.534  10.725  0.0689  0.0974 -0.0114
 8600TIP3    H149995   3.964   1.541  10.748 -0.6493  0.1688  3.3908
 8600TIP3    H249996   3.827   1.596  10.783 -1.9939  1.9006 -3.2000
 8601TIP3   OH249997   3.732   7.642  12.452 -0.4606  0.2172  0.4327
 8601TIP3    H149998   3.732   7.704  12.526  0.3332  3.4622 -2.0281
 8601TIP3    H249999   3.694   7.692  12.380  0.2789 -2.2155 -1.7786
 8602TIP3   OH250000   2.543   3.615  12.521 -0.2661  0.4753 -0.1256
 8602TIP3    H150001   2.582   3.699  12.498  0.8401 -0.0978 -0.4354
 8602TIP3    H250002   2.608   3.574  12.579 -1.3848  0.3817  1.1125
 8603TIP3   OH250003   2.408   5.862  10.578 -0.3305  0.3683 -0.8741
 8603TIP3    H150004   2.422   5.952  10.550  0.4017 -0.6089 -4.0765
 8603TIP3    H250005   2.331   5.833  10.529  0.4782 -1.2086 -1.3227
 8604TIP3   OH250006   3.049   4.779  10.680  0.0254  0.1429  0.6002
 8604TIP3    H150007   3.113   4.726  10.631  0.1880 -0.6746  1.6797
 8604TIP3    H250008   2.997   4.716  10.729 -1.2966  0.8415  0.1497
 8605TIP3   OH250009   1.883   3.026  11.288  0.1396  0.3239 -0.0498
 8605TIP3    H150010   1.972   3.028  11.323  0.5338 -2.8441 -0.5612
 8605TIP3    H250011   1.894   3.004  11.196 -1.1602  0.0927 -0.1670
 8606TIP3   OH250012   3.176   6.878  10.938  0.2693 -0.4031  0.5895
 8606TIP3    H150013   3.120   6.911  10.869  0.1333 -1.1589  0.3339
 8606TIP3    H250014   3.177   6.948  11.004 -0.2003  0.0020  0.1694
 8607TIP3   OH250015   4.155   3.145  11.026  0.1573  0.0003  0.4223
 8607TIP3    H150016   4.219   3.163  10.957 -0.0112  1.6661  0.6394
 8607TIP3    H250017   4.205   3.103  11.096  1.0056  1.0901  0.5038
 8608TIP3   OH250018   4.100   5.527  11.624 -0.7022 -0.1251  0.3291
 8608TIP3    H150019   4.048   5.469  11.569  2.2595  0.0954 -3.1016
 8608TIP3    H250020   4.126   5.473  11.699 -2.3192 -1.4892 -0.0415
 8609TIP3   OH250021   2.464   6.868  12.812 -0.7716 -0.2153 -0.6824
 8609TIP3    H150022   2.373   6.850  12.834 -1.0292  0.2642 -1.3219
 8609TIP3    H250023   2.505   6.891  12.896 -2.0265  2.8335 -0.7630
 8610TIP3   OH250024   5.398   5.898  12.603 -0.1283 -0.7490  0.1212
 8610TIP3    H150025   5.317   5.924  12.648  0.9084  2.6502  0.3003
 8610TIP3    H250026   5.368   5.860  12.520 -2.0250  3.4680 -1.3824
 8611TIP3   OH250027   6.227   6.953  11.440 -0.1983  0.1480  0.5854
 8611TIP3    H150028   6.147   7.005  11.448  1.0700  2.2085  0.5649
 8611TIP3    H250029   6.203   6.880  11.384 -1.7192  1.4819 -0.5894
 8612TIP3   OH250030   2.517   5.442  10.140  0.4478 -0.3983 -0.0183
 8612TIP3    H150031   2.496   5.374  10.076 -0.7142  0.1976 -0.3069
 8612TIP3    H250032   2.433   5.461  10.183  0.1317  2.6246 -1.7015
 8613TIP3   OH250033   3.657   6.867  11.879  0.0754  0.3527 -0.3546
 8613TIP3    H150034   3.590   6.903  11.821  1.1836  2.3495 -0.5034
 8613TIP3    H250035   3.626   6.890  11.967 -0.5385 -0.7606 -0.2664
 8614TIP3   OH250036   7.068   5.274  11.381  0.1709 -0.0512 -0.0809
 8614TIP3    H150037   7.107   5.204  11.434 -0.6392  0.0089  0.5996
 8614TIP3    H250038   6.975   5.270  11.400 -0.1140  0.0990 -1.3690
 8615TIP3   OH250039   5.888   1.303  12.078 -0.1274 -0.4982  0.1594
 8615TIP3    H150040   5.925   1.329  11.994 -2.9672  1.7025 -0.5495
 8615TIP3    H250041   5.955   1.330  12.142  0.6751  0.8876 -1.1793
 8616TIP3   OH250042   6.741   2.124  11.844  0.0595 -0.1094  0.8562
 8616TIP3    H150043   6.697   2.200  11.881  0.3092  0.7940 -0.6068
 8616TIP3    H250044   6.690   2.102  11.767  0.5926 -0.7613  0.6834
 8617TIP3   OH250045   0.193   2.532  11.466  0.7727 -0.3495  0.0728
 8617TIP3    H150046   0.234   2.524  11.379  1.4490  1.5841  0.1599
 8617TIP3    H250047   0.122   2.595  11.453  1.3220  0.4944  1.0379
 8618TIP3   OH250048   6.672   6.367  10.292  0.1905 -0.1604  0.0523
 8618TIP3    H150049   6.595   6.381  10.347  0.5288 -1.3519  0.8949
 8618TIP3    H250050   6.686   6.272  10.296  0.9890 -0.1056 -1.0727
 8619TIP3   OH250051   5.678   3.297  12.903  0.2100  0.1496  0.5660
 8619TIP3    H150052   5.766   3.307  12.938 -0.5501 -1.7744  3.4050
 8619TIP3    H250053   5.624   3.355  12.956 -0.7359 -1.5869  1.6243
 8620TIP3   OH250054   2.813   3.841  10.640 -1.1598  0.0559  0.4749
 8620TIP3    H150055   2.856   3.921  10.669 -2.3466  0.6128  0.7198
 8620TIP3    H250056   2.738   3.830  10.698 -1.1870 -1.0782  0.2646
 8621TIP3   OH250057   0.451   4.937  10.336 -0.3232  0.3736 -0.2857
 8621TIP3    H150058   0.540   4.961  10.360 -0.8739  1.8939  0.3531
 8621TIP3    H250059   0.446   4.956  10.242 -0.2055  1.0548 -0.1589
 8622TIP3   OH250060   1.179   0.578  10.780  0.1902 -0.0687  0.6802
 8622TIP3    H150061   1.085   0.593  10.789  0.1266 -0.2686  0.3542
 8622TIP3    H250062   1.216   0.611  10.862 -0.4504 -2.6008  2.1039
 8623TIP3   OH250063   6.924   5.160  12.388 -0.3341  0.7869 -0.5885
 8623TIP3    H150064   6.909   5.079  12.437 -0.0524  0.7182 -0.6183
 8623TIP3    H250065   7.018   5.160  12.369 -0.1707  1.5590  0.1841
 8624TIP3   OH250066   5.089   3.992  11.134 -0.4663 -1.0757  0.1496
 8624TIP3    H150067   5.088   4.060  11.067 -2.7779 -1.0695  0.1073
 8624TIP3    H250068   5.176   3.998  11.173 -0.5531  1.8857  0.1327
 8625TIP3   OH250069   6.658   0.515  12.179  0.3226 -0.0379 -0.1724
 8625TIP3    H150070   6.649   0.523  12.274 -1.5066 -0.3446 -0.2975
 8625TIP3    H250071   6.658   0.605  12.147  1.8486  0.1134  0.1478
 8626TIP3   OH250072   0.354   1.005  12.077 -0.0385 -0.1513  0.1211
 8626TIP3    H150073   0.267   1.030  12.108  0.2504 -0.3024  1.1022
 8626TIP3    H250074   0.413   1.068  12.119  0.3586 -0.2717 -0.2534
 8627TIP3   OH250075   7.368   5.078  12.880  0.2154 -0.5145 -0.7613
 8627TIP3    H150076   7.290   5.097  12.932  0.3693  0.4524 -0.8637
 8627TIP3    H250077   7.354   5.126  12.798  0.2643 -1.5076 -1.3575
 8628TIP3   OH250078   5.171   1.450  11.663 -0.1108 -0.6211  0.1690
 8628TIP3    H150079   5.154   1.497  11.581  0.0943 -0.2654  0.3254
 8628TIP3    H250080   5.218   1.514  11.718  0.5726 -1.1564  0.2225
 8629TIP3   OH250081   3.298   3.501  12.738  0.1325 -0.2564  0.0637
 8629TIP3    H150082   3.337   3.461  12.660 -2.7377  0.0109 -1.6867
 8629TIP3    H250083   3.291   3.594  12.717 -0.0901 -0.0636  0.9371
 8630TIP3   OH250084   7.515   1.492  11.980  0.3580 -0.3201  0.3306
 8630TIP3    H150085   7.473   1.573  12.010  0.7673  0.0878 -0.1744
 8630TIP3    H250086   7.452   1.454  11.918  0.1132 -0.4521  0.6587
 8631TIP3   OH250087   3.948   6.781  12.108 -0.4564  0.1653  0.7320
 8631TIP3    H150088   3.877   6.830  12.067 -0.2722 -0.1006  0.0865
 8631TIP3    H250089   3.913   6.756  12.193 -0.7294  0.9979  0.8798
 8632TIP3   OH250090   3.925   3.105  12.310  0.1886  0.1234 -0.6485
 8632TIP3    H150091   4.014   3.138  12.296  0.2368  1.2421  1.7628
 8632TIP3    H250092   3.869   3.174  12.275  0.2772  0.1294 -0.7801
 8633TIP3   OH250093   2.189   1.889  10.622  0.0051 -0.0554  0.3510
 8633TIP3    H150094   2.152   1.811  10.664 -2.7941 -0.4682 -2.5192
 8633TIP3    H250095   2.269   1.858  10.580  0.4214 -0.6570  1.5354
 8634TIP3   OH250096   2.804   2.112  12.238  0.1130 -0.1922 -0.4440
 8634TIP3    H150097   2.722   2.073  12.209  0.2433 -1.9208  1.2721
 8634TIP3    H250098   2.870   2.073  12.181 -0.0533 -0.4452 -0.4663
 8635TIP3   OH250099   2.847   5.085  13.073  0.4350  0.3306 -0.2524
 8635TIP3    H150100   2.761   5.061  13.107  0.7425 -1.3526 -0.5420
 8635TIP3    H250101   2.857   5.032  12.993  0.8321  2.1737 -1.4883
 8636TIP3   OH250102   2.109   5.769  12.938 -0.7596 -0.5593  0.1496
 8636TIP3    H150103   2.091   5.721  13.019 -1.0187 -0.5621  0.0879
 8636TIP3    H250104   2.187   5.821  12.958  0.0633 -1.6782 -0.0554
 8637TIP3   OH250105   2.231   0.770  10.433 -0.6484  0.6926  0.7074
 8637TIP3    H150106   2.179   0.745  10.509 -1.2921 -0.7646 -0.1737
 8637TIP3    H250107   2.311   0.807  10.470 -0.5052 -0.9005  2.1363
 8638TIP3   OH250108   1.138   4.188  12.686  0.5458 -1.0684  0.4936
 8638TIP3    H150109   1.151   4.220  12.775  0.3595  0.3755  0.0309
 8638TIP3    H250110   1.048   4.155  12.685  0.1664 -0.0658  0.5644
 8639TIP3   OH250111   4.068   2.156  10.993 -0.1124 -0.1553  0.3881
 8639TIP3    H150112   4.029   2.147  11.081 -1.7806  0.4188 -0.2411
 8639TIP3    H250113   4.114   2.240  10.996 -1.2123  0.4649  0.3681
 8640TIP3   OH250114   4.930   7.358  10.866  0.1955  0.4328  0.4968
 8640TIP3    H150115   5.006   7.330  10.814  0.4554  0.2562  0.9680
 8640TIP3    H250116   4.968   7.407  10.939 -0.2456  2.2817 -0.4403
 8641TIP3   OH250117   0.307   4.089  11.220  0.1356 -0.8431  0.2676
 8641TIP3    H150118   0.383   4.052  11.174 -0.2157 -0.2573 -0.7977
 8641TIP3    H250119   0.345   4.154  11.280  0.3717  0.8766 -1.6502
 8642TIP3   OH250120   6.455   3.118  12.185 -0.0910  0.1565  0.0960
 8642TIP3    H150121   6.507   3.167  12.248 -0.2736  0.2544  0.1713
 8642TIP3    H250122   6.517   3.060  12.141  0.4421  1.6131 -1.1599
 8643TIP3   OH250123   1.421   2.556  12.707 -0.7101 -0.3051  0.4363
 8643TIP3    H150124   1.445   2.585  12.795 -1.4370  0.1298  0.4989
 8643TIP3    H250125   1.390   2.635  12.663 -1.0806 -0.6697  0.0379
 8644TIP3   OH250126   1.262   5.582  12.718 -0.1508 -0.1630  0.2933
 8644TIP3    H150127   1.345   5.538  12.700 -1.0207 -0.7521 -2.8860
 8644TIP3    H250128   1.195   5.518  12.696 -1.4680  1.1357  0.3241
 8645TIP3   OH250129   3.548   3.888  10.897  0.0906 -0.0946  0.6702
 8645TIP3    H150130   3.504   3.969  10.923  0.2492  0.4951 -0.8506
 8645TIP3    H250131   3.637   3.915  10.875  0.0673 -0.6302 -0.1056
 8646TIP3   OH250132   4.437   3.447  11.265  0.0645 -0.4430 -0.1265
 8646TIP3    H150133   4.468   3.493  11.343  0.7775 -1.1105  0.0056
 8646TIP3    H250134   4.506   3.461  11.200  0.7642 -2.0514  0.2074
 8647TIP3   OH250135   4.230   3.209  11.663  0.0338  0.3294  0.0163
 8647TIP3    H150136   4.196   3.255  11.740 -0.0162  0.4343 -0.0687
 8647TIP3    H250137   4.167   3.139  11.647 -0.2269  0.6176 -0.2363
 8648TIP3   OH250138   7.201   4.290  12.743  0.4282  0.0081 -0.1103
 8648TIP3    H150139   7.194   4.385  12.732 -1.6952 -0.0514  0.3173
 8648TIP3    H250140   7.133   4.268  12.806  1.1273 -1.7782  0.0855
 8649TIP3   OH250141   5.886   6.361  11.234 -0.6046 -0.3445  0.5749
 8649TIP3    H150142   5.836   6.422  11.289 -1.2773  0.9594 -1.3604
 8649TIP3    H250143   5.904   6.410  11.154  1.3649 -1.7602  0.0715
 8650TIP3   OH250144   3.158   5.062  12.976  0.0205  0.5103 -0.1486
 8650TIP3    H150145   3.221   5.092  13.042 -0.4654  2.3876 -0.4547
 8650TIP3    H250146   3.073   5.091  13.010 -0.4093  0.1002 -0.8600
 8651TIP3   OH250147   2.345   3.971  10.260  0.0187  0.5324  0.2349
 8651TIP3    H150148   2.323   4.046  10.204 -0.4322 -0.9963 -1.7470
 8651TIP3    H250149   2.265   3.918  10.262  0.1990  0.2520  1.9236
 8652TIP3   OH250150   2.681   4.618  12.338 -0.3827 -0.2210  0.4314
 8652TIP3    H150151   2.694   4.655  12.426  2.1779  0.5936 -0.1865
 8652TIP3    H250152   2.620   4.546  12.351 -0.4993  0.2049  2.7785
 8653TIP3   OH250153   5.594   2.170  11.424  0.0329  0.5741  0.2976
 8653TIP3    H150154   5.522   2.132  11.473 -0.4882 -0.6540 -1.3126
 8653TIP3    H250155   5.565   2.259  11.403 -0.3138  0.6379  1.0294
 8654TIP3   OH250156   2.975   5.122  13.316 -0.4598  0.4858  0.1898
 8654TIP3    H150157   2.994   5.213  13.337  1.4480  0.2929 -0.4787
 8654TIP3    H250158   2.916   5.126  13.240 -0.7388  1.1575  0.4426
 8655TIP3   OH250159   3.185   2.244  10.927  0.2642 -0.5861  0.5388
 8655TIP3    H150160   3.118   2.246  10.995 -1.7469 -1.2100 -1.2856
 8655TIP3    H250161   3.165   2.319  10.871  0.7967 -1.0524 -0.2962
 8656TIP3   OH250162   0.972   0.120  12.606 -0.4233  0.3311 -0.5692
 8656TIP3    H150163   1.014   0.045  12.564 -0.9057  0.1401 -0.7232
 8656TIP3    H250164   0.922   0.162  12.536 -0.9357  0.2249 -0.2716
 8657TIP3   OH250165   3.624   5.051  12.401  0.1110 -0.2351  0.2414
 8657TIP3    H150166   3.656   4.971  12.442  1.4171  0.9704  1.7182
 8657TIP3    H250167   3.530   5.037  12.392 -0.0303 -1.1579  2.4055
 8658TIP3   OH250168   7.171   0.134  11.319 -0.0163 -0.0541 -0.3380
 8658TIP3    H150169   7.208   0.149  11.233 -0.2149 -0.2610 -0.4618
 8658TIP3    H250170   7.135   0.219  11.346  0.9337  0.2574 -0.0230
 8659TIP3   OH250171   1.794   0.589  10.872 -0.3801  0.3213 -0.0862
 8659TIP3    H150172   1.763   0.520  10.931 -0.7719  0.2830 -0.3320
 8659TIP3    H250173   1.732   0.661  10.884 -1.5865 -0.3898 -1.8331
 8660TIP3   OH250174   5.536   6.846  10.954 -0.1331 -0.1743 -0.7761
 8660TIP3    H150175   5.536   6.756  10.986  1.4245  0.2930  0.7420
 8660TIP3    H250176   5.448   6.860  10.919 -1.9803 -0.9323  3.0019
 8661TIP3   OH250177   0.749   7.288  10.491  0.0527  0.1893  0.0218
 8661TIP3    H150178   0.826   7.260  10.441  1.8728  1.1769  2.1147
 8661TIP3    H250179   0.726   7.211  10.543  0.4833  0.3070  0.3907
 8662TIP3   OH250180   1.989   0.735  11.387 -0.0479  0.3480 -0.8185
 8662TIP3    H150181   2.072   0.780  11.374 -0.1107  0.0540 -2.5111
 8662TIP3    H250182   1.924   0.805  11.393  0.3827  0.6277  1.5547
 8663TIP3   OH250183   4.638   3.122  12.193 -0.3573 -0.2127  0.2288
 8663TIP3    H150184   4.669   3.061  12.127 -2.1810 -0.5582 -0.3525
 8663TIP3    H250185   4.630   3.070  12.273  1.0782  0.0228  0.5525
 8664TIP3   OH250186   3.714   5.041  11.107  0.6121 -0.2253 -0.1514
 8664TIP3    H150187   3.767   4.979  11.158  0.8885  0.4878  0.4406
 8664TIP3    H250188   3.672   4.986  11.040  1.6496 -0.8922 -0.2901
 8665TIP3   OH250189   4.496   6.695  11.969  0.1549 -0.2389  0.7085
 8665TIP3    H150190   4.468   6.782  11.995 -1.0959 -0.7798  1.2760
 8665TIP3    H250191   4.502   6.646  12.052  0.7149 -0.7308  0.3905
 8666TIP3   OH250192   7.492   5.335  11.213 -0.2129  0.7773 -0.2673
 8666TIP3    H150193   7.552   5.405  11.188 -0.6052  0.4667 -2.2515
 8666TIP3    H250194   7.432   5.375  11.275 -0.7075  2.3694 -1.6984
 8667TIP3   OH250195   1.776   4.027  11.349  0.0740 -0.6440  0.2650
 8667TIP3    H150196   1.735   4.054  11.432  0.1425  0.3238 -0.0059
 8667TIP3    H250197   1.839   3.960  11.375  1.6377  1.1324  1.2965
 8668TIP3   OH250198   0.883   0.871  13.456 -0.1430  0.4072  0.3483
 8668TIP3    H150199   0.803   0.837  13.416 -0.3895  1.9827 -0.5746
 8668TIP3    H250200   0.953   0.820  13.415 -0.6259 -0.6458  0.7957
 8669TIP3   OH250201   3.076   2.528  12.717  0.7049 -0.7302  0.0011
 8669TIP3    H150202   3.057   2.621  12.704  0.6716 -0.6932  0.3229
 8669TIP3    H250203   2.992   2.485  12.706  0.6515 -0.6849  0.2403
 8670TIP3   OH250204   2.887   6.479  11.434  0.3545  0.0138 -0.1944
 8670TIP3    H150205   2.859   6.388  11.445 -0.6004  0.2451 -0.5764
 8670TIP3    H250206   2.952   6.493  11.502 -0.5856 -0.5245  0.8450
 8671TIP3   OH250207   5.350   7.575  11.067  0.0833 -0.0533  0.3334
 8671TIP3    H150208   5.440   7.575  11.101 -0.3125 -1.0448  1.4112
 8671TIP3    H250209   5.305   7.642  11.119 -0.2673 -0.8642  1.0823
 8672TIP3   OH250210   6.626   2.327  13.399 -0.0192  0.1245  0.2816
 8672TIP3    H150211   6.621   2.257  13.333  1.9292  0.1401  0.0827
 8672TIP3    H250212   6.708   2.372  13.381 -1.6265  3.1098 -0.1672
 8673TIP3   OH250213   4.386   0.487  12.882  0.0802 -0.2186 -0.0017
 8673TIP3    H150214   4.440   0.450  12.812  0.1325  0.6386 -0.4311
 8673TIP3    H250215   4.301   0.444  12.872  0.2486 -0.5018 -0.2451
 8674TIP3   OH250216   0.758   3.484  10.874  0.3114  0.0546  0.3048
 8674TIP3    H150217   0.772   3.468  10.781 -1.3961 -1.5715  0.2672
 8674TIP3    H250218   0.700   3.560  10.877  0.6788  0.3497  0.0762
 8675TIP3   OH250219   1.504   4.826  11.809 -0.5597 -0.0377  0.2825
 8675TIP3    H150220   1.493   4.806  11.902 -1.1602 -0.2335  0.1728
 8675TIP3    H250221   1.579   4.773  11.782 -2.6367 -3.0352 -0.2257
 8676TIP3   OH250222   6.952   0.252  11.580 -0.0692 -0.3132 -0.6900
 8676TIP3    H150223   6.976   0.339  11.613  0.5664 -1.0695  0.9487
 8676TIP3    H250224   6.973   0.193  11.652 -2.0687 -1.6451 -1.1381
 8677TIP3   OH250225   6.353   2.201  12.183  0.5943 -0.7178  0.6218
 8677TIP3    H150226   6.391   2.136  12.242  2.6166 -0.8764 -0.7572
 8677TIP3    H250227   6.359   2.162  12.096  1.2285  1.0170 -0.1626
 8678TIP3   OH250228   6.016   7.535  10.617  0.0797  0.8049 -0.8078
 8678TIP3    H150229   6.050   7.623  10.632 -0.0255  0.9689 -1.5009
 8678TIP3    H250230   5.922   7.543  10.630  0.2549  0.4044  0.8661
 8679TIP3   OH250231   6.272   2.048  12.474 -0.2057 -0.2485  0.1387
 8679TIP3    H150232   6.291   2.073  12.565 -1.1312  0.9703  0.0273
 8679TIP3    H250233   6.358   2.030  12.436  0.3635  0.8655  0.8101
 8680TIP3   OH250234   1.227   1.347  12.105  0.8026  0.0188  0.3080
 8680TIP3    H150235   1.236   1.390  12.190 -1.1040  1.1671 -0.0130
 8680TIP3    H250236   1.132   1.338  12.092  1.0759 -1.2244 -1.1735
 8681TIP3   OH250237   1.320   2.910  11.639  0.1185  0.3650 -0.0631
 8681TIP3    H150238   1.355   2.821  11.631 -1.6737 -0.3127 -0.9420
 8681TIP3    H250239   1.286   2.915  11.728 -0.3111 -0.0528 -0.2004
 8682TIP3   OH250240   4.262   4.478  11.281 -0.3381  0.6904  0.1502
 8682TIP3    H150241   4.272   4.415  11.353 -1.5089 -0.4043 -0.5942
 8682TIP3    H250242   4.351   4.498  11.254  0.1696 -2.9138 -1.4766
 8683TIP3   OH250243   4.680   2.205  11.013 -0.1950  0.1331  0.6306
 8683TIP3    H150244   4.644   2.205  10.924 -0.4567  2.2713  0.6878
 8683TIP3    H250245   4.614   2.159  11.066 -1.1280  0.8366  0.1071
 8684TIP3   OH250246   4.480   2.602  12.110 -0.2794 -0.2921 -1.0773
 8684TIP3    H150247   4.502   2.593  12.017 -0.6277  2.1830 -1.4707
 8684TIP3    H250248   4.543   2.666  12.144 -0.3361 -0.9487  0.3338
 8685TIP3   OH250249   1.258   4.772  11.674 -0.5850  0.3661  0.2135
 8685TIP3    H150250   1.289   4.732  11.593  0.2342  0.4547  0.4753
 8685TIP3    H250251   1.336   4.812  11.713 -1.2982  1.9273  0.1259
 8686TIP3   OH250252   2.815   3.388  13.202  0.0522 -0.8311  0.6401
 8686TIP3    H150253   2.724   3.417  13.207  0.1762 -0.5832  1.9420
 8686TIP3    H250254   2.812   3.303  13.159 -0.6670 -0.3502 -0.2963
 8687TIP3   OH250255   4.792   0.284  12.543  0.4859  0.5188  0.5835
 8687TIP3    H150256   4.751   0.211  12.497 -1.1024  2.8425 -2.0071
 8687TIP3    H250257   4.884   0.281  12.517  0.1718  0.1610 -0.5158
 8688TIP3   OH250258   5.777   1.033  11.610  0.2164  0.5416 -0.1740
 8688TIP3    H150259   5.769   1.063  11.701 -2.3768 -0.4740  0.0250
 8688TIP3    H250260   5.688   1.038  11.575 -0.1158 -4.4660 -0.8372
 8689TIP3   OH250261   6.401   3.681  11.084  0.3133 -0.0742  0.3356
 8689TIP3    H150262   6.312   3.681  11.048 -0.1736  0.3725  1.4797
 8689TIP3    H250263   6.410   3.595  11.125 -0.2467  0.4868  1.7008
 8690TIP3   OH250264   3.130   1.147  11.239  0.0564  0.6705  0.3266
 8690TIP3    H150265   3.118   1.240  11.219 -0.3575  0.7312  0.8464
 8690TIP3    H250266   3.215   1.125  11.200 -0.8015  0.7246 -1.6850
 8691TIP3   OH250267   1.968   2.969  12.374  0.0893 -0.0123  0.3148
 8691TIP3    H150268   1.961   3.053  12.328 -0.8491  0.1240  0.6870
 8691TIP3    H250269   1.880   2.932  12.369 -0.0453  0.0117  2.0121
 8692TIP3   OH250270   6.458   0.846  10.607  0.0256 -0.1646  0.3363
 8692TIP3    H150271   6.462   0.762  10.652  0.0102 -0.0412  0.5736
 8692TIP3    H250272   6.483   0.827  10.517  1.6135 -0.1456  0.7498
 8693TIP3   OH250273   1.832   0.328  12.133 -0.1035  0.0423  0.4956
 8693TIP3    H150274   1.805   0.406  12.085 -0.2254 -0.9013 -1.0547
 8693TIP3    H250275   1.856   0.360  12.219 -0.5635  1.7267  0.0395
 8694TIP3   OH250276   5.345   4.584  11.381  0.2694 -0.0292 -0.2190
 8694TIP3    H150277   5.367   4.665  11.427  0.3049 -0.3900  0.4171
 8694TIP3    H250278   5.322   4.612  11.292 -0.7957  0.7955  0.2953
 8695TIP3   OH250279   2.044   6.648  13.396  0.3639 -0.0541 -0.0991
 8695TIP3    H150280   1.975   6.707  13.428 -0.4072  0.4127 -2.4538
 8695TIP3    H250281   1.998   6.583  13.344  1.3946 -1.8339  1.1267
 8696TIP3   OH250282   0.089   6.543  10.922 -0.1077  0.1888  0.5239
 8696TIP3    H150283  -0.001   6.513  10.904 -0.4369  1.2175  0.4225
 8696TIP3    H250284   0.105   6.612  10.858  1.2511 -0.8496 -0.3344
 8697TIP3   OH250285   5.772   1.871  11.123 -0.0873  0.2147  0.8860
 8697TIP3    H150286   5.692   1.818  11.117 -0.7032  1.2207 -0.3914
 8697TIP3    H250287   5.819   1.852  11.042  0.0318  1.0598  0.7430
 8698TIP3   OH250288   6.072   3.145  13.160  0.3292 -0.0031  0.1531
 8698TIP3    H150289   5.987   3.169  13.196  0.4376 -0.2491  0.5803
 8698TIP3    H250290   6.115   3.228  13.142  0.2359  0.1218  0.5071
 8699TIP3   OH250291   2.283   3.321  11.827 -0.5245  0.1195 -0.0235
 8699TIP3    H150292   2.344   3.346  11.758  0.8500 -0.9280  0.7518
 8699TIP3    H250293   2.221   3.394  11.832  0.9483  1.4779 -0.5210
 8700TIP3   OH250294   2.463   1.232  10.682  0.3444 -0.0998  0.1270
 8700TIP3    H150295   2.517   1.173  10.734  1.9003 -0.3158 -1.6018
 8700TIP3    H250296   2.498   1.319  10.699  0.4189 -0.0931 -0.0611
 8701TIP3   OH250297   5.626   0.483  11.725 -0.3413  0.1812  0.5604
 8701TIP3    H150298   5.668   0.400  11.702  1.4295  1.1416  0.1564
 8701TIP3    H250299   5.653   0.498  11.816  0.2974  0.8421  0.2723
 8702TIP3   OH250300   2.046   6.238  11.799 -0.3639  0.3206  0.5759
 8702TIP3    H150301   2.069   6.267  11.711  2.6975 -0.6464  0.9361
 8702TIP3    H250302   2.057   6.316  11.854 -1.1284  0.6422  0.2755
 8703TIP3   OH250303   2.843   1.507  10.887  0.3508 -0.0972  0.0210
 8703TIP3    H150304   2.869   1.417  10.905 -0.3377  0.0738  2.1207
 8703TIP3    H250305   2.874   1.557  10.963 -0.5988  1.1674 -0.3863
 8704TIP3   OH250306   2.315   5.949  12.493 -0.8252  0.0720  0.0823
 8704TIP3    H150307   2.258   5.896  12.548  0.3947 -1.1350  0.2569
 8704TIP3    H250308   2.402   5.908  12.503 -0.0859  1.3702 -0.7561
 8705TIP3   OH250309   6.234   2.385  11.110 -0.0534 -0.7828  0.1299
 8705TIP3    H150310   6.295   2.313  11.097 -0.3170 -0.8872 -0.5451
 8705TIP3    H250311   6.213   2.416  11.022 -2.1618 -1.7478  0.2118
 8706TIP3   OH250312   4.893   1.802  11.663  0.3725 -0.8023  0.0933
 8706TIP3    H150313   4.974   1.846  11.637 -0.2215  0.0717 -0.3463
 8706TIP3    H250314   4.842   1.870  11.708 -0.3518 -1.1777 -0.1403
 8707TIP3   OH250315   3.977   2.597  11.054  0.1687 -0.0686 -0.1839
 8707TIP3    H150316   3.914   2.662  11.086  0.2051  0.1121 -0.4780
 8707TIP3    H250317   3.926   2.543  10.994  0.0832 -0.4518  0.2227
 8708TIP3   OH250318   1.650   7.498  10.505  0.5743  0.0872  0.4852
 8708TIP3    H150319   1.733   7.482  10.460  0.5969  0.8656  0.2357
 8708TIP3    H250320   1.674   7.546  10.584  0.1683  2.8083 -0.9372
 8709TIP3   OH250321   4.932   6.702  11.814 -0.2150  0.1884  0.1719
 8709TIP3    H150322   4.895   6.701  11.902  0.1404 -2.0890  0.3722
 8709TIP3    H250323   4.922   6.612  11.783  0.7046  0.6714 -1.6737
 8710TIP3   OH250324   0.281   1.935  11.494  0.1156 -0.0812  0.2601
 8710TIP3    H150325   0.350   1.973  11.440  1.8694 -2.0565  0.9533
 8710TIP3    H250326   0.284   1.841  11.473 -2.5937 -0.2258  0.1272
 8711TIP3   OH250327   0.445   1.793  11.185 -0.7560 -0.0876  0.1780
 8711TIP3    H150328   0.376   1.728  11.202 -1.4885  0.4449 -0.6755
 8711TIP3    H250329   0.445   1.803  11.090 -1.2656  1.7929  0.3371
 8712TIP3   OH250330   7.148   2.915  10.751 -0.6408 -0.0585  0.3490
 8712TIP3    H150331   7.095   2.910  10.671 -1.2912 -1.6272  0.8314
 8712TIP3    H250332   7.093   2.964  10.812 -1.4288 -1.3417  0.7218
 8713TIP3   OH250333   3.417   5.350  13.677 -0.2347 -0.1155  0.3804
 8713TIP3    H150334   3.343   5.290  13.689 -1.6327  1.4416  0.0059
 8713TIP3    H250335   3.466   5.313  13.604 -0.5689 -1.2458  0.7087
 8714TIP3   OH250336   3.459   4.120  10.369 -0.2837  0.0392  0.3387
 8714TIP3    H150337   3.499   4.041  10.406  1.7709 -1.3585 -4.1392
 8714TIP3    H250338   3.375   4.091  10.334 -0.6586  0.5302  0.7926
 8715TIP3   OH250339   4.926   2.407  12.887  0.0112  0.3634 -0.6630
 8715TIP3    H150340   4.838   2.370  12.892 -0.2851  1.1912  1.0723
 8715TIP3    H250341   4.959   2.378  12.802 -1.5387 -0.8165 -0.9200
 8716TIP3   OH250342   2.614   6.796  11.418  0.0490 -0.2416  0.3650
 8716TIP3    H150343   2.549   6.748  11.470  1.6222 -0.1963  2.5374
 8716TIP3    H250344   2.575   6.882  11.404 -0.4902 -0.2992  1.3903
 8717TIP3   OH250345   4.368   1.802  11.209 -0.6348  0.3088  0.0838
 8717TIP3    H150346   4.335   1.838  11.126 -3.8414 -0.4271  0.8989
 8717TIP3    H250347   4.328   1.857  11.276  2.9692  1.7348  1.2461
 8718TIP3   OH250348   3.025   1.648  10.711 -0.1967  0.0910  0.0839
 8718TIP3    H150349   2.941   1.609  10.737 -0.7822  1.3620  0.1643
 8718TIP3    H250350   3.001   1.720  10.653  0.8480  0.4457  0.0747
 8719TIP3   OH250351   7.519   7.411  12.462  0.0489  0.0252  0.7738
 8719TIP3    H150352   7.444   7.443  12.413  0.3334 -1.3424 -0.6432
 8719TIP3    H250353   7.557   7.343  12.406  1.6121 -0.1725  2.0040
 8720TIP3   OH250354   7.589   7.581  11.875  0.3271 -0.3481  0.5733
 8720TIP3    H150355   7.536   7.549  11.948  1.4082 -0.1778  1.4470
 8720TIP3    H250356   7.574   7.517  11.805 -1.8698  0.2843  0.4043
 8721TIP3   OH250357   7.119   1.948  11.128  0.2775 -0.1016  0.3764
 8721TIP3    H150358   7.162   1.869  11.161  1.8545  0.0518 -1.1458
 8721TIP3    H250359   7.159   1.963  11.043 -3.0571 -0.1114 -1.3818
 8722TIP3   OH250360   1.492   3.056  11.378  0.3131  0.1113  0.0406
 8722TIP3    H150361   1.421   3.096  11.428  0.6629 -0.7847  1.3252
 8722TIP3    H250362   1.567   3.114  11.392  0.4432 -0.2038  0.6890
 8723TIP3   OH250363   6.982   3.455  12.521 -0.0206 -0.0009 -0.4544
 8723TIP3    H150364   7.041   3.384  12.498  0.5024  0.2432  0.1125
 8723TIP3    H250365   6.896   3.413  12.531 -0.2559 -0.1560 -2.5951
 8724TIP3   OH250366   2.916   3.217  12.045 -0.2627  0.0891  0.0817
 8724TIP3    H150367   2.898   3.279  11.974  0.5503 -0.8703 -1.0006
 8724TIP3    H250368   2.863   3.248  12.118 -1.7703  0.6359 -1.1919
 8725TIP3   OH250369   4.798   7.632  11.111 -0.3985 -0.0644 -0.2488
 8725TIP3    H150370   4.819   7.551  11.159 -0.7026  0.3998  0.6962
 8725TIP3    H250371   4.758   7.602  11.030 -0.7158 -0.8665  0.1863
 8726TIP3   OH250372   2.854   3.661  12.204 -0.7970 -0.2062  0.1937
 8726TIP3    H150373   2.838   3.717  12.280 -1.5111 -1.3454  0.9146
 8726TIP3    H250374   2.919   3.597  12.235 -1.0171 -0.6121 -0.1764
 8727TIP3   OH250375   0.095   0.501  11.501  0.0319  0.2270 -0.1592
 8727TIP3    H150376   0.085   0.425  11.444  0.7502 -1.2576  1.5848
 8727TIP3    H250377   0.105   0.464  11.589 -0.8148  2.3996  0.9357
 8728TIP3   OH250378   0.947   5.996  12.647  0.0328  0.0009 -0.2237
 8728TIP3    H150379   0.890   6.070  12.667  0.8926  0.7373 -0.4071
 8728TIP3    H250380   0.933   5.979  12.554 -0.5634 -0.4289 -0.0616
 8729TIP3   OH250381   2.180   4.214  11.434 -0.0065  0.0951  0.0280
 8729TIP3    H150382   2.131   4.194  11.513 -0.5446  1.4053  0.0626
 8729TIP3    H250383   2.138   4.294  11.400 -0.1887 -0.7561 -1.8941
 8730TIP3   OH250384   4.743   2.960  11.889 -0.2959  0.7639 -0.0838
 8730TIP3    H150385   4.747   2.975  11.795  0.8308  2.0118  0.1315
 8730TIP3    H250386   4.654   2.984  11.914 -0.7082  0.1016 -0.8608
 8731TIP3   OH250387   1.402   1.813  10.867  0.1048 -0.0756 -0.1074
 8731TIP3    H150388   1.471   1.816  10.933  0.1570  0.2463 -0.1748
 8731TIP3    H250389   1.323   1.789  10.916  0.3891 -1.1204 -0.1414
 8732TIP3   OH250390   3.874   3.082  11.102  0.1468  0.5408  0.4351
 8732TIP3    H150391   3.817   3.086  11.025  0.4168 -0.2934  0.1790
 8732TIP3    H250392   3.958   3.118  11.072  0.3481 -0.0807  0.2443
 8733TIP3   OH250393   2.325   4.752  11.561 -0.0921  0.3862 -0.3010
 8733TIP3    H150394   2.272   4.819  11.605  0.3071 -0.1161  1.0083
 8733TIP3    H250395   2.348   4.691  11.631 -2.3806 -2.4266 -1.7841
 8734TIP3   OH250396   3.895   5.266  12.238  0.0889 -0.9237  0.2952
 8734TIP3    H150397   3.839   5.238  12.166  1.3536 -2.0594 -0.2817
 8734TIP3    H250398   3.932   5.185  12.273  0.8683 -0.2497  1.0781
 8735TIP3   OH250399   0.231   7.543  11.837  0.8928  0.4987 -0.3331
 8735TIP3    H150400   0.172   7.605  11.795 -0.2122  0.3488  0.9201
 8735TIP3    H250401   0.319   7.577  11.818  0.3931  1.2202 -1.4878
 8736TIP3   OH250402   5.164   1.079  12.701  0.0837  0.0108 -0.0817
 8736TIP3    H150403   5.219   1.135  12.646 -0.6661  1.0083  0.1614
 8736TIP3    H250404   5.165   1.120  12.787  0.1352 -0.7764  0.2992
 8737TIP3   OH250405   0.971   5.099  12.135  0.3894 -0.2081  0.0427
 8737TIP3    H150406   1.027   5.127  12.208  1.0675 -1.6955  0.1176
 8737TIP3    H250407   0.912   5.173  12.121 -0.0983 -0.0662  2.4264
 8738TIP3   OH250408   3.491   3.503  11.341  0.3336  0.2888 -0.1673
 8738TIP3    H150409   3.563   3.497  11.279  0.3929 -0.9029  0.0046
 8738TIP3    H250410   3.509   3.583  11.391  1.5081  0.0162 -0.1392
 8739TIP3   OH250411   1.331   4.650  11.436  0.2844 -0.0253  0.0467
 8739TIP3    H150412   1.321   4.691  11.350 -0.5199 -1.6879 -0.6938
 8739TIP3    H250413   1.388   4.575  11.420  0.6846  0.0450  1.1092
 8740TIP3   OH250414   4.532   6.381  11.144  0.1008 -1.0847  0.2695
 8740TIP3    H150415   4.591   6.337  11.206  0.3349 -0.4088  0.5276
 8740TIP3    H250416   4.536   6.326  11.065  1.4211 -0.8192  0.1305
 8741TIP3   OH250417   4.754   7.364  11.828 -0.5522 -0.4185 -0.9496
 8741TIP3    H150418   4.660   7.376  11.845 -0.4398  1.7281 -1.6540
 8741TIP3    H250419   4.792   7.348  11.915 -1.5099 -0.9718 -0.6158
 8742TIP3   OH250420   5.612   3.017  10.724 -0.2354  0.2942 -0.0389
 8742TIP3    H150421   5.705   2.994  10.718  0.1922  1.2842  1.8567
 8742TIP3    H250422   5.605   3.101  10.679  0.2961  1.3571  1.7907
 8743TIP3   OH250423   2.824   3.249  10.533  0.7110  0.0883 -0.4186
 8743TIP3    H150424   2.891   3.236  10.600 -0.2044  2.0530  0.9788
 8743TIP3    H250425   2.861   3.316  10.476  0.1019  0.9719  0.1948
 8744TIP3   OH250426   7.293   3.835  12.363 -0.1112  0.2487 -0.4206
 8744TIP3    H150427   7.281   3.783  12.443 -1.6191 -1.4588 -1.6507
 8744TIP3    H250428   7.274   3.925  12.389 -0.3253 -0.2368  1.1961
 8745TIP3   OH250429   3.455   4.874  12.715 -0.3383 -0.1705  0.3880
 8745TIP3    H150430   3.373   4.906  12.677  0.5399  0.2611 -1.2670
 8745TIP3    H250431   3.467   4.925  12.794 -1.0166  0.7005 -0.0567
 8746TIP3   OH250432   6.566   2.512  11.233 -0.1362  0.1815  0.5646
 8746TIP3    H150433   6.476   2.524  11.201 -0.5915 -2.9306  0.3869
 8746TIP3    H250434   6.562   2.535  11.326 -1.4348 -1.0419  0.8362
 8747TIP3   OH250435   2.594   3.587  12.187  0.1090 -0.5274 -0.2475
 8747TIP3    H150436   2.687   3.603  12.202  0.2737 -0.2894 -1.4042
 8747TIP3    H250437   2.587   3.493  12.176  0.1342 -0.5981  0.3273
 8748TIP3   OH250438   7.118   1.350  13.388 -0.1672  0.0834  0.0210
 8748TIP3    H150439   7.167   1.336  13.307  0.8089  1.2479  0.3840
 8748TIP3    H250440   7.157   1.287  13.450  0.4165  0.5229  0.1122
 8749TIP3   OH250441   2.511   2.152  11.884 -0.6814 -0.1286 -0.1559
 8749TIP3    H150442   2.543   2.230  11.838 -0.4741  0.0499  0.2833
 8749TIP3    H250443   2.448   2.186  11.948 -2.5109 -0.5526 -1.6392
 8750TIP3   OH250444   1.120   4.235  10.884  0.1357  0.5100 -0.0976
 8750TIP3    H150445   1.094   4.312  10.835  0.5785  0.8014  0.1227
 8750TIP3    H250446   1.042   4.211  10.935 -0.4008  0.0769 -1.0843
 8751TIP3   OH250447   7.183   3.695  13.390  0.5785  0.5333  0.0984
 8751TIP3    H150448   7.217   3.660  13.472 -1.6997 -0.1378  0.8214
 8751TIP3    H250449   7.234   3.775  13.375  1.2029  0.5419  2.0354
 8752TIP3   OH250450   4.915   0.957  11.627 -0.2907 -0.2078  0.1508
 8752TIP3    H150451   4.868   0.874  11.621  0.3802 -0.6249  0.5326
 8752TIP3    H250452   4.997   0.942  11.579  0.7194 -0.4211  1.8587
 8753TIP3   OH250453   5.592   1.998  11.651  0.0847  0.0168 -0.7273
 8753TIP3    H150454   5.648   1.922  11.636  1.3576  1.0696 -1.4808
 8753TIP3    H250455   5.631   2.042  11.727 -0.6168 -0.0431 -0.3231
 8754TIP3   OH250456   5.792   5.120  10.878  0.0604 -0.3323  0.2708
 8754TIP3    H150457   5.824   5.143  10.965 -0.3410 -1.8068  0.8429
 8754TIP3    H250458   5.788   5.203  10.831  1.8391  0.2882  1.1271
 8755TIP3   OH250459   1.247   0.406  11.735 -0.1454  0.1932  0.1261
 8755TIP3    H150460   1.276   0.339  11.797 -1.5919 -0.4601  0.1446
 8755TIP3    H250461   1.170   0.368  11.693 -1.1767  1.9574  0.3203
 8756TIP3   OH250462   5.088   4.586  10.810  0.6345  0.3879 -0.0201
 8756TIP3    H150463   4.996   4.590  10.837  0.4591 -1.0511 -0.3345
 8756TIP3    H250464   5.087   4.612  10.718  0.3220 -0.9239 -0.4161
 8757TIP3   OH250465   4.911   5.920  12.613 -0.1552  0.0916 -0.0876
 8757TIP3    H150466   4.917   5.829  12.641 -1.3973 -0.1809 -0.6222
 8757TIP3    H250467   4.879   5.915  12.523  3.7924  0.9170 -1.7591
 8758TIP3   OH250468   3.568   4.598  13.072 -0.1356  0.1163  0.1602
 8758TIP3    H150469   3.507   4.670  13.089  0.6681  0.4938  1.6108
 8758TIP3    H250470   3.644   4.618  13.126  0.5669 -1.2649 -0.2684
 8759TIP3   OH250471   2.359   2.837  11.965  0.3868  0.4168 -0.0559
 8759TIP3    H150472   2.337   2.859  12.055  0.3686 -0.3107  0.1247
 8759TIP3    H250473   2.380   2.921  11.924 -0.1788  0.8213  0.4619
 8760TIP3   OH250474   1.564   4.017  10.747  0.2995 -0.2696  0.4275
 8760TIP3    H150475   1.600   3.999  10.834  1.4014 -0.9374 -0.1451
 8760TIP3    H250476   1.493   4.079  10.763  0.8589  0.0717  1.7379
 8761TIP3   OH250477   3.572   0.067  10.400 -0.4260 -0.9149  0.7713
 8761TIP3    H150478   3.644   0.122  10.431 -1.1935  1.4545 -1.2939
 8761TIP3    H250479   3.581  -0.014  10.449  1.3377  0.6960  3.3731
 8762TIP3   OH250480   5.169   0.220  12.066  0.0486 -0.4167  0.5336
 8762TIP3    H150481   5.242   0.193  12.121  1.1265  1.4612  0.1143
 8762TIP3    H250482   5.134   0.138  12.030  1.8837 -1.3655  0.7949
 8763TIP3   OH250483   1.693   7.277  12.020 -0.4396  0.4465 -0.4257
 8763TIP3    H150484   1.667   7.185  12.025 -1.2629  0.6168 -1.3158
 8763TIP3    H250485   1.763   7.279  11.955  1.5166  0.0799  1.5375
 8764TIP3   OH250486   0.657   0.234  17.841  0.4073 -0.3383  0.4772
 8764TIP3    H150487   0.577   0.186  17.863  1.3716 -1.3243  2.0742
 8764TIP3    H250488   0.679   0.205  17.753 -1.6356  0.9302 -0.5392
 8765TIP3   OH250489   1.865   1.336  12.855  0.2903 -0.3197 -0.0933
 8765TIP3    H150490   1.949   1.358  12.815  1.0489 -2.1224  0.4164
 8765TIP3    H250491   1.854   1.402  12.924  1.3624 -0.1741 -0.0477
 8766TIP3   OH250492   7.228   3.721  12.110  0.5300  0.4520 -0.1771
 8766TIP3    H150493   7.141   3.686  12.126 -0.7610  2.4115 -2.3170
 8766TIP3    H250494   7.250   3.770  12.190 -0.4182  0.1295  0.2905
 8767TIP3   OH250495   4.275   6.040  12.181  0.0403 -0.4544  0.3065
 8767TIP3    H150496   4.257   5.972  12.115  1.0986 -0.0381 -0.4421
 8767TIP3    H250497   4.247   6.001  12.263 -0.7475 -1.2305 -0.3023
 8768TIP3   OH250498   0.553   7.319  12.942 -0.4519  0.7806 -0.0764
 8768TIP3    H150499   0.543   7.414  12.955  2.6106  1.1901  0.0371
 8768TIP3    H250500   0.619   7.293  13.006  1.5137 -0.6691 -2.5203
 8769TIP3   OH250501   2.725   0.094  10.617  0.3692  0.3688 -0.5350
 8769TIP3    H150502   2.700   0.155  10.548 -2.2849  0.4566  0.3878
 8769TIP3    H250503   2.788   0.142  10.670  0.2152  1.3885 -1.2461
 8770TIP3   OH250504   3.575   0.367  10.224 -0.4034  0.4179 -0.7429
 8770TIP3    H150505   3.592   0.274  10.239 -1.9774  0.1347 -0.5521
 8770TIP3    H250506   3.483   0.371  10.199 -0.5796  2.0054  0.0103
 8771TIP3   OH250507   0.339   5.483  12.439 -0.4059 -0.0137  0.2353
 8771TIP3    H150508   0.355   5.577  12.441 -1.7530  0.2410  2.6603
 8771TIP3    H250509   0.371   5.455  12.353  3.4648  1.9839  0.8272
 8772TIP3   OH250510   1.099   1.673  12.836  0.0402  0.3856  0.6168
 8772TIP3    H150511   1.026   1.660  12.896  0.2308  0.1451  0.7946
 8772TIP3    H250512   1.057   1.691  12.751 -0.2217 -0.7776  0.4941
 8773TIP3   OH250513   3.696   5.892  11.430  0.0806 -0.1389 -0.2571
 8773TIP3    H150514   3.605   5.919  11.417  0.5992  1.0165 -1.8273
 8773TIP3    H250515   3.736   5.903  11.344  1.7275 -0.6046  0.4154
 8774TIP3   OH250516   6.524   4.197  13.041  0.0190  0.1972  0.1977
 8774TIP3    H150517   6.616   4.206  13.066  0.0578 -0.3555  0.2765
 8774TIP3    H250518   6.475   4.216  13.121  0.0601  0.5375  0.1440
 8775TIP3   OH250519   6.042   6.141  13.092  0.2465  0.6303  0.2612
 8775TIP3    H150520   6.085   6.069  13.138  0.9853  1.7333  1.3757
 8775TIP3    H250521   5.949   6.125  13.104  0.4139  0.4192  1.4096
 8776TIP3   OH250522   6.908   6.312  18.861  0.0300 -0.0511  0.2862
 8776TIP3    H150523   6.920   6.328  18.955 -0.7412 -0.4872  0.4708
 8776TIP3    H250524   6.988   6.268  18.834  0.3839  0.3426  0.6715
 8777TIP3   OH250525   7.289   1.910  11.940  0.4287 -0.3224  0.5872
 8777TIP3    H150526   7.297   1.908  11.844  1.3536  0.0694  0.6455
 8777TIP3    H250527   7.215   1.968  11.956  0.7850  0.2754  0.1230
 8778TIP3   OH250528   0.986   1.047  11.900  0.2852 -0.3139  0.4508
 8778TIP3    H150529   1.005   1.051  11.806 -1.1561  0.0880  0.1490
 8778TIP3    H250530   0.892   1.029  11.904  0.2324  0.1835  1.8165
 8779TIP3   OH250531   2.926   0.283  11.665  0.3174 -0.1577 -0.2062
 8779TIP3    H150532   2.837   0.313  11.644  0.2781 -0.4549 -0.4657
 8779TIP3    H250533   2.968   0.360  11.703 -0.9728 -0.7743  2.7604
 8780TIP3   OH250534   6.158   1.916  10.760  0.1664  0.1981 -0.5854
 8780TIP3    H150535   6.242   1.874  10.741 -0.5217 -0.6779 -1.8263
 8780TIP3    H250536   6.182   2.003  10.791  1.5477 -0.2026 -0.4369
 8781TIP3   OH250537   3.972   6.765  13.348 -0.5711 -0.0602 -0.1689
 8781TIP3    H150538   4.010   6.830  13.406 -1.2268  0.2793 -0.1145
 8781TIP3    H250539   3.997   6.794  13.260  0.2129 -0.4431 -0.0902
 8782TIP3   OH250540   6.168   6.874  11.106 -0.3451 -0.2205  0.0243
 8782TIP3    H150541   6.246   6.928  11.093  0.1038 -0.5438  1.1960
 8782TIP3    H250542   6.199   6.800  11.158 -1.4217 -0.3729  0.4775
 8783TIP3   OH250543   1.074   3.175  13.160 -0.2229  0.5826  0.0832
 8783TIP3    H150544   1.056   3.268  13.148  0.7722  1.0440  1.8261
 8783TIP3    H250545   0.993   3.140  13.199  0.4658  1.4354  2.4380
 8784TIP3   OH250546   6.582   3.975  13.295  0.0514 -0.4674  0.2391
 8784TIP3    H150547   6.608   3.937  13.211  0.1977  2.8741 -1.4113
 8784TIP3    H250548   6.494   3.942  13.311 -0.4631 -0.2677 -1.9070
 8785TIP3   OH250549   0.297   3.680  11.222 -0.4668 -0.2505  0.2534
 8785TIP3    H150550   0.345   3.749  11.267  0.0034 -0.2846 -0.1828
 8785TIP3    H250551   0.249   3.634  11.291  0.7781 -0.7356  0.8100
 8786TIP3   OH250552   3.150   2.655  11.922  0.5953 -0.1696 -0.4388
 8786TIP3    H150553   3.097   2.668  11.844  1.3144 -0.7551 -1.0392
 8786TIP3    H250554   3.235   2.624  11.889  1.6544  1.6451  0.3975
 8787TIP3   OH250555   0.205   4.654  11.097  0.4372 -0.7762 -0.2165
 8787TIP3    H150556   0.142   4.626  11.030  1.0512 -1.4780 -0.5194
 8787TIP3    H250557   0.215   4.577  11.153  0.2700 -0.3360  0.4272
 8788TIP3   OH250558   6.358   2.602  12.673  0.0421  0.6689 -0.1789
 8788TIP3    H150559   6.299   2.607  12.748 -1.4421  2.5283 -1.3683
 8788TIP3    H250560   6.301   2.619  12.597  1.2613 -2.1371 -1.8891
 8789TIP3   OH250561   0.806   2.431  11.296  0.5831  0.2533  0.2398
 8789TIP3    H150562   0.763   2.347  11.311 -0.5188  0.8417  0.5108
 8789TIP3    H250563   0.898   2.409  11.282  0.3131 -0.9907  0.3042
 8790TIP3   OH250564   6.613   1.091  12.153 -0.0966 -0.2898  0.0537
 8790TIP3    H150565   6.605   1.076  12.059 -0.0776  0.1347 -0.0189
 8790TIP3    H250566   6.707   1.080  12.171  0.0448  0.5207 -0.1429
 8791TIP3   OH250567   2.979   7.239  12.599 -0.1326 -0.3812 -0.7894
 8791TIP3    H150568   3.026   7.221  12.681 -0.4425 -0.0909 -0.5417
 8791TIP3    H250569   3.048   7.257  12.535  0.0893  0.8777 -0.2301
 8792TIP3   OH250570   3.217   4.637  10.553 -0.0788  0.2118  0.0882
 8792TIP3    H150571   3.274   4.686  10.494 -0.1436  1.5061  1.0721
 8792TIP3    H250572   3.192   4.559  10.502 -0.9120  1.7315 -1.9806
 8793TIP3   OH250573   2.912   2.754  12.618  0.1455 -0.5119 -0.5265
 8793TIP3    H150574   2.857   2.778  12.693  1.7406 -2.0250  1.2550
 8793TIP3    H250575   2.858   2.694  12.567 -0.6463 -0.2065 -0.0668
 8794TIP3   OH250576   4.984   0.519  10.622  0.2535  0.2380 -0.7361
 8794TIP3    H150577   5.004   0.538  10.714 -0.7866 -1.1669 -0.1913
 8794TIP3    H250578   5.064   0.480  10.588  0.7089  0.9362 -0.5021
 8795TIP3   OH250579   3.667   5.733  10.908 -0.2699 -0.1952 -0.4133
 8795TIP3    H150580   3.720   5.667  10.953  2.1753  0.6374 -1.9113
 8795TIP3    H250581   3.683   5.814  10.956 -0.1896  0.0765 -0.8999
 8796TIP3   OH250582   7.188   6.522  13.387  0.4579  0.4606 -0.0207
 8796TIP3    H150583   7.269   6.521  13.438  0.1868 -2.7346  0.5599
 8796TIP3    H250584   7.178   6.431  13.358 -2.4397  0.9756 -0.8626
 8797TIP3   OH250585   2.935   0.240  12.137 -0.6593  0.7984 -0.1527
 8797TIP3    H150586   2.991   0.287  12.199 -0.6809 -0.3298  0.7478
 8797TIP3    H250587   2.912   0.159  12.181  1.0045 -1.0416 -2.3957
 8798TIP3   OH250588   0.884   6.779  10.361  0.2662 -0.8514 -1.0550
 8798TIP3    H150589   0.899   6.684  10.356 -0.0072 -0.9319 -0.4489
 8798TIP3    H250590   0.862   6.795  10.453 -1.5670 -0.4720 -1.5340
 8799TIP3   OH250591   2.315   5.103  10.449 -0.5998 -0.4981 -0.2247
 8799TIP3    H150592   2.383   5.139  10.392 -0.5891 -0.7390 -0.3691
 8799TIP3    H250593   2.256   5.057  10.388 -1.6447  0.8516 -0.2698
 8800TIP3   OH250594   7.085   6.961  13.223 -0.1420 -0.0986 -0.2303
 8800TIP3    H150595   7.025   7.021  13.179 -0.0928 -0.6120 -1.0357
 8800TIP3    H250596   7.172   6.996  13.203 -0.1254 -0.2474 -0.4263
 8801TIP3   OH250597   3.345   7.058  10.406 -0.7471 -0.2240 -0.1127
 8801TIP3    H150598   3.388   6.991  10.352 -0.5120  0.1134 -0.3512
 8801TIP3    H250599   3.410   7.082  10.471 -0.3283  0.7485 -0.8678
 8802TIP3   OH250600   2.231   2.950  10.707 -0.4901  0.2644  0.4073
 8802TIP3    H150601   2.314   2.993  10.730 -0.4451  0.1511  0.4543
 8802TIP3    H250602   2.191   2.928  10.791 -1.5944  2.2677  0.4689
 8803TIP3   OH250603   7.568   0.920  12.039  0.0880  0.1684 -0.1487
 8803TIP3    H150604   7.483   0.962  12.047 -0.5221 -0.9583 -0.5269
 8803TIP3    H250605   7.631   0.992  12.045 -0.8234  0.8825  1.3231
 8804TIP3   OH250606   1.901   4.107  12.050  0.0487  0.2915 -0.6556
 8804TIP3    H150607   1.986   4.078  12.018 -0.8173 -1.0236 -1.9381
 8804TIP3    H250608   1.838   4.053  12.001 -1.4475 -0.6589  2.0837
 8805TIP3   OH250609   0.970   0.404  11.962  0.2807  0.1400  0.8469
 8805TIP3    H150610   0.974   0.324  12.014  1.5929  0.2091  0.8919
 8805TIP3    H250611   1.044   0.457  11.994  1.7123 -0.1873 -1.6721
 8806TIP3   OH250612   2.796   5.555  10.786 -0.0952  0.0284  0.0989
 8806TIP3    H150613   2.783   5.464  10.809  3.2318 -0.4163  0.7117
 8806TIP3    H250614   2.713   5.598  10.808 -1.4823 -2.6647  0.4931
 8807TIP3   OH250615   1.439   6.340  12.525 -0.4182  0.0571  0.0667
 8807TIP3    H150616   1.391   6.304  12.600  1.1832  1.1808  1.7238
 8807TIP3    H250617   1.504   6.273  12.504 -1.0557 -0.3853 -0.5513
 8808TIP3   OH250618   2.673   4.119  11.330  0.4139 -0.0243  0.2139
 8808TIP3    H150619   2.628   4.057  11.273  0.6199  0.0468 -0.0273
 8808TIP3    H250620   2.613   4.194  11.334  0.5620  0.1224 -0.2087
 8809TIP3   OH250621   3.125   5.478  11.350  0.1178  0.0816 -0.2645
 8809TIP3    H150622   3.128   5.513  11.439  0.2885 -0.5871 -0.0101
 8809TIP3    H250623   3.209   5.434  11.337  0.0057 -0.0224 -0.6775
 8810TIP3   OH250624   3.271   5.956  12.100 -0.1290 -0.3038 -0.4726
 8810TIP3    H150625   3.263   5.996  12.186  2.0910 -0.3430 -0.2063
 8810TIP3    H250626   3.285   5.863  12.117 -0.6355 -0.4785 -0.9375
 8811TIP3   OH250627   2.278   6.469  11.315 -0.3039  0.0688 -1.0017
 8811TIP3    H150628   2.229   6.503  11.390  0.0847  1.0395 -1.1782
 8811TIP3    H250629   2.336   6.540  11.289  0.5899 -0.7520 -1.3446
 8812TIP3   OH250630   2.107   6.155  11.274  0.4013 -0.0213  0.6462
 8812TIP3    H150631   2.179   6.206  11.237 -0.5662 -0.1354 -1.5291
 8812TIP3    H250632   2.144   6.069  11.291  0.4016 -0.7155 -2.3456
 8813TIP3   OH250633   4.872   5.857  11.960 -0.2971 -0.4362 -0.4340
 8813TIP3    H150634   4.871   5.895  11.872  0.0227  2.1245  0.5563
 8813TIP3    H250635   4.780   5.837  11.978 -0.4814 -0.1860 -1.0587
 8814TIP3   OH250636   2.615   7.024  12.631  0.7300  1.1020  0.1598
 8814TIP3    H150637   2.566   6.986  12.704  1.4158 -0.2700 -0.0712
 8814TIP3    H250638   2.702   6.985  12.638  0.5271  0.1242 -1.9964
 8815TIP3   OH250639   1.010   5.450  12.159 -0.3434  0.2800 -0.5194
 8815TIP3    H150640   1.001   5.465  12.065  0.3337  0.7272 -0.5205
 8815TIP3    H250641   0.923   5.422  12.188 -0.6354  0.4571 -1.2218
 8816TIP3   OH250642   3.309   3.529  10.340 -0.2934  0.1140  0.1795
 8816TIP3    H150643   3.277   3.442  10.317  1.6793 -0.5717 -0.1555
 8816TIP3    H250644   3.230   3.582  10.352 -1.5047 -1.3866 -0.8818
 8817TIP3   OH250645   6.718   0.507  11.129  0.0817 -0.4235 -0.3607
 8817TIP3    H150646   6.775   0.510  11.206 -1.4215 -0.9605  0.8272
 8817TIP3    H250647   6.720   0.415  11.101  0.8046 -0.1843 -1.1197
 8818TIP3   OH250648   2.409   2.704  11.376 -0.0680 -0.0846 -0.5880
 8818TIP3    H150649   2.370   2.766  11.438  2.4211 -0.4880  1.6111
 8818TIP3    H250650   2.500   2.735  11.367 -0.3075 -0.0562 -4.1789
 8819TIP3   OH250651   4.966   0.957  11.186 -0.3340  0.3367 -0.2326
 8819TIP3    H150652   5.054   0.940  11.221  0.2424 -0.3264 -1.9438
 8819TIP3    H250653   4.937   1.035  11.234  0.8924  0.1705  0.8544
 8820TIP3   OH250654   3.174   4.457  10.879  0.0784 -0.6577 -0.2487
 8820TIP3    H150655   3.251   4.513  10.878  0.6652 -1.4538 -0.1871
 8820TIP3    H250656   3.174   4.414  10.794 -0.3011 -0.6670 -0.2487
 8821TIP3   OH250657   2.779   4.876  12.859 -0.2206  0.1078  0.5180
 8821TIP3    H150658   2.792   4.804  12.797 -3.0284  0.5165 -0.7113
 8821TIP3    H250659   2.830   4.851  12.935 -0.2918 -2.7255 -0.2274
 8822TIP3   OH250660   6.472   6.717  10.829 -0.1984 -0.0339  0.3620
 8822TIP3    H150661   6.536   6.789  10.828  2.2453 -2.0883 -0.0396
 8822TIP3    H250662   6.507   6.653  10.767 -3.5222 -0.6531 -1.1301
 8823TIP3   OH250663   2.817   1.693  11.892 -0.1201 -0.5302 -0.2729
 8823TIP3    H150664   2.812   1.773  11.840 -0.4380 -0.8976 -0.8230
 8823TIP3    H250665   2.798   1.623  11.830 -3.1659 -0.8305  0.8385
 8824TIP3   OH250666   7.068   7.037  10.624 -0.2276 -0.5113 -0.1607
 8824TIP3    H150667   7.078   7.017  10.531  0.3803  1.7282 -0.6377
 8824TIP3    H250668   7.003   7.107  10.627 -0.9737 -1.2190  1.2108
 8825TIP3   OH250669   0.512   6.103  12.415  0.4194  0.1316 -0.3549
 8825TIP3    H150670   0.450   6.031  12.432 -0.4288  0.4791 -1.8125
 8825TIP3    H250671   0.492   6.167  12.483 -1.5259  0.6510 -1.3419
 8826TIP3   OH250672   2.801   6.711  11.819 -0.0194 -0.2814 -0.5583
 8826TIP3    H150673   2.765   6.727  11.906  0.4940 -0.7986 -0.2479
 8826TIP3    H250674   2.764   6.781  11.765 -0.7908 -0.2924 -0.0566
 8827TIP3   OH250675   0.397   3.865  13.194 -0.0779  0.4373 -0.6448
 8827TIP3    H150676   0.468   3.803  13.182  0.4179  0.7527  0.5457
 8827TIP3    H250677   0.330   3.817  13.243  0.1390  0.7291 -0.0656
 8828TIP3   OH250678   5.094   3.766  12.232  0.0304 -0.3364  0.0817
 8828TIP3    H150679   5.179   3.803  12.254  0.4844 -1.0397 -0.4739
 8828TIP3    H250680   5.047   3.763  12.316  1.7922 -3.1720  1.1035
 8829TIP3   OH250681   3.384   7.622  10.674 -0.5091  0.1366  0.4502
 8829TIP3    H150682   3.430   7.598  10.755 -1.3192 -1.1865  0.5545
 8829TIP3    H250683   3.369   7.539  10.629 -1.7833  0.6401 -0.1207
 8830TIP3   OH250684   5.487   5.623  12.130  0.2304 -0.6125  0.0484
 8830TIP3    H150685   5.397   5.592  12.129  0.4416 -1.3288 -2.1219
 8830TIP3    H250686   5.500   5.664  12.044  1.7027  0.3274  0.6646
 8831TIP3   OH250687   0.167   5.070  11.643 -0.1995  0.1756 -0.3873
 8831TIP3    H150688   0.258   5.091  11.663  1.0734 -3.1025 -2.0017
 8831TIP3    H250689   0.160   5.078  11.548 -0.9689 -1.5373 -0.5171
 8832TIP3   OH250690   7.159   0.414  12.388 -0.3383 -0.3381  0.4655
 8832TIP3    H150691   7.117   0.382  12.468 -1.4201  1.3043  0.6265
 8832TIP3    H250692   7.097   0.479  12.353  0.9405  0.3121 -0.7044
 8833TIP3   OH250693   5.955   4.822  11.559 -0.3196 -0.0907  0.4201
 8833TIP3    H150694   6.004   4.766  11.499 -0.5294 -0.8802  0.9651
 8833TIP3    H250695   6.016   4.891  11.583 -0.6261  1.0026 -1.6874
 8834TIP3   OH250696   0.675   0.840  12.318  0.4390  0.3205  0.1710
 8834TIP3    H150697   0.686   0.902  12.390 -0.3267 -1.5085  1.9575
 8834TIP3    H250698   0.594   0.794  12.338 -1.0104  1.2022 -3.0746
 8835TIP3   OH250699   6.916   2.257  11.400 -0.1225  0.0857 -0.1351
 8835TIP3    H150700   6.953   2.295  11.480  3.1362 -2.6811 -0.1357
 8835TIP3    H250701   6.987   2.262  11.336 -1.9774  0.3536 -2.3158
 8836TIP3   OH250702   1.844   1.572  11.329 -0.1939  0.3827  0.3058
 8836TIP3    H150703   1.803   1.497  11.286 -2.1584  1.9279 -0.6457
 8836TIP3    H250704   1.844   1.549  11.422 -0.9721 -0.7014  0.0589
 8837TIP3   OH250705   5.929   1.013  12.481 -0.2712  0.3314  0.6638
 8837TIP3    H150706   5.914   1.089  12.537 -0.3483  0.4265  0.5121
 8837TIP3    H250707   5.993   0.960  12.530 -1.4407 -0.3212  1.5605
 8838TIP3   OH250708   6.383   4.254  11.962 -0.5622 -0.0359  0.1599
 8838TIP3    H150709   6.439   4.232  11.888 -0.2648  0.0507  0.3588
 8838TIP3    H250710   6.417   4.201  12.035 -0.6396  0.1321  0.3195
 8839TIP3   OH250711   0.180   1.372  12.231  0.0704  0.1832  0.1461
 8839TIP3    H150712   0.134   1.454  12.210  0.8814  0.7386  0.4713
 8839TIP3    H250713   0.181   1.370  12.327 -0.0554 -0.2771  0.1396
 8840TIP3   OH250714   7.193   6.753  12.189  0.1923 -0.0206 -0.1018
 8840TIP3    H150715   7.179   6.666  12.152  2.2161 -0.2209 -0.5127
 8840TIP3    H250716   7.141   6.811  12.133 -0.0110 -0.7997 -0.7511
 8841TIP3   OH250717   1.021   0.254  11.578 -0.0646 -0.1109 -0.5393
 8841TIP3    H150718   0.968   0.192  11.527 -0.8659  0.5952 -0.5910
 8841TIP3    H250719   1.051   0.203  11.653  0.0752 -0.8142 -1.0540
 8842TIP3   OH250720   0.909   4.406  11.731  0.4669  0.6379 -0.2534
 8842TIP3    H150721   0.841   4.439  11.789  1.6454 -0.1461  1.6913
 8842TIP3    H250722   0.913   4.469  11.659 -2.6226  0.4103 -0.7408
 8843TIP3   OH250723   6.698   4.331  12.163  0.0726  0.3901  0.3080
 8843TIP3    H150724   6.622   4.346  12.219 -0.0099  0.4933  0.1690
 8843TIP3    H250725   6.701   4.236  12.153 -0.3403  0.4140 -0.0984
 8844TIP3   OH250726   1.083   3.927  12.222  0.3058  0.2756  0.0948
 8844TIP3    H150727   1.050   3.955  12.136  1.4048  1.5039  0.0444
 8844TIP3    H250728   1.015   3.954  12.283 -0.5596 -0.7479 -0.3860
 8845TIP3   OH250729   7.431   0.762  12.326  0.5041  0.1450 -0.0568
 8845TIP3    H150730   7.363   0.758  12.258  0.2440 -0.9256  0.2398
 8845TIP3    H250731   7.497   0.699  12.298 -0.6054 -1.9520  1.6736
 8846TIP3   OH250732   6.204   5.438  11.354 -0.3646 -0.3036 -0.9371
 8846TIP3    H150733   6.291   5.404  11.375  0.2907  2.1226  0.6862
 8846TIP3    H250734   6.201   5.436  11.258  1.0963 -1.3062 -1.0050
 8847TIP3   OH250735   1.226   3.452  12.609 -0.7253 -0.3773 -0.0147
 8847TIP3    H150736   1.250   3.392  12.538 -1.9406 -1.3004  0.3142
 8847TIP3    H250737   1.265   3.413  12.688 -1.0408 -0.4318  0.1163
 8848TIP3   OH250738   3.319   5.060  11.508  0.2950 -0.3733 -0.0971
 8848TIP3    H150739   3.402   5.035  11.469 -0.7316 -1.4116 -1.7657
 8848TIP3    H250740   3.329   5.040  11.601  1.7021 -1.0525 -0.3708
 8849TIP3   OH250741   1.270   3.920  10.681 -0.5148  0.1331 -0.1810
 8849TIP3    H150742   1.307   3.887  10.599  3.3506  1.2755  0.9369
 8849TIP3    H250743   1.323   3.880  10.750 -1.9718  1.2308  1.6947
 8850TIP3   OH250744   5.962   1.705  12.262  0.1306 -0.2304  0.2537
 8850TIP3    H150745   5.867   1.694  12.272  0.2387 -0.6645  0.8733
 8850TIP3    H250746   5.991   1.626  12.216  0.1380  0.0933 -0.3051
 8851TIP3   OH250747   6.812   2.730  11.168 -0.4427  0.2473 -0.2269
 8851TIP3    H150748   6.859   2.649  11.189  0.0805  0.5633 -0.1560
 8851TIP3    H250749   6.788   2.721  11.076 -0.0122  0.1934 -0.3350
 8852TIP3   OH250750   5.149   0.553  11.567 -0.8081  0.3140  0.1001
 8852TIP3    H150751   5.119   0.514  11.649 -0.5316  0.6607  0.3698
 8852TIP3    H250752   5.245   0.555  11.575 -0.8241  1.3386  0.2351
 8853TIP3   OH250753   1.801   7.554  11.048 -0.1815  0.0934  0.2779
 8853TIP3    H150754   1.725   7.584  11.097 -0.4451 -0.7446  0.3946
 8853TIP3    H250755   1.794   7.458  11.048 -0.3822  0.0569 -1.6600
 8854TIP3   OH250756   7.465   4.269  12.782 -0.2866  0.3710  0.0636
 8854TIP3    H150757   7.379   4.309  12.774 -0.2428  0.2647 -1.2556
 8854TIP3    H250758   7.513   4.326  12.841 -0.9231  1.0298 -0.0409
 8855TIP3   OH250759   4.679   3.212  10.797  0.2156  0.5619  0.2626
 8855TIP3    H150760   4.702   3.234  10.707  0.4818  0.2491  0.2519
 8855TIP3    H250761   4.715   3.284  10.849  2.1867 -0.4118  0.3547
 8856TIP3   OH250762   3.968   4.261  11.786 -0.3329  0.3849 -0.2255
 8856TIP3    H150763   3.894   4.298  11.835 -1.1492 -1.5649  0.0802
 8856TIP3    H250764   4.040   4.260  11.848 -0.9021 -0.5220  0.4325
 8857TIP3   OH250765   6.033   7.162  11.418 -0.4573  0.2703 -0.0322
 8857TIP3    H150766   5.969   7.179  11.488 -0.4002 -0.7281  0.2839
 8857TIP3    H250767   5.979   7.143  11.341 -0.5455  0.0932  0.0702
 8858TIP3   OH250768   2.221   1.395  10.950 -0.1783  0.2140 -0.3590
 8858TIP3    H150769   2.259   1.375  10.865 -0.3848 -0.0666 -0.3887
 8858TIP3    H250770   2.223   1.491  10.956 -0.5327  0.2574 -0.8527
 8859TIP3   OH250771   7.207   3.907  10.855 -0.1714 -0.2518  0.1409
 8859TIP3    H150772   7.210   3.879  10.947 -1.8484 -1.3501 -0.0895
 8859TIP3    H250773   7.164   3.835  10.810 -0.6141  0.8583 -1.2839
 8860TIP3   OH250774   4.606   1.185  12.589  0.3397 -0.0587 -0.7031
 8860TIP3    H150775   4.594   1.098  12.629  1.1085 -0.2959 -0.9762
 8860TIP3    H250776   4.521   1.228  12.600  0.5485 -0.0721  1.2944
 8861TIP3   OH250777   3.641   7.388  11.631  0.6684 -0.3341  0.2920
 8861TIP3    H150778   3.589   7.449  11.578 -0.6968 -0.0391  1.8754
 8861TIP3    H250779   3.657   7.313  11.574  0.9841  0.8095 -1.1635
 8862TIP3   OH250780   6.511   6.718  12.237 -0.0775 -0.4844 -0.1995
 8862TIP3    H150781   6.492   6.650  12.302  1.5014 -1.2654 -0.5116
 8862TIP3    H250782   6.430   6.727  12.188 -0.7425 -1.1569  0.7295
 8863TIP3   OH250783   4.638   1.413  11.842 -0.4524  0.5882  0.1150
 8863TIP3    H150784   4.563   1.359  11.819 -0.0145  0.2636 -0.6121
 8863TIP3    H250785   4.600   1.497  11.867 -1.1197  0.0414  0.9747
 8864TIP3   OH250786   0.419   2.061  11.738 -0.0582 -0.3588  0.0343
 8864TIP3    H150787   0.344   2.028  11.689 -0.9682 -0.2722  1.3090
 8864TIP3    H250788   0.382   2.129  11.794  1.0741  0.0392  0.3173
 8865TIP3   OH250789   1.804   4.980  10.911 -0.2763 -0.1185  0.2003
 8865TIP3    H150790   1.825   5.072  10.929 -2.8372  0.1839  2.4532
 8865TIP3    H250791   1.722   4.984  10.861 -0.2083 -1.1773 -0.0093
 8866TIP3   OH250792   0.957   5.341  11.856 -0.3904 -0.3931  0.3381
 8866TIP3    H150793   0.976   5.426  11.817  1.5298  0.6412  3.1832
 8866TIP3    H250794   1.041   5.294  11.852 -0.7461 -1.1264  1.1265
 8867TIP3   OH250795   7.589   6.140  11.392 -0.7576  0.2841 -0.0389
 8867TIP3    H150796   7.659   6.201  11.368  0.8350 -0.8674  1.3896
 8867TIP3    H250797   7.633   6.054  11.398 -2.8656 -1.0256 -1.7811
 8868TIP3   OH250798   5.676   5.683  12.467  0.0486  0.2180 -0.7669
 8868TIP3    H150799   5.667   5.727  12.551  2.2164  0.6996 -0.7232
 8868TIP3    H250800   5.666   5.752  12.402 -0.0906  0.1254 -0.8457
 8869TIP3   OH250801   5.848   7.179  11.933 -0.5100 -0.0235  0.2337
 8869TIP3    H150802   5.833   7.252  11.994 -2.7694 -0.1724 -0.0725
 8869TIP3    H250803   5.827   7.101  11.983 -1.7541 -0.1890 -0.5095
 8870TIP3   OH250804   7.354   2.424  12.972 -0.1821 -0.2079  0.4834
 8870TIP3    H150805   7.387   2.500  13.019 -1.0229 -0.4930  1.5852
 8870TIP3    H250806   7.404   2.350  13.007  0.2847 -0.2380 -0.2241
 8871TIP3   OH250807   7.674   2.607  13.227 -0.4088  0.0471 -0.0944
 8871TIP3    H150808   7.761   2.640  13.206 -1.0736  1.5648 -0.5722
 8871TIP3    H250809   7.657   2.540  13.161 -0.7616  1.8144 -1.8917
 8872TIP3   OH250810   0.980   3.018  12.740 -0.6561  0.0444 -0.2373
 8872TIP3    H150811   0.938   3.100  12.766 -1.1450 -0.2016 -0.2424
 8872TIP3    H250812   1.064   3.045  12.703  0.4609  0.3657  2.3210
 8873TIP3   OH250813   0.178   0.331  12.113  0.3936  0.0076  0.4048
 8873TIP3    H150814   0.108   0.382  12.073  0.1791  0.1799  0.9842
 8873TIP3    H250815   0.133   0.265  12.166  0.6681 -0.1806  0.4043
 8874TIP3   OH250816   1.120   5.725  10.630 -0.3154 -0.3152 -0.3454
 8874TIP3    H150817   1.037   5.767  10.651 -0.3588 -0.3448 -0.4535
 8874TIP3    H250818   1.156   5.698  10.714 -1.7420 -2.8289 -0.4279
 8875TIP3   OH250819   0.705   0.292  11.236 -0.6821 -0.0085 -0.2840
 8875TIP3    H150820   0.695   0.208  11.280 -0.7479 -0.4288 -1.0947
 8875TIP3    H250821   0.615   0.321  11.220 -0.6610  0.2684  0.0770
 8876TIP3   OH250822   4.669   1.662  11.262 -0.6620 -0.2202 -0.1185
 8876TIP3    H150823   4.622   1.628  11.339 -1.1533 -0.3000 -0.4483
 8876TIP3    H250824   4.625   1.621  11.188 -0.8972  0.7063 -0.4964
 8877TIP3   OH250825   0.454   4.292  11.741  0.4560  0.2095 -0.0444
 8877TIP3    H150826   0.393   4.231  11.783  1.5225 -1.3381 -0.6230
 8877TIP3    H250827   0.418   4.305  11.653  0.3761  0.1791 -0.0166
 8878TIP3   OH250828   5.315   6.931  11.285 -0.0133  0.5438 -0.4929
 8878TIP3    H150829   5.232   6.907  11.244  0.2063  0.8424 -1.1267
 8878TIP3    H250830   5.332   7.020  11.254  1.3437 -0.0892 -1.6991
 8879TIP3   OH250831   2.889   4.985  11.673 -0.3394  0.0584 -0.1782
 8879TIP3    H150832   2.946   5.022  11.606  0.3908 -0.7419 -0.0125
 8879TIP3    H250833   2.945   4.923  11.721 -1.5537 -1.4271 -0.5928
 8880TIP3   OH250834   4.176   0.747  11.582  0.0497  0.1060 -0.1251
 8880TIP3    H150835   4.144   0.683  11.645 -1.2447 -1.2473 -2.0337
 8880TIP3    H250836   4.216   0.695  11.513  2.4905  1.6014  0.0435
 8881TIP3   OH250837   6.512   2.821  13.213 -0.0784 -0.0759 -0.0023
 8881TIP3    H150838   6.427   2.866  13.217 -1.2306 -2.1886  0.6935
 8881TIP3    H250839   6.572   2.880  13.258 -1.2368  1.2939 -0.1494
 8882TIP3   OH250840   4.951   1.703  11.295  0.0936 -0.4275 -0.1303
 8882TIP3    H150841   4.857   1.699  11.278 -0.3392 -0.5139  1.9352
 8882TIP3    H250842   4.986   1.759  11.226 -1.3569 -0.9749 -1.3539
 8883TIP3   OH250843   4.657   2.625  11.168  0.0397 -0.3842  0.5586
 8883TIP3    H150844   4.749   2.614  11.146 -0.5384 -1.5295 -1.5898
 8883TIP3    H250845   4.642   2.566  11.242  0.7537 -1.1701  0.0922
 8884TIP3   OH250846   2.231   4.188  10.146 -1.1354  0.1935 -0.8229
 8884TIP3    H150847   2.262   4.243  10.074  0.1447 -1.2533 -1.4481
 8884TIP3    H250848   2.142   4.218  10.163 -0.6220  2.1510 -1.3898
 8885TIP3   OH250849   7.665   7.206  12.869 -0.6461  0.6882 -0.3948
 8885TIP3    H150850   7.620   7.158  12.798 -0.8215  0.1526  0.0726
 8885TIP3    H250851   7.596   7.225  12.932 -0.2908  0.1957  0.1503
 8886TIP3   OH250852   1.687   4.771  12.564  0.5082 -0.4428  0.6186
 8886TIP3    H150853   1.768   4.720  12.561  0.4057 -0.5551 -0.6118
 8886TIP3    H250854   1.619   4.706  12.584  0.5076 -0.6425 -0.0029
 8887TIP3   OH250855   3.234   6.035  11.582  0.3035  0.2305 -0.4139
 8887TIP3    H150856   3.230   6.075  11.670  0.2859  1.1773 -0.8282
 8887TIP3    H250857   3.303   5.970  11.589  0.0384  0.0181  0.4141
 8888TIP3   OH250858   7.655   2.192  12.528  0.1166  0.0821  0.3458
 8888TIP3    H150859   7.568   2.157  12.548  0.7035 -1.0547  1.0235
 8888TIP3    H250860   7.669   2.171  12.436  0.5128 -1.6678  0.7687
 8889TIP3   OH250861   4.753   6.461  12.806  0.5970  0.0659  0.1593
 8889TIP3    H150862   4.835   6.480  12.761  0.0689  1.7120 -0.1455
 8889TIP3    H250863   4.685   6.501  12.752 -0.5610 -2.1957 -0.1673
 8890TIP3   OH250864   2.831   6.865  12.754  0.0120  0.1064  0.1111
 8890TIP3    H150865   2.812   6.801  12.685  0.3132 -0.4284  0.5079
 8890TIP3    H250866   2.926   6.857  12.767  0.0314  0.5545  0.2432
 8891TIP3   OH250867   3.717   4.943  12.649  0.0498  0.0959 -0.5994
 8891TIP3    H150868   3.666   4.894  12.714 -2.5062  1.3737 -1.5151
 8891TIP3    H250869   3.791   4.886  12.629  0.0204 -1.0678  2.1499
 8892TIP3   OH250870   4.042   5.413  10.646  0.0781  0.4399 -0.2662
 8892TIP3    H150871   4.105   5.396  10.715  1.7384  1.1987 -1.5291
 8892TIP3    H250872   4.005   5.498  10.668  0.6413  0.7058 -0.3329
 8893TIP3   OH250873   0.545   1.695  11.442  0.7697 -0.0376 -0.1056
 8893TIP3    H150874   0.553   1.751  11.365 -1.2632 -0.5960 -0.7892
 8893TIP3    H250875   0.463   1.648  11.429  1.4145 -1.7114  1.4027
 8894TIP3   OH250876   0.909   4.857  11.427  0.3425 -0.0573  0.1576
 8894TIP3    H150877   0.865   4.884  11.346 -0.3008 -1.6639 -0.0694
 8894TIP3    H250878   0.894   4.929  11.487  3.3989  2.5987 -1.9492
 8895TIP3   OH250879   3.183   6.276  10.470  0.3993 -0.3316 -0.2344
 8895TIP3    H150880   3.140   6.341  10.526 -0.4345 -0.2815 -0.9198
 8895TIP3    H250881   3.220   6.328  10.398  1.5632 -0.3819  0.2977
 8896TIP3   OH250882   6.521   0.960  11.618  0.4201  0.2900 -0.5348
 8896TIP3    H150883   6.434   0.985  11.586 -0.3076 -1.3256  0.0582
 8896TIP3    H250884   6.580   0.982  11.546 -0.4255  1.6048 -0.8789
 8897TIP3   OH250885   3.637   6.473  10.646 -0.0299 -0.8150  0.3545
 8897TIP3    H150886   3.587   6.391  10.640  1.3666 -1.6328 -0.5715
 8897TIP3    H250887   3.716   6.449  10.695  2.3576 -1.1055 -3.2588
 8898TIP3   OH250888   7.370   2.697  12.337  0.1697  0.1408  0.1257
 8898TIP3    H150889   7.385   2.606  12.362 -0.9388 -0.8782 -2.4956
 8898TIP3    H250890   7.454   2.726  12.301  0.2008 -0.2814 -0.1554
 8899TIP3   OH250891   1.563   2.103  11.786 -0.5245  0.5938 -0.4862
 8899TIP3    H150892   1.648   2.093  11.744 -0.8485 -0.3419 -0.9583
 8899TIP3    H250893   1.506   2.138  11.717 -0.4652  1.5043 -0.0907
 8900TIP3   OH250894   2.856   5.479  11.307 -0.1130 -0.8279 -0.1410
 8900TIP3    H150895   2.951   5.469  11.314 -0.0203  0.0496 -0.0208
 8900TIP3    H250896   2.829   5.503  11.396 -0.1581  1.0420 -0.6156
 8901TIP3   OH250897   3.597   0.779  12.645 -0.4124  0.0044  0.5557
 8901TIP3    H150898   3.560   0.749  12.728 -1.7030 -1.8875 -0.6218
 8901TIP3    H250899   3.542   0.853  12.619 -2.6759 -1.9228 -0.4969
 8902TIP3   OH250900   3.379   0.300  13.070  0.2866  0.0526  0.2721
 8902TIP3    H150901   3.364   0.394  13.084 -0.7126 -0.2180  1.1609
 8902TIP3    H250902   3.404   0.294  12.978 -0.9256  1.0550 -0.1540
 8903TIP3   OH250903   0.402   5.102  10.855  0.8218  0.3996  0.0710
 8903TIP3    H150904   0.448   5.024  10.888  0.3217 -0.2536 -0.7552
 8903TIP3    H250905   0.411   5.097  10.760  1.9273  2.0684  0.0264
 8904TIP3   OH250906   6.280   3.961  10.879 -0.0710 -0.0982  0.5726
 8904TIP3    H150907   6.307   3.948  10.970 -1.8671  0.6568  1.2611
 8904TIP3    H250908   6.212   4.028  10.884 -0.0894  0.0630 -1.3573
 8905TIP3   OH250909   0.810   7.293  10.903 -0.3963  0.4194  0.1435
 8905TIP3    H150910   0.737   7.263  10.956  0.1612 -1.4102 -0.0582
 8905TIP3    H250911   0.789   7.384  10.883 -2.4137  0.0587  0.4077
 8906TIP3   OH250912   4.497   2.257  11.274 -0.1764 -0.4016 -0.4534
 8906TIP3    H150913   4.436   2.253  11.200 -0.3679  1.5314 -0.4273
 8906TIP3    H250914   4.478   2.177  11.324  0.4394 -2.1294 -2.7950
 8907TIP3   OH250915   3.754   0.778  12.232  0.5555 -0.3432 -0.2910
 8907TIP3    H150916   3.664   0.809  12.242  0.9873  1.3130 -1.0609
 8907TIP3    H250917   3.748   0.702  12.175 -0.2296  0.7186 -1.6874
 8908TIP3   OH250918   2.614   4.421  12.030 -0.0422 -0.4095  0.6183
 8908TIP3    H150919   2.601   4.331  12.002  0.2780 -0.5292  0.8485
 8908TIP3    H250920   2.690   4.418  12.088 -0.6109 -0.1352  1.3835
 8909TIP3   OH250921   0.182   2.085  11.068 -0.1174 -0.1699  0.1484
 8909TIP3    H150922   0.235   2.117  11.141  0.3737 -0.2660 -0.1541
 8909TIP3    H250923   0.191   2.152  11.001 -3.1647  1.5403  1.2681
 8910TIP3   OH250924   7.142   2.299  10.839  0.1472  0.2646  0.6526
 8910TIP3    H150925   7.230   2.262  10.827 -0.3539 -0.3327 -1.6291
 8910TIP3    H250926   7.124   2.288  10.933  0.6542 -3.9470  0.4448
 8911TIP3   OH250927   6.879   4.106  11.781 -0.2356  0.0884  0.1390
 8911TIP3    H150928   6.930   4.105  11.699 -1.5444 -0.9788 -0.7145
 8911TIP3    H250929   6.818   4.179  11.770 -0.3117  0.0362  0.2152
 8912TIP3   OH250930   6.714   5.575  11.729 -0.3011  0.0153 -0.1989
 8912TIP3    H150931   6.680   5.642  11.789 -0.0714 -1.5048  1.7365
 8912TIP3    H250932   6.636   5.526  11.701 -0.4430  0.9045 -1.4407
 8913TIP3   OH250933   4.500   6.571  12.722  0.4932 -0.2033 -0.4643
 8913TIP3    H150934   4.425   6.631  12.722  0.5654 -0.1020  0.4364
 8913TIP3    H250935   4.462   6.485  12.738  0.4602 -0.3214 -1.1248
 8914TIP3   OH250936   1.074   3.366  11.738 -0.4141  0.0383  0.1739
 8914TIP3    H150937   1.168   3.361  11.755 -0.3743 -1.0431 -0.2418
 8914TIP3    H250938   1.067   3.412  11.654 -0.1622 -0.9726 -0.4176
 8915TIP3   OH250939   4.918   6.551  12.067 -0.1504 -0.6079 -0.1315
 8915TIP3    H150940   4.875   6.490  12.127  0.1948  0.0244  0.7803
 8915TIP3    H250941   4.868   6.632  12.076  0.3796 -0.2801 -0.1116
 8916TIP3   OH250942   1.440   6.960  11.103 -0.1328 -0.1927  0.2353
 8916TIP3    H150943   1.386   6.894  11.147  0.8033 -1.3409 -0.2744
 8916TIP3    H250944   1.391   7.042  11.112 -0.5309 -0.6119  2.3678
 8917TIP3   OH250945   3.641   0.186  11.173 -1.3878  0.1284 -0.2789
 8917TIP3    H150946   3.625   0.101  11.132  0.7661 -0.8196  0.6852
 8917TIP3    H250947   3.620   0.172  11.266 -1.6741  0.8729 -0.2232
 8918TIP3   OH250948   4.105   4.842  11.151 -0.3510  0.1705  0.6375
 8918TIP3    H150949   4.100   4.935  11.126 -1.5906  0.3184  1.3272
 8918TIP3    H250950   4.186   4.835  11.200  0.9424  0.3729 -1.3620
 8919TIP3   OH250951   5.525   6.880  11.902  0.0309  0.2866  0.1776
 8919TIP3    H150952   5.491   6.920  11.822 -1.3994  0.1074  0.6580
 8919TIP3    H250953   5.525   6.952  11.966 -1.7417 -0.2230  0.8114
 8920TIP3   OH250954   3.420   2.126  11.976 -0.1854  0.4925  0.1333
 8920TIP3    H150955   3.417   2.031  11.978  1.0251  0.3986 -0.9231
 8920TIP3    H250956   3.509   2.148  12.002  0.5604  1.1453 -2.6607
 8921TIP3   OH250957   2.326   6.039  10.817  0.6914 -0.0736  0.4417
 8921TIP3    H150958   2.397   5.982  10.847  0.2369 -1.5326 -1.0517
 8921TIP3    H250959   2.350   6.063  10.728 -0.6706 -0.6447 -0.1157
 8922TIP3   OH250960   1.270   3.993  11.867 -0.1094  0.2113 -0.0623
 8922TIP3    H150961   1.294   4.026  11.780 -0.5638  1.2151  0.1784
 8922TIP3    H250962   1.269   4.071  11.923 -0.1985 -0.3706  0.7607
 8923TIP3   OH250963   0.644   5.221  11.763  0.0202  0.1560 -0.0579
 8923TIP3    H150964   0.684   5.196  11.679 -0.8504 -0.6940 -0.2379
 8923TIP3    H250965   0.705   5.285  11.801  1.1306 -0.5084 -0.6853
 8924TIP3   OH250966   2.563   5.220  10.333 -0.0481  0.8142  0.1083
 8924TIP3    H150967   2.617   5.257  10.403 -2.7705  0.4375  2.6009
 8924TIP3    H250968   2.540   5.295  10.278 -1.8186  2.1410  2.5015
 8925TIP3   OH250969   5.578   2.423  10.898 -0.1785  0.7654 -0.1170
 8925TIP3    H150970   5.486   2.397  10.890  0.2663 -1.6563  1.7122
 8925TIP3    H250971   5.577   2.489  10.967 -0.4838  0.3710  0.2616
 8926TIP3   OH250972   0.436   1.260  12.786  0.8365  0.5328 -0.2854
 8926TIP3    H150973   0.517   1.236  12.742  2.1094  1.2513  1.5326
 8926TIP3    H250974   0.442   1.355  12.796 -0.7355  0.7493 -1.0011
 8927TIP3   OH250975   1.061   0.842  12.815 -0.2756 -0.1173 -0.1412
 8927TIP3    H150976   1.112   0.805  12.887 -0.0016 -0.5545 -0.5563
 8927TIP3    H250977   0.971   0.813  12.832 -0.1083 -0.7557 -0.3158
 8928TIP3   OH250978   5.242   5.714  11.725  0.6758 -0.3101  0.0649
 8928TIP3    H150979   5.273   5.783  11.666  0.5146 -0.1648  0.1499
 8928TIP3    H250980   5.210   5.760  11.802  0.6145 -0.4839  0.1453
 8929TIP3   OH250981   6.484   0.264  10.936 -0.4349  0.0132  0.1214
 8929TIP3    H150982   6.433   0.239  11.014  0.8190 -1.9212  0.3944
 8929TIP3    H250983   6.573   0.277  10.969 -0.0332 -0.1186 -0.8748
 8930TIP3   OH250984   0.294   5.720  11.130 -0.3910 -0.0633 -0.0196
 8930TIP3    H150985   0.338   5.744  11.048 -1.7911  1.1113 -0.4659
 8930TIP3    H250986   0.312   5.626  11.140  0.6367 -0.0162 -1.1359
 8931TIP3   OH250987   5.110   6.821  12.094  0.4112 -0.0311 -0.4209
 8931TIP3    H150988   5.015   6.817  12.081  0.2764  0.7828  0.2766
 8931TIP3    H250989   5.123   6.889  12.159  1.5370  0.3920 -1.0590
 8932TIP3   OH250990   2.497   5.559  12.587  0.6746  0.1667  0.6843
 8932TIP3    H150991   2.493   5.506  12.507 -0.6500  1.6191 -0.2594
 8932TIP3    H250992   2.419   5.533  12.637 -1.2113  2.5777 -0.7609
 8933TIP3   OH250993   2.911   1.008  10.670  0.4493 -0.4096 -1.1398
 8933TIP3    H150994   2.864   0.930  10.640 -0.8847 -0.9314  1.8801
 8933TIP3    H250995   2.843   1.061  10.712  2.3601 -2.0204  5.1310
 8934TIP3   OH250996   3.568   6.607  11.848  0.0049 -0.1183  0.1043
 8934TIP3    H150997   3.581   6.699  11.873  0.0052 -0.0283 -0.2200
 8934TIP3    H250998   3.532   6.612  11.760 -0.5483 -0.4176  0.3090
 8935TIP3   OH250999   5.880   3.746  10.928  0.4404  0.0932  0.3051
 8935TIP3    H151000   5.869   3.754  11.023 -1.2057 -0.2337  0.1807
 8935TIP3    H251001   5.811   3.802  10.892  0.8314 -0.0567 -0.6881
 8936TIP3   OH251002   5.210   0.714  11.896 -0.4576 -0.1307 -0.0947
 8936TIP3    H151003   5.140   0.779  11.897 -0.0931  0.2662  0.7362
 8936TIP3    H251004   5.253   0.726  11.811 -1.5469 -0.5525 -0.7184
 8937TIP3   OH251005   4.212   4.283  11.991  0.2464  0.3335 -0.0578
 8937TIP3    H151006   4.233   4.247  12.076  0.6763  1.4266  0.3195
 8937TIP3    H251007   4.191   4.375  12.008 -0.4872  0.3660 -1.0146
 8938TIP3   OH251008   6.536   6.248  10.714 -0.0090 -0.0685  0.0531
 8938TIP3    H151009   6.515   6.307  10.642  0.4645  1.2181  0.9472
 8938TIP3    H251010   6.463   6.257  10.775 -0.1024 -0.6909  0.0467
 8939TIP3   OH251011   5.468   1.321  11.617  0.7800  0.1545  0.1266
 8939TIP3    H151012   5.374   1.340  11.618  0.8588  0.5351  0.6950
 8939TIP3    H251013   5.500   1.355  11.700  0.9600 -2.4340  1.2050
 8940TIP3   OH251014   5.338   0.797  11.664 -0.2717  0.2431  0.0337
 8940TIP3    H151015   5.386   0.853  11.725 -1.8564  1.0763  0.5673
 8940TIP3    H251016   5.293   0.857  11.605  0.5179 -0.5451 -1.4171
 8941TIP3   OH251017   4.768   4.059  11.465  0.3379  0.1557  0.4736
 8941TIP3    H151018   4.696   4.010  11.425 -1.5821  1.2715  2.3251
 8941TIP3    H251019   4.761   4.038  11.559  1.5513  1.3622  0.8575
 8942TIP3   OH251020   0.592   5.345  10.806  0.9775 -0.3856  0.7186
 8942TIP3    H151021   0.538   5.267  10.815 -0.7455  0.7488  0.7215
 8942TIP3    H251022   0.641   5.349  10.888  2.7889 -2.6147 -0.1514
 8943TIP3   OH251023   0.101   1.618  12.253 -0.7713 -0.2423  0.5463
 8943TIP3    H151024   0.040   1.672  12.303  0.1884  1.7893 -0.3479
 8943TIP3    H251025   0.119   1.670  12.174  1.3140 -1.2175  0.3208
 8944TIP3   OH251026   4.805   1.947  12.224 -0.0246 -0.5257 -0.5423
 8944TIP3    H151027   4.851   2.026  12.194 -0.1013 -0.7673 -1.3374
 8944TIP3    H251028   4.770   1.970  12.310  0.4141  0.1233 -0.5311
 8945TIP3   OH251029   2.714   6.891  13.002  0.0251  0.6039 -0.0470
 8945TIP3    H151030   2.774   6.858  12.935  2.1395 -0.1107  2.0616
 8945TIP3    H251031   2.726   6.986  13.000 -0.3601  0.6401 -1.0397
 8946TIP3   OH251032   7.212   4.732  13.496  0.4331 -0.5608 -0.2267
 8946TIP3    H151033   7.173   4.691  13.573 -0.3656  3.4220  1.7788
 8946TIP3    H251034   7.300   4.756  13.523  0.4995 -0.0064 -0.8920
 8947TIP3   OH251035   2.347   1.732  12.393  0.1937 -0.4522  0.2290
 8947TIP3    H151036   2.427   1.739  12.340 -0.5649  1.8489 -0.7650
 8947TIP3    H251037   2.308   1.819  12.387 -3.0725 -1.8174 -0.4282
 8948TIP3   OH251038   2.015   2.719  11.800  0.2894  0.1281 -0.3940
 8948TIP3    H151039   2.096   2.677  11.769 -0.7594 -0.7990 -2.0470
 8948TIP3    H251040   2.026   2.726  11.894  2.4136  0.2750 -0.6118
 8949TIP3   OH251041   4.056   4.581  11.061  0.4915  0.0666 -1.0363
 8949TIP3    H151042   4.110   4.551  11.133 -0.9449 -1.4922 -0.5548
 8949TIP3    H251043   4.058   4.677  11.068  1.6109 -0.0149  0.1153
 8950TIP3   OH251044   4.380   6.040  11.579 -0.0241  0.1599 -0.7836
 8950TIP3    H151045   4.337   5.956  11.562 -0.0123 -0.3729  1.4762
 8950TIP3    H251046   4.346   6.099  11.511  0.0899 -1.6764 -2.5104
 8951TIP3   OH251047   0.481   4.890  11.599  0.3015  0.5221 -1.0778
 8951TIP3    H151048   0.423   4.842  11.658  2.2925  0.1207  0.6913
 8951TIP3    H251049   0.480   4.980  11.633 -0.3869  0.8643 -1.9600
 8952TIP3   OH251050   0.423   6.497  12.161 -0.6144  0.0981  0.4392
 8952TIP3    H151051   0.470   6.414  12.162 -0.7097 -0.0449 -1.8984
 8952TIP3    H251052   0.354   6.485  12.096 -0.0556  2.2825 -0.6767
 8953TIP3   OH251053   1.628   4.565  11.708  0.2538  0.4912  0.3200
 8953TIP3    H151054   1.674   4.483  11.692 -0.5571 -0.0071  0.4624
 8953TIP3    H251055   1.537   4.546  11.686 -0.0867  1.1122  1.1371
 8954TIP3   OH251056   5.527   1.726  11.018 -0.5308 -0.0061  0.1814
 8954TIP3    H151057   5.475   1.806  11.018 -1.4128 -0.4444 -3.1238
 8954TIP3    H251058   5.481   1.668  11.078 -2.3642  0.5382 -0.6403
 8955TIP3   OH251059   3.400   4.788  11.588  0.3431  0.1250 -0.4655
 8955TIP3    H151060   3.331   4.723  11.598  2.2446 -1.9958 -0.4842
 8955TIP3    H251061   3.373   4.861  11.644 -2.0083 -0.4768 -0.7062
 8956TIP3   OH251062   2.793   3.849  12.385  0.2154 -0.7629 -0.1135
 8956TIP3    H151063   2.867   3.909  12.399 -0.5089 -0.1009  1.0499
 8956TIP3    H251064   2.767   3.824  12.474  0.7112 -3.1016 -0.5584
 8957TIP3   OH251065   0.018   0.780  11.033  0.4086  0.3912 -0.0503
 8957TIP3    H151066   0.001   0.796  10.940 -0.4399  0.0391  0.0408
 8957TIP3    H251067   0.072   0.854  11.060  1.3372  0.0927 -1.0105
 8958TIP3   OH251068   5.650   5.575  11.150  0.5680  0.0724 -0.0969
 8958TIP3    H151069   5.637   5.644  11.085  0.4061  0.5552  0.4432
 8958TIP3    H251070   5.722   5.606  11.204  0.5571 -0.2262  0.0892
 8959TIP3   OH251071   3.877   6.477  10.790 -0.3879  0.9145  0.3249
 8959TIP3    H151072   3.905   6.568  10.785 -0.9185  1.1135  0.8542
 8959TIP3    H251073   3.954   6.429  10.821 -0.0870  1.1692 -0.0264
 8960TIP3   OH251074   5.830   3.837  11.173 -0.0771 -0.6439  0.6738
 8960TIP3    H151075   5.913   3.829  11.222 -1.0278  0.3738  2.5910
 8960TIP3    H251076   5.763   3.813  11.237 -1.4213  1.0535 -0.0135
 8961TIP3   OH251077   3.575   1.052  10.713  0.1065 -0.3347 -0.2390
 8961TIP3    H151078   3.574   0.964  10.674  0.5782  0.3754 -1.9114
 8961TIP3    H251079   3.482   1.076  10.720 -0.0564 -1.1607  0.7672
 8962TIP3   OH251080   1.973   6.070  13.061 -0.5325  0.2086 -0.2473
 8962TIP3    H151081   1.999   6.030  12.977 -0.5518 -2.0848  0.7435
 8962TIP3    H251082   2.054   6.107  13.095  0.2056 -1.5879  0.0781
 8963TIP3   OH251083   5.975   0.984  11.437 -0.2669  0.1936  0.0984
 8963TIP3    H151084   5.907   1.005  11.501 -0.9067 -0.9766 -0.1723
 8963TIP3    H251085   5.962   1.045  11.366  1.1111  2.2429  1.4774
 8964TIP3   OH251086   4.260   0.622  12.252 -0.3471  0.2117 -0.0551
 8964TIP3    H151087   4.187   0.676  12.220  0.2907  2.8002  2.5305
 8964TIP3    H251088   4.266   0.642  12.345  3.1269 -0.5711  0.0156
 8965TIP3   OH251089   6.925   1.820  10.827  0.0279 -0.0585  0.0529
 8965TIP3    H151090   6.862   1.782  10.765 -0.2148 -1.7581  1.2574
 8965TIP3    H251091   6.883   1.901  10.856 -0.5470 -0.0046 -0.8716
 8966TIP3   OH251092   2.957   7.581  11.767  0.1546 -0.1631 -0.1263
 8966TIP3    H151093   2.909   7.543  11.841  0.5255  0.4227  0.4234
 8966TIP3    H251094   3.000   7.658  11.803 -0.2009  0.5284 -1.1135
 8967TIP3   OH251095   3.213   5.731  11.321  0.0328 -0.6250  0.1034
 8967TIP3    H151096   3.212   5.663  11.388 -1.4924 -1.3254 -0.5791
 8967TIP3    H251097   3.208   5.683  11.238 -1.7871  0.3011 -0.3698
 8968TIP3   OH251098   0.580   5.597  11.326  0.3158  0.3990  0.4044
 8968TIP3    H151099   0.502   5.550  11.296  1.7983 -2.2003  0.2936
 8968TIP3    H251100   0.547   5.679  11.360 -2.3178 -0.0393 -0.8464
 8969TIP3   OH251101   4.212   6.469  12.122 -0.0566 -0.0769 -0.6545
 8969TIP3    H151102   4.123   6.433  12.118  0.3299 -1.7862  2.5241
 8969TIP3    H251103   4.226   6.509  12.036 -3.4293 -0.7962 -1.6859
 8970TIP3   OH251104   3.592   5.273  11.841 -0.1804  0.1386  0.2807
 8970TIP3    H151105   3.613   5.241  11.753  0.0755 -1.2049  0.8066
 8970TIP3    H251106   3.673   5.259  11.890 -0.1367  1.4176  0.6055
 8971TIP3   OH251107   3.159   0.876  11.324 -0.5967  0.6238  0.0775
 8971TIP3    H151108   3.248   0.852  11.301 -1.1119  0.1684 -1.5412
 8971TIP3    H251109   3.142   0.957  11.275 -0.6164  1.5075  1.4806
 8972TIP3   OH251110   6.470   3.523  11.457  0.4453  0.2202 -0.0830
 8972TIP3    H151111   6.519   3.605  11.456 -0.3013  0.6837 -1.0404
 8972TIP3    H251112   6.512   3.469  11.389 -0.1745  0.5133 -0.7115
 8973TIP3   OH251113   3.249   4.000  10.961  0.1688 -0.0702  0.2383
 8973TIP3    H151114   3.257   4.017  11.055 -1.1160  1.5877  0.0941
 8973TIP3    H251115   3.231   3.906  10.955  0.0725 -0.1666  1.6425
 8974TIP3   OH251116   6.876   7.028  11.701  0.4186 -0.4127  0.1782
 8974TIP3    H151117   6.969   7.025  11.676  0.1183 -2.0360 -0.9070
 8974TIP3    H251118   6.872   6.977  11.782  0.6826  0.9733  1.0956
 8975TIP3   OH251119   2.501   0.985  11.456  0.6104 -0.1963 -0.0433
 8975TIP3    H151120   2.527   0.894  11.444 -1.6962 -0.7829 -1.3609
 8975TIP3    H251121   2.453   0.985  11.539  2.0812  0.2380  0.8437
 8976TIP3   OH251122   2.346   3.036  11.745 -0.1435 -0.4791 -0.2100
 8976TIP3    H151123   2.432   3.062  11.711  0.1332  1.9128  2.0185
 8976TIP3    H251124   2.307   3.117  11.777 -1.7285 -2.0018  2.0523
 8977TIP3   OH251125   3.020   7.384  12.090 -0.3732  0.4739  0.5369
 8977TIP3    H151126   2.967   7.356  12.165  0.6043 -0.2089  1.0091
 8977TIP3    H251127   3.003   7.478  12.082 -0.4760  0.5661  1.6385
 8978TIP3   OH251128   0.171   1.208  10.422  0.3370  0.0229  0.0983
 8978TIP3    H151129   0.178   1.119  10.390 -0.8057  0.1159 -0.4758
 8978TIP3    H251130   0.207   1.262  10.352 -0.2951  0.0984 -0.1724
 8979TIP3   OH251131   6.325   6.313  10.893 -0.1394  0.1863  0.3467
 8979TIP3    H151132   6.341   6.265  10.974  0.7367 -0.4622 -0.1935
 8979TIP3    H251133   6.235   6.345  10.901 -0.3746 -0.6544  1.1710
 8980TIP3   OH251134   3.775   5.789  12.819 -0.1926 -0.0300 -0.0904
 8980TIP3    H151135   3.826   5.744  12.751 -0.1090 -0.5347  0.3042
 8980TIP3    H251136   3.825   5.868  12.839  0.3420 -0.4348  0.1702
 8981TIP3   OH251137   2.502   1.630  11.594 -0.3491  1.0148  0.1919
 8981TIP3    H151138   2.441   1.572  11.550  1.1559 -0.1198 -0.4800
 8981TIP3    H251139   2.500   1.711  11.542 -0.3681  0.5511 -0.5354
 8982TIP3   OH251140   2.808   1.549  12.368 -0.1177  0.3934  0.6617
 8982TIP3    H151141   2.810   1.641  12.341 -0.3856  1.2088  3.1360
 8982TIP3    H251142   2.898   1.519  12.359 -0.2844  0.4046 -1.5457
 8983TIP3   OH251143   1.829   6.495  12.183 -0.3567  0.9686  0.4797
 8983TIP3    H151144   1.775   6.424  12.218 -1.3416  1.7748  0.6516
 8983TIP3    H251145   1.898   6.508  12.248 -0.6035  0.6623  0.8034
 8984TIP3   OH251146   3.285   3.783  12.708  0.2294  0.1045  0.2895
 8984TIP3    H151147   3.266   3.788  12.802  1.4365 -0.5641  0.5899
 8984TIP3    H251148   3.281   3.874  12.678 -1.0448  0.2321  0.7966
 8985TIP3   OH251149   3.434   2.042  11.509  0.2723  0.1439 -0.2500
 8985TIP3    H151150   3.373   2.095  11.458  0.1702  0.0315 -0.2454
 8985TIP3    H251151   3.399   1.953  11.503  0.1757  0.1538  0.1433
 8986TIP3   OH251152   5.145   5.940  11.242 -0.3864 -0.8002 -0.2568
 8986TIP3    H151153   5.064   5.979  11.211  0.7783  0.5454 -1.7811
 8986TIP3    H251154   5.210   6.010  11.234  1.0804 -2.0533  0.1872
 8987TIP3   OH251155   3.474   1.572  13.060 -0.5069  0.4440  0.0739
 8987TIP3    H151156   3.395   1.558  13.009 -0.7541 -0.4748  0.7028
 8987TIP3    H251157   3.464   1.517  13.138  0.9154  0.0013 -0.0210
 8988TIP3   OH251158   4.266   2.231  12.259  0.5987  0.3374  0.2237
 8988TIP3    H151159   4.238   2.188  12.340 -0.4658 -0.4096 -0.5182
 8988TIP3    H251160   4.286   2.321  12.286  3.5903 -0.7015  1.9537
 8989TIP3   OH251161   2.623   2.387  11.794  0.2178  0.2839 -0.1742
 8989TIP3    H151162   2.604   2.447  11.722 -0.7515  0.0330 -0.1339
 8989TIP3    H251163   2.690   2.328  11.758  0.0230  0.3990 -0.7419
 8990TIP3   OH251164   6.699   1.905  12.118  0.1579 -0.3732  0.3836
 8990TIP3    H151165   6.773   1.884  12.061  0.6585  1.8911  0.0837
 8990TIP3    H251166   6.628   1.927  12.058 -0.2551 -0.9234  0.6640
 8991TIP3   OH251167   1.660   4.306  11.809  0.1196  0.7356  0.2970
 8991TIP3    H151168   1.679   4.372  11.875 -0.5792  0.3719  0.8869
 8991TIP3    H251169   1.632   4.229  11.860  0.9518 -0.0327 -0.3617
 8992TIP3   OH251170   4.815   0.189  13.303  0.2079 -0.2149 -0.6216
 8992TIP3    H151171   4.907   0.162  13.308  0.7697  1.8088  1.2364
 8992TIP3    H251172   4.818   0.277  13.266 -1.0578 -0.3164 -1.0075
 8993TIP3   OH251173   5.312   5.302  10.584 -0.1453  0.4059 -0.0171
 8993TIP3    H151174   5.361   5.320  10.665 -0.1028 -2.2451  0.6385
 8993TIP3    H251175   5.226   5.272  10.615 -0.9571  1.5554 -1.0705
 8994TIP3   OH251176   5.778   4.975  11.716 -0.4658  0.1419 -0.4015
 8994TIP3    H151177   5.826   4.909  11.667  2.6949  1.0945  1.0915
 8994TIP3    H251178   5.777   5.052  11.658 -2.8764 -0.6762 -1.5648
 8995TIP3   OH251179   0.755   4.461  11.278  0.3129 -0.5054  0.0384
 8995TIP3    H151180   0.724   4.491  11.363 -0.9737 -1.5776 -0.0195
 8995TIP3    H251181   0.775   4.541  11.229  0.7322  0.1231  1.2119
 8996TIP3   OH251182   5.037   1.160  10.662 -0.4259  0.2624 -0.0791
 8996TIP3    H151183   4.999   1.138  10.577  0.9896  0.9131 -0.9185
 8996TIP3    H251184   5.010   1.088  10.719 -0.6702 -0.6505 -1.2950
 8997TIP3   OH251185   1.453   6.846  10.597  0.1778 -0.0994  0.5545
 8997TIP3    H151186   1.485   6.755  10.592 -0.7971 -0.5499  1.9717
 8997TIP3    H251187   1.504   6.885  10.668  0.8399  0.5948 -0.2773
 8998TIP3   OH251188   5.628   3.847  10.801  0.0183 -0.1750  0.1741
 8998TIP3    H151189   5.561   3.854  10.868 -0.7554  0.4359 -0.6401
 8998TIP3    H251190   5.596   3.780  10.741  0.1928  0.0256 -0.1496
 8999TIP3   OH251191   4.519   2.549  11.834  0.0994  0.2875  0.2342
 8999TIP3    H151192   4.497   2.627  11.784  1.5770 -0.4426 -1.6470
 8999TIP3    H251193   4.491   2.476  11.779  1.8193 -0.5459  0.4171
 9000TIP3   OH251194   1.800   6.420  12.456  0.2336  0.1565 -0.0431
 9000TIP3    H151195   1.727   6.392  12.511 -0.2737 -0.1363 -0.8576
 9000TIP3    H251196   1.773   6.505  12.420  0.4810  0.2557  0.0005
 9001TIP3   OH251197   5.729   5.202  11.234 -0.6735  0.9274  0.3373
 9001TIP3    H151198   5.814   5.170  11.202  0.3194  2.2641  1.4953
 9001TIP3    H251199   5.706   5.273  11.175 -0.5204  1.1828  0.5856
 9002TIP3   OH251200   2.332   3.634  12.342  0.0245 -0.4149 -0.1569
 9002TIP3    H151201   2.328   3.697  12.414 -0.3893  1.1439 -1.4944
 9002TIP3    H251202   2.424   3.632  12.316 -0.2857  1.5177 -1.6450
 9003TIP3   OH251203   7.039   4.418  11.823 -0.1051  0.0423 -0.1546
 9003TIP3    H151204   7.123   4.372  11.828 -0.2952 -0.2320  0.8023
 9003TIP3    H251205   7.017   4.417  11.730 -0.0316 -1.7005 -0.1960
 9004TIP3   OH251206   3.473   3.100  12.834 -0.4890 -0.1718 -0.3356
 9004TIP3    H151207   3.510   3.180  12.872 -1.4692  0.8933 -1.5301
 9004TIP3    H251208   3.548   3.053  12.800  0.2910 -0.5859  1.7963
 9005TIP3   OH251209   0.339   1.308  11.922 -0.0664  1.0333 -0.5247
 9005TIP3    H151210   0.268   1.371  11.931 -0.2881  0.8412 -0.8994
 9005TIP3    H251211   0.418   1.358  11.940  0.0310  2.0984 -3.4899
 9006TIP3   OH251212   5.106   4.603  11.898 -0.7116 -0.3004  0.0485
 9006TIP3    H151213   5.120   4.641  11.811 -1.3752  0.5583  0.2992
 9006TIP3    H251214   5.152   4.519  11.895  1.6110  0.9118 -0.2228
 9007TIP3   OH251215   0.980   6.209  13.564 -0.1024  0.0899 -0.0460
 9007TIP3    H151216   1.071   6.182  13.568 -0.4575 -1.4104 -1.2454
 9007TIP3    H251217   0.931   6.132  13.592 -0.9994  1.7250  3.5947
 9008TIP3   OH251218   4.535   7.461  11.084 -0.1905  0.2061  0.1298
 9008TIP3    H151219   4.543   7.503  10.998 -1.1954 -0.8208 -0.4883
 9008TIP3    H251220   4.527   7.534  11.145 -1.3221  0.9499 -0.8584
 9009TIP3   OH251221   4.003   5.425  11.923 -0.3966 -0.1728  0.2766
 9009TIP3    H151222   4.079   5.469  11.962 -0.3143  0.5003 -0.6173
 9009TIP3    H251223   3.946   5.408  11.998 -0.4335  1.4855  0.6779
 9010TIP3   OH251224   2.000   4.194  11.673 -0.0322  0.0424 -0.0027
 9010TIP3    H151225   2.003   4.098  11.672 -1.5339 -0.0767  1.7595
 9010TIP3    H251226   2.043   4.219  11.754 -0.6943  0.7789  0.1302
 9011TIP3   OH251227   4.593   0.633  11.182 -0.0896  0.2346  0.2688
 9011TIP3    H151228   4.559   0.544  11.176 -2.0282  0.9066  0.4847
 9011TIP3    H251229   4.681   0.628  11.144 -0.8461 -1.3997 -1.4423
 9012TIP3   OH251230   6.903   5.310  11.101 -0.2125  0.4274 -0.3876
 9012TIP3    H151231   6.961   5.253  11.152 -0.9980 -0.8336 -0.8909
 9012TIP3    H251232   6.931   5.299  11.010 -0.0674  1.2186 -0.4536
 9013TIP3   OH251233   1.357   6.924  12.083 -0.1450 -0.0862 -0.2030
 9013TIP3    H151234   1.286   6.940  12.145 -0.5648  0.1473 -0.7415
 9013TIP3    H251235   1.415   6.863  12.129 -1.1425 -0.9766 -0.0803
 9014TIP3   OH251236   4.815   5.962  12.336 -0.3015  0.4493 -0.5036
 9014TIP3    H151237   4.739   6.019  12.326  0.3633  1.4760  0.1021
 9014TIP3    H251238   4.884   6.004  12.285 -0.2991 -0.8402 -1.6312
 9015TIP3   OH251239   2.185   5.952  12.243 -0.5291 -0.5117 -0.1778
 9015TIP3    H151240   2.138   5.870  12.255  1.3278 -1.6819 -0.5953
 9015TIP3    H251241   2.238   5.962  12.322  0.6809 -0.7282 -0.9299
 9016TIP3   OH251242   4.500   0.564  11.955 -0.0440 -0.8673  0.3998
 9016TIP3    H151243   4.408   0.546  11.978 -0.1824  0.3301  0.8790
 9016TIP3    H251244   4.531   0.622  12.024  0.7533 -0.3938 -0.3301
 9017TIP3   OH251245   0.016   2.770  12.998  0.5624 -0.2265  0.2855
 9017TIP3    H151246  -0.002   2.678  12.979 -0.7381 -0.3031  1.6578
 9017TIP3    H251247   0.085   2.767  13.064  0.3533 -0.2342  0.5048
 9018TIP3   OH251248   6.609   6.005  12.251 -0.2819  0.3694 -0.2236
 9018TIP3    H151249   6.629   6.098  12.265 -0.2454  0.3725 -0.2951
 9018TIP3    H251250   6.558   6.004  12.170 -1.3003  0.4505  0.3984
 9019TIP3   OH251251   6.167   0.231  11.216 -0.2445  0.3851 -0.2712
 9019TIP3    H151252   6.073   0.229  11.233 -0.3733  0.1673 -0.9842
 9019TIP3    H251253   6.207   0.227  11.303 -0.8161 -3.3225 -0.0252
 9020TIP3   OH251254   2.179   2.822  11.001 -0.1070 -0.0713  0.3068
 9020TIP3    H151255   2.270   2.794  11.003 -0.3212 -0.7831  2.0434
 9020TIP3    H251256   2.135   2.765  11.064 -1.4227  1.3176  0.7259
 9021TIP3   OH251257   0.928   7.617  13.450  0.1849  0.4886  0.4976
 9021TIP3    H151258   0.873   7.542  13.427  0.1138  0.5814  0.3608
 9021TIP3    H251259   1.010   7.578  13.482  0.8258  0.3436 -1.2155
 9022TIP3   OH251260   2.219   3.513  11.466 -0.2687 -0.5609  0.1391
 9022TIP3    H151261   2.150   3.508  11.532  0.5178  0.4255  1.0761
 9022TIP3    H251262   2.204   3.436  11.410 -2.6700  0.1255 -0.2794
 9023TIP3   OH251263   2.131   2.305  12.519  0.1195 -0.1120  0.5514
 9023TIP3    H151264   2.224   2.320  12.534 -0.2873  1.2419  2.0496
 9023TIP3    H251265   2.105   2.374  12.458  0.1135 -0.5297  0.0825
 9024TIP3   OH251266   1.529   6.484  13.415 -0.2596 -0.0866 -0.2446
 9024TIP3    H151267   1.460   6.503  13.352  0.2766  0.3554 -0.7127
 9024TIP3    H251268   1.561   6.397  13.392  0.1363  0.1965 -0.7744
 9025TIP3   OH251269   5.361   7.224  12.373 -0.3295  0.3047  0.2247
 9025TIP3    H151270   5.418   7.254  12.443 -0.1370 -1.4721  0.8964
 9025TIP3    H251271   5.345   7.301  12.319  1.3637  1.2009  0.9492
 9026TIP3   OH251272   3.674   5.282  10.988  0.0633  0.4067 -0.0336
 9026TIP3    H151273   3.703   5.194  11.013  1.3247  0.7436 -0.2143
 9026TIP3    H251274   3.628   5.315  11.065 -0.3208 -0.3602  0.0773
 9027TIP3   OH251275   4.899   4.304  12.716 -0.0832  0.2186  0.7007
 9027TIP3    H151276   4.854   4.290  12.633  2.4064 -0.4039 -0.6276
 9027TIP3    H251277   4.844   4.260  12.781 -2.4620  1.3425 -0.4245
 9028TIP3   OH251278   1.266   0.321  11.047  0.1047 -0.2158  0.1566
 9028TIP3    H151279   1.292   0.264  11.120 -0.0026  2.2367  2.2487
 9028TIP3    H251280   1.348   0.363  11.020  0.0153 -0.5372 -0.6121
 9029TIP3   OH251281   2.725   1.237  11.595  0.5958  0.2182  0.2025
 9029TIP3    H151282   2.722   1.206  11.505  1.7844  0.6958 -0.0123
 9029TIP3    H251283   2.634   1.258  11.616  0.0685 -1.3522 -0.3529
 9030TIP3   OH251284   6.186   6.506  12.021 -0.0537  0.0631  0.4358
 9030TIP3    H151285   6.153   6.476  11.936 -1.5644  0.1049  0.9785
 9030TIP3    H251286   6.116   6.485  12.083  0.6130  0.9127  1.5160
 9031TIP3   OH251287   3.107   2.612  12.372  0.6639  0.1250  0.5327
 9031TIP3    H151288   3.051   2.686  12.349 -0.5300 -0.6616  0.8702
 9031TIP3    H251289   3.061   2.567  12.442  1.3119 -1.0322  0.2381
 9032TIP3   OH251290   4.782   3.831  10.821 -0.1261  0.3073  0.3234
 9032TIP3    H151291   4.746   3.911  10.860  1.1125  2.8470 -3.2500
 9032TIP3    H251292   4.712   3.767  10.829 -1.8366  2.2300  1.8534
 9033TIP3   OH251293   5.499   5.663  11.849 -0.1972 -0.6378  0.1363
 9033TIP3    H151294   5.528   5.599  11.784 -0.7247  1.4301 -2.2482
 9033TIP3    H251295   5.416   5.696  11.816  0.0905  1.3455  1.2592
 9034TIP3   OH251296   5.609   5.365  13.224  0.5355  0.2049 -0.5284
 9034TIP3    H151297   5.547   5.339  13.156 -0.5099  1.9352 -0.2745
 9034TIP3    H251298   5.571   5.442  13.265  1.1943 -0.6636  1.9482
 9035TIP3   OH251299   7.678   6.225  10.351 -0.5917  0.0797  0.5332
 9035TIP3    H151300   7.730   6.181  10.418 -1.5762 -0.6780  0.8177
 9035TIP3    H251301   7.742   6.277  10.301  0.6944 -2.0373 -0.1309
 9036TIP3   OH251302   7.450   4.480  11.265 -0.0413 -0.2782  0.7398
 9036TIP3    H151303   7.436   4.556  11.209 -1.6497 -0.4381  0.8875
 9036TIP3    H251304   7.500   4.419  11.211 -0.0943  0.2494  0.0866
 9037TIP3   OH251305   4.101   3.444  13.093  0.6935 -0.2356 -0.1425
 9037TIP3    H151306   4.189   3.415  13.114  0.2712 -0.3299  1.7032
 9037TIP3    H251307   4.111   3.535  13.063  1.2843  0.4555  1.9521
 9038TIP3   OH251308   1.876   1.598  11.598  0.9460 -0.1992 -0.3842
 9038TIP3    H151309   1.902   1.591  11.690  1.4242  0.0641 -0.4958
 9038TIP3    H251310   1.820   1.675  11.594 -1.8548 -2.0753  0.2891
 9039TIP3   OH251311   3.599   0.588  12.459  0.0681  0.0907 -0.2729
 9039TIP3    H151312   3.614   0.650  12.530  0.7533  2.2121 -2.1563
 9039TIP3    H251313   3.537   0.631  12.401  0.2520 -1.1667 -1.4661
 9040TIP3   OH251314   1.149   1.407  11.397 -0.0890  0.5096  0.1408
 9040TIP3    H151315   1.102   1.463  11.459 -0.6749  1.0082 -0.7289
 9040TIP3    H251316   1.240   1.411  11.426 -0.5450 -0.4064  1.8061
 9041TIP3   OH251317   6.877   1.242  11.511  0.4950  0.6129 -0.1625
 9041TIP3    H151318   6.880   1.147  11.518  0.5466  0.5616 -0.8286
 9041TIP3    H251319   6.966   1.267  11.488  0.7950  0.9435  1.2465
 9042TIP3   OH251320   2.699   7.314  10.918  0.3950 -0.4830  0.3108
 9042TIP3    H151321   2.677   7.265  10.997 -1.3036 -1.1289 -0.5010
 9042TIP3    H251322   2.615   7.350  10.889  0.9582 -0.3525 -1.2431
 9043TIP3   OH251323   2.236   3.144  11.002  0.3649  0.6207 -0.0784
 9043TIP3    H151324   2.277   3.059  11.016  1.2840  0.9148 -0.9014
 9043TIP3    H251325   2.305   3.198  10.964  0.0377  1.9774  1.1650
 9044TIP3   OH251326   4.011   7.490  10.753  0.4947 -0.2087 -0.4296
 9044TIP3    H151327   3.970   7.442  10.681  0.2929  0.5306 -0.8156
 9044TIP3    H251328   4.062   7.424  10.800  1.0228 -0.5974 -1.5325
 9045TIP3   OH251329   7.628   4.033  11.408  0.5739  0.4648 -0.2646
 9045TIP3    H151330   7.537   4.056  11.426 -0.5843 -2.5920 -1.5012
 9045TIP3    H251331   7.655   4.093  11.339 -1.1786  0.2748 -1.1859
 9046TIP3   OH251332   6.105   6.018  12.810  0.4289 -0.2672  0.9149
 9046TIP3    H151333   6.187   5.999  12.856 -1.0075  0.3339  3.9472
 9046TIP3    H251334   6.037   6.001  12.874 -1.7094  1.7966 -0.6418
 9047TIP3   OH251335   3.436   5.636  13.685 -0.7016  0.2899 -0.1951
 9047TIP3    H151336   3.422   5.543  13.667 -1.2753  0.4925 -0.8341
 9047TIP3    H251337   3.359   5.679  13.648 -2.1481  0.7376  3.0053
 9048TIP3   OH251338   4.267   5.192  12.042  0.2544 -0.0056  0.1362
 9048TIP3    H151339   4.301   5.271  12.084  0.7182  0.8644 -1.7547
 9048TIP3    H251340   4.233   5.223  11.958 -2.7317 -1.2793  0.7284
 9049TIP3   OH251341   7.418   3.677  13.644 -0.3392  0.1814 -0.0926
 9049TIP3    H151342   7.396   3.585  13.626  1.4508 -0.4361  0.5960
 9049TIP3    H251343   7.497   3.672  13.698 -0.7889  2.1241  0.8452
 9050TIP3   OH251344   6.011   6.267  12.459 -0.0719  0.9245 -0.6709
 9050TIP3    H151345   5.964   6.350  12.460 -0.4328  0.7596 -1.9127
 9050TIP3    H251346   6.096   6.288  12.419 -0.4583  0.5628 -1.6989
 9051TIP3   OH251347   7.643   5.959  13.523  0.0561  0.1653 -0.3401
 9051TIP3    H151348   7.697   6.028  13.485  2.4268  0.0234  2.4347
 9051TIP3    H251349   7.553   5.989  13.511  0.9516  3.6417  0.4959
 9052TIP3   OH251350   1.520   4.141  11.132  0.4902  0.1638  0.4086
 9052TIP3    H151351   1.508   4.235  11.143 -1.3625  0.0302 -0.1827
 9052TIP3    H251352   1.505   4.104  11.219 -1.6981  0.2013  0.1037
 9053TIP3   OH251353   5.921   0.475  11.704  0.0181  0.1873  0.0680
 9053TIP3    H151354   5.870   0.556  11.708 -1.8133 -0.7787 -1.7542
 9053TIP3    H251355   5.939   0.463  11.610  0.3238 -1.4404  0.3059
 9054TIP3   OH251356   7.155   3.321  12.100 -0.3496 -0.6558 -0.1423
 9054TIP3    H151357   7.215   3.329  12.026 -1.3323  0.6957 -0.8541
 9054TIP3    H251358   7.130   3.228  12.101  1.8586 -1.3095  0.3309
 9055TIP3   OH251359   5.479   3.638  11.784 -0.1330 -0.4308  0.2529
 9055TIP3    H151360   5.545   3.595  11.730 -0.5362 -0.8116  0.0523
 9055TIP3    H251361   5.448   3.570  11.843 -1.0237 -0.5176 -0.3001
 9056TIP3   OH251362   7.126   4.136  11.010 -0.1399  0.1120  0.0137
 9056TIP3    H151363   7.138   4.076  10.937  1.1575 -2.4585  2.1694
 9056TIP3    H251364   7.044   4.108  11.051  0.9634 -0.9203  1.6026
 9057TIP3   OH251365   2.854   6.645  10.612 -0.1247  0.4817 -0.3434
 9057TIP3    H151366   2.769   6.632  10.569  0.4203  0.4771 -1.4523
 9057TIP3    H251367   2.843   6.726  10.662 -0.8289  0.4011 -0.3558
 9058TIP3   OH251368   4.398   0.915  10.753 -0.8006 -0.4759 -0.8300
 9058TIP3    H151369   4.387   0.828  10.791 -0.7319 -0.0864  0.1224
 9058TIP3    H251370   4.308   0.948  10.744 -0.7613  0.0495  0.5225
 9059TIP3   OH251371   2.260   1.865  10.325 -0.2488  0.0480  0.1876
 9059TIP3    H151372   2.250   1.770  10.320  1.2267 -0.1402  0.4516
 9059TIP3    H251373   2.197   1.892  10.392 -0.7668 -0.7203  0.0307
 9060TIP3   OH251374   7.050   5.875  10.972 -0.1618 -0.6802  0.7936
 9060TIP3    H151375   7.012   5.908  10.891 -0.5009  0.4056  1.3643
 9060TIP3    H251376   7.105   5.802  10.945 -0.2661 -0.3395 -0.4098
 9061TIP3   OH251377   0.811   0.690  12.832  0.7216  0.0412  0.0637
 9061TIP3    H151378   0.808   0.708  12.926  0.3244  0.5126 -0.0382
 9061TIP3    H251379   0.843   0.600  12.826  1.2027  0.1715  0.6298
 9062TIP3   OH251380   4.618   6.040  12.627  0.6492 -0.3449  0.1409
 9062TIP3    H151381   4.567   6.090  12.564 -1.4836 -0.3292  1.7716
 9062TIP3    H251382   4.663   6.105  12.680 -1.5549 -0.0791  1.7989
 9063TIP3   OH251383   2.437   7.403  10.888 -0.5770 -0.9001 -0.2687
 9063TIP3    H151384   2.369   7.364  10.942  2.0552 -1.6869  2.8100
 9063TIP3    H251385   2.440   7.495  10.915 -0.3359 -0.9020 -0.2806
 9064TIP3   OH251386   7.514   0.309  10.738 -0.4127 -0.5154  0.3324
 9064TIP3    H151387   7.604   0.278  10.750 -0.3412 -1.7993 -2.8042
 9064TIP3    H251388   7.507   0.383  10.799  2.2778 -1.2247  1.6780
 9065TIP3   OH251389   0.265   0.966  11.025 -0.7664  0.7965 -0.1845
 9065TIP3    H151390   0.311   1.023  11.087  0.7875 -0.0605 -0.4935
 9065TIP3    H251391   0.334   0.913  10.985 -2.1243 -1.3160  0.1037
 9066TIP3   OH251392   4.898   3.615  12.424 -0.1505  0.0099 -0.2025
 9066TIP3    H151393   4.837   3.685  12.448 -1.4029 -0.8687 -0.7335
 9066TIP3    H251394   4.960   3.611  12.497 -1.4899  0.0695  0.9781
 9067TIP3   OH251395   6.162   2.767  10.889  0.4222  0.0011 -0.2373
 9067TIP3    H151396   6.076   2.738  10.858  0.1219  0.4308  0.1842
 9067TIP3    H251397   6.143   2.842  10.945  1.0514 -0.0805  0.0878
 9068TIP3   OH251398   6.749   4.621  11.359  0.2702 -0.4022 -0.3183
 9068TIP3    H151399   6.703   4.694  11.400  0.6787  0.7419 -1.8086
 9068TIP3    H251400   6.839   4.627  11.392  0.1699 -0.5752 -0.0116
 9069TIP3   OH251401   5.340   5.557  11.455 -0.0972  0.8187 -0.2725
 9069TIP3    H151402   5.325   5.573  11.361  0.9745  0.5355 -0.5134
 9069TIP3    H251403   5.338   5.644  11.495 -0.0659  0.9952 -0.6487
 9070TIP3   OH251404   5.691   5.732  11.439 -0.3558  0.2331 -0.4463
 9070TIP3    H151405   5.784   5.719  11.422 -0.6368 -0.7321 -1.3476
 9070TIP3    H251406   5.688   5.802  11.504  0.9882  0.3877 -0.5249
 9071TIP3   OH251407   1.373   2.843  12.891 -0.1085 -0.2458  0.0343
 9071TIP3    H151408   1.297   2.881  12.935  1.5077 -0.9401  3.8310
 9071TIP3    H251409   1.368   2.749  12.909  1.9038 -0.2309  0.9944
 9072TIP3   OH251410   3.653   3.889  12.144 -0.0982  0.3279  0.0606
 9072TIP3    H151411   3.582   3.825  12.149  1.0096 -0.8719  2.3739
 9072TIP3    H251412   3.664   3.907  12.051 -1.3571 -1.8297 -0.5609
 9073TIP3   OH251413   5.073   4.934  12.199 -0.0022 -0.1985 -0.2431
 9073TIP3    H151414   5.165   4.933  12.176  0.1158  1.9180 -0.0809
 9073TIP3    H251415   5.058   5.022  12.234 -1.7372 -0.9931  1.1760
 9074TIP3   OH251416   7.490   5.812  10.900 -0.0315  0.1792 -0.1341
 9074TIP3    H151417   7.483   5.905  10.881  0.3096  0.1856 -0.2337
 9074TIP3    H251418   7.556   5.806  10.968 -0.3345  0.0418  0.1538
 9075TIP3   OH251419   1.627   1.847  11.064  0.2161 -0.0200 -0.2051
 9075TIP3    H151420   1.665   1.831  11.151  0.6362 -2.2443 -0.7339
 9075TIP3    H251421   1.691   1.902  11.020  0.1947  0.7909  0.7325
 9076TIP3   OH251422   7.326   1.098  12.024  0.1320 -0.2296  0.2052
 9076TIP3    H151423   7.303   1.043  11.949  1.6509 -0.1716 -0.3284
 9076TIP3    H251424   7.246   1.146  12.044 -0.3003 -0.2393 -1.3895
 9077TIP3   OH251425   7.113   3.021  12.152  0.0380 -0.2832 -0.0618
 9077TIP3    H151426   7.106   2.938  12.105 -0.6442  0.4369 -1.2636
 9077TIP3    H251427   7.163   2.999  12.231 -0.8641 -2.0072  0.0818
 9078TIP3   OH251428   3.331   3.212  11.525  0.0012 -0.5120  0.1438
 9078TIP3    H151429   3.375   3.192  11.442  0.8531 -2.4264  0.9997
 9078TIP3    H251430   3.288   3.296  11.510  2.0702  0.3292 -1.4825
 9079TIP3   OH251431   0.689   4.963  12.452  0.4596 -0.5582 -0.4801
 9079TIP3    H151432   0.727   4.875  12.455 -1.2765 -1.3303  0.2571
 9079TIP3    H251433   0.738   5.013  12.516  0.8860 -1.2441 -0.2587
 9080TIP3   OH251434   0.228   0.600  12.448  0.2182 -0.2377 -0.2120
 9080TIP3    H151435   0.157   0.663  12.453 -1.1110 -1.5637 -1.4821
 9080TIP3    H251436   0.190   0.518  12.480  0.9755 -1.1118 -1.4475
 9081TIP3   OH251437   1.041   6.306  12.352 -0.1915 -0.3716  0.2087
 9081TIP3    H151438   1.010   6.257  12.276  0.3577 -0.0662 -0.2214
 9081TIP3    H251439   0.961   6.327  12.401 -0.6138 -0.1213 -0.5605
 9082TIP3   OH251440   2.677   2.794  11.451 -0.3578 -0.2587  0.1562
 9082TIP3    H151441   2.758   2.826  11.492 -2.3941  1.9076  2.8177
 9082TIP3    H251442   2.706   2.760  11.366  3.4068 -0.1798  1.2166
 9083TIP3   OH251443   4.259   6.599  10.878  0.0192 -0.7897 -0.1032
 9083TIP3    H151444   4.292   6.647  10.955  0.0251  1.0520 -1.1929
 9083TIP3    H251445   4.205   6.529  10.915  1.8539 -1.3880  1.6125
 9084TIP3   OH251446   1.330   1.721  11.156 -0.2150  0.2378 -0.0608
 9084TIP3    H151447   1.392   1.684  11.217 -0.3960 -0.6534 -0.3954
 9084TIP3    H251448   1.330   1.815  11.174  0.4738  0.1111  0.6102
 9085TIP3   OH251449   0.455   2.355  11.616 -0.5436 -0.2706 -0.3635
 9085TIP3    H151450   0.452   2.441  11.573 -1.4249 -1.3222 -2.6055
 9085TIP3    H251451   0.405   2.298  11.557  0.9927 -2.5881  0.4629
 9086TIP3   OH251452   0.994   7.173  13.039  0.4316  0.8229 -0.1470
 9086TIP3    H151453   1.089   7.184  13.034  0.4176  1.0747  0.1609
 9086TIP3    H251454   0.958   7.248  12.991  0.4125 -0.4399 -2.2491
 9087TIP3   OH251455   3.175   3.109  10.519 -0.5276 -0.0806 -0.3309
 9087TIP3    H151456   3.230   3.031  10.522 -0.6700 -0.2200 -1.1308
 9087TIP3    H251457   3.109   3.094  10.587 -1.9047 -1.7038 -1.9256
 9088TIP3   OH251458   2.150   1.034  10.743  0.3062  0.3641  0.1797
 9088TIP3    H151459   2.182   1.008  10.829 -1.9711 -0.7395  0.7678
 9088TIP3    H251460   2.081   1.098  10.762 -0.1576  0.1759 -0.8270
 9089TIP3   OH251461   5.801   5.669  10.597 -0.4969  0.1305 -0.0373
 9089TIP3    H151462   5.792   5.748  10.649 -2.5312 -1.3470  2.0650
 9089TIP3    H251463   5.741   5.680  10.524 -0.3695  0.7209 -0.0561
 9090TIP3   OH251464   4.993   3.155  12.430  0.0039 -0.3776  0.1490
 9090TIP3    H151465   4.969   3.063  12.441  0.4950 -0.4588  0.5455
 9090TIP3    H251466   5.009   3.187  12.519  1.3019 -0.3049 -0.0912
 9091TIP3   OH251467   2.507   6.113  11.456  0.4067  0.1347 -0.4529
 9091TIP3    H151468   2.485   6.021  11.448 -0.3164  0.3582 -1.2280
 9091TIP3    H251469   2.451   6.157  11.392 -0.4051  1.2995  0.9921
 9092TIP3   OH251470   4.680   3.059  11.638  0.7687 -0.0226  0.4178
 9092TIP3    H151471   4.734   3.123  11.590  0.8574 -0.8874 -0.6872
 9092TIP3    H251472   4.601   3.050  11.585  0.6954 -0.7200  0.6359
 9093TIP3   OH251473   1.539   6.465  12.299  0.6324  0.0748  0.0786
 9093TIP3    H151474   1.565   6.413  12.224  1.1365 -0.4162  0.5839
 9093TIP3    H251475   1.496   6.403  12.358  2.0866 -0.0084  1.1182
 9094TIP3   OH251476   2.608   3.876  10.301 -0.2315 -0.1358 -0.0036
 9094TIP3    H151477   2.610   3.783  10.322  1.0135  0.4305  2.9597
 9094TIP3    H251478   2.522   3.890  10.262 -1.3201 -2.1794  1.4635
 9095TIP3   OH251479   3.974   0.171  10.829 -0.0072  0.5742 -0.3478
 9095TIP3    H151480   4.055   0.184  10.780  0.5473 -0.3784  0.2955
 9095TIP3    H251481   3.936   0.259  10.835  1.6845  1.2965  0.5459
 9096TIP3   OH251482   1.490   2.332  12.418  0.0011  0.0125  0.2006
 9096TIP3    H151483   1.436   2.401  12.379  0.4565 -0.5035 -1.4015
 9096TIP3    H251484   1.429   2.260  12.434 -0.0812  0.0106 -0.1145
 9097TIP3   OH251485   5.455   5.262  12.560 -0.0315 -0.7492 -0.6794
 9097TIP3    H151486   5.435   5.319  12.635 -0.5615 -1.7628 -0.0346
 9097TIP3    H251487   5.470   5.323  12.488 -1.2133  0.2121 -0.1634
 9098TIP3   OH251488   0.561   7.220  11.008 -0.0867  0.0225 -0.0693
 9098TIP3    H151489   0.541   7.137  11.052 -0.9441 -0.4530 -1.2921
 9098TIP3    H251490   0.526   7.287  11.066 -2.5050 -0.6427 -0.6287
 9099TIP3   OH251491   6.134   4.958  11.807  0.1326  0.3419  0.1943
 9099TIP3    H151492   6.053   4.916  11.836 -0.8607  0.3442 -2.3312
 9099TIP3    H251493   6.190   4.885  11.781  0.6766  0.3766  1.2278
 9100TIP3   OH251494   1.144   6.688  10.805  0.4764 -0.4406 -0.1655
 9100TIP3    H151495   1.184   6.768  10.769 -0.3462 -0.1805 -0.5385
 9100TIP3    H251496   1.079   6.720  10.866 -0.1705 -0.8093 -0.6515
 9101TIP3   OH251497   5.796   6.419  13.185 -0.1633  0.4375 -1.1734
 9101TIP3    H151498   5.784   6.323  13.183 -0.4754  0.3313  1.3818
 9101TIP3    H251499   5.708   6.452  13.204  0.0277  1.1985 -1.6188
 9102TIP3   OH251500   7.472   6.055  11.665  0.5163  0.1827 -0.2360
 9102TIP3    H151501   7.478   6.085  11.575  1.3375  0.2709 -0.1622
 9102TIP3    H251502   7.407   6.112  11.706  0.9069  0.8254 -0.5057
 9103TIP3   OH251503   0.776   6.266  10.355  0.1864  0.1194 -0.0685
 9103TIP3    H151504   0.797   6.191  10.300 -0.1831  0.5923 -0.8696
 9103TIP3    H251505   0.770   6.230  10.443  0.4886 -0.7012 -0.3725
 9104TIP3   OH251506   1.160   2.229  11.881  0.5129  0.1722 -0.4814
 9104TIP3    H151507   1.068   2.237  11.907  0.7290  0.8483  0.1220
 9104TIP3    H251508   1.168   2.141  11.846 -0.1536 -0.2440  0.3813
 9105TIP3   OH251509   1.162   5.575  11.906 -0.0927 -0.1874 -0.1440
 9105TIP3    H151510   1.208   5.505  11.861  1.4222  1.7818 -1.8194
 9105TIP3    H251511   1.134   5.634  11.836 -1.8370  0.6235  1.1662
 9106TIP3   OH251512   3.350   2.904  11.629  0.0163  0.3619 -0.1280
 9106TIP3    H151513   3.300   2.980  11.600 -1.4795 -0.4385  0.2688
 9106TIP3    H251514   3.374   2.923  11.719 -0.5660  0.2643  0.0481
 9107TIP3   OH251515   7.087   6.171  12.341  0.5409  0.0858 -0.2870
 9107TIP3    H151516   7.159   6.111  12.359  0.0051  0.1138  2.4347
 9107TIP3    H251517   7.008   6.118  12.352  0.0930  0.4495 -1.5702
 9108TIP3   OH251518   6.265   1.747  11.950 -0.1522  0.5231 -0.1892
 9108TIP3    H151519   6.205   1.686  11.992  0.0524  0.0943 -0.5065
 9108TIP3    H251520   6.214   1.787  11.880 -0.9364  2.3146  1.3328
 9109TIP3   OH251521   0.780   7.562  12.500 -0.2213 -0.6636  0.0671
 9109TIP3    H151522   0.757   7.531  12.413  1.5427 -0.2045 -0.5906
 9109TIP3    H251523   0.875   7.575  12.498 -0.2696  0.3342  1.7363
 9110TIP3   OH251524   2.232   1.582  10.342  0.2830  0.0725 -0.2068
 9110TIP3    H151525   2.182   1.505  10.314 -0.5871  0.0013  1.4266
 9110TIP3    H251526   2.254   1.565  10.434 -0.0828  1.8351  0.2503
 9111TIP3   OH251527   5.498   6.734  11.349 -0.1154 -0.1616  0.0313
 9111TIP3    H151528   5.476   6.724  11.442 -3.5395 -0.5620 -0.6607
 9111TIP3    H251529   5.438   6.803  11.318 -0.9741 -1.8478 -2.3662
 9112TIP3   OH251530   6.870   3.430  11.931  0.1596 -0.0967  0.4557
 9112TIP3    H151531   6.907   3.433  11.842 -2.2738 -1.8395 -0.7115
 9112TIP3    H251532   6.886   3.341  11.961  0.0467  0.1832  1.3836
 9113TIP3   OH251533   4.069   6.478  11.299 -0.2355  0.6374  0.2056
 9113TIP3    H151534   4.160   6.448  11.302 -1.1092 -2.5119 -0.8529
 9113TIP3    H251535   4.043   6.486  11.391  0.2514 -1.5848  0.5782
 9114TIP3   OH251536   7.349   5.397  13.047  0.2318 -0.0530  0.1436
 9114TIP3    H151537   7.301   5.469  13.087  0.8676  0.1569  0.5415
 9114TIP3    H251538   7.304   5.318  13.079  0.3167  0.1334  0.7404
 9115TIP3   OH251539   7.515   4.880  12.775 -0.3844 -0.0152 -0.1498
 9115TIP3    H151540   7.585   4.848  12.832 -1.4148  0.0289  1.1699
 9115TIP3    H251541   7.479   4.956  12.820 -1.0882  0.1521 -0.9615
 9116TIP3   OH251542   5.702   1.751  11.620 -0.1485  0.5973  0.3900
 9116TIP3    H151543   5.730   1.685  11.684 -0.8995 -0.4452 -0.3139
 9116TIP3    H251544   5.637   1.705  11.567 -0.7502  1.9520 -0.0698
 9117TIP3   OH251545   5.679   3.053  12.688  0.3732 -0.2198  0.1260
 9117TIP3    H151546   5.700   3.094  12.604 -0.0885  1.3335  0.7370
 9117TIP3    H251547   5.693   2.960  12.673  1.2311  0.1177 -1.3944
 9118TIP3   OH251548   2.447   1.074  11.210 -0.2931  0.1649 -0.4497
 9118TIP3    H151549   2.488   1.045  11.292  0.0999  1.3896 -0.1969
 9118TIP3    H251550   2.516   1.121  11.163 -0.8277  0.4495 -0.9675
 9119TIP3   OH251551   4.503   7.566  13.413 -0.2497 -0.0462  0.0127
 9119TIP3    H151552   4.542   7.641  13.458 -1.5511  0.9133 -0.4062
 9119TIP3    H251553   4.577   7.507  13.397  0.6256  0.6500  1.2931
 9120TIP3   OH251554   5.115   3.728  11.655  0.3559  0.9282 -0.5118
 9120TIP3    H151555   5.168   3.805  11.675 -1.2794  2.6887 -2.5047
 9120TIP3    H251556   5.037   3.739  11.710  2.1982 -2.1440  3.1576
 9121TIP3   OH251557   4.370   1.340  11.789  0.3588 -0.0261 -0.0176
 9121TIP3    H151558   4.371   1.371  11.698 -0.2463  0.5052  0.1463
 9121TIP3    H251559   4.325   1.410  11.837 -0.5931 -0.9357  0.4498
 9122TIP3   OH251560   0.319   4.531  12.578  0.2400 -0.6003 -0.3406
 9122TIP3    H151561   0.345   4.610  12.532  0.5070  0.0448  0.8562
 9122TIP3    H251562   0.305   4.466  12.510  1.1516  0.1510 -1.2745
 9123TIP3   OH251563   2.399   2.290  10.703  0.0097  0.6322  0.1021
 9123TIP3    H151564   2.426   2.229  10.772  1.6364  0.0378 -0.9936
 9123TIP3    H251565   2.395   2.375  10.747  0.1593  0.1373  1.1169
 9124TIP3   OH251566   3.516   6.866  12.131  0.3918  0.6404 -0.1717
 9124TIP3    H151567   3.545   6.809  12.203 -1.9021 -0.8656 -0.3672
 9124TIP3    H251568   3.456   6.928  12.173 -0.2724  0.3156 -0.6369
 9125TIP3   OH251569   4.398   0.397  10.246 -0.0611  0.6226 -0.1751
 9125TIP3    H151570   4.466   0.332  10.267 -0.7568 -0.6716 -1.6602
 9125TIP3    H251571   4.441   0.481  10.259  2.1145 -0.1382 -1.6864
 9126TIP3   OH251572   5.150   7.414  10.652 -0.4876 -0.0644 -0.0249
 9126TIP3    H151573   5.188   7.493  10.689  0.9775 -1.5209  1.7654
 9126TIP3    H251574   5.090   7.445  10.584 -0.4583  2.5822  1.0611
 9127TIP3   OH251575   2.471   4.960  12.458 -0.1953  0.5039  0.1845
 9127TIP3    H151576   2.489   4.907  12.380 -0.8380  0.2428  0.2073
 9127TIP3    H251577   2.457   4.895  12.528  0.8530  0.7360  0.6413
 9128TIP3   OH251578   4.126   4.117  11.013 -0.1567  0.3862 -0.0880
 9128TIP3    H151579   4.102   4.051  11.077 -1.9838 -0.6043 -1.6670
 9128TIP3    H251580   4.086   4.198  11.045  0.5632  0.3530  0.9397
 9129TIP3   OH251581   3.540   0.447  13.284  0.1035  0.4890 -0.3082
 9129TIP3    H151582   3.494   0.495  13.215  1.5588  0.7922 -1.1201
 9129TIP3    H251583   3.615   0.407  13.240  1.4248  1.1824  1.1772
 9130TIP3   OH251584   0.776   3.153  12.906  0.5304  0.2698 -0.6100
 9130TIP3    H151585   0.716   3.173  12.977 -0.7543 -0.1873 -1.5271
 9130TIP3    H251586   0.840   3.225  12.907 -0.9183  1.6111 -0.5498
 9131TIP3   OH251587   5.736   1.771  11.991  0.1428  0.1508 -0.7660
 9131TIP3    H151588   5.803   1.759  11.923  0.4765  0.0598 -0.4211
 9131TIP3    H251589   5.736   1.689  12.040 -0.3682  0.0712 -0.8896
 9132TIP3   OH251590   1.263   2.971  13.308 -0.0274  0.0544 -0.1316
 9132TIP3    H151591   1.250   3.039  13.241 -1.4779 -0.2539 -0.1995
 9132TIP3    H251592   1.220   2.894  13.272 -0.2435 -0.3057  0.8727
 9133TIP3   OH251593   1.336   5.192  13.268  0.2163  0.0290  0.0726
 9133TIP3    H151594   1.427   5.194  13.240 -0.2919  1.6845 -1.6545
 9133TIP3    H251595   1.295   5.127  13.211  0.2708 -0.5892  0.7301
 9134TIP3   OH251596   6.610   6.082  10.328 -0.1419  0.1410  0.3503
 9134TIP3    H151597   6.604   5.989  10.349 -0.2497 -0.2747 -1.4039
 9134TIP3    H251598   6.536   6.099  10.270  1.6633  0.5314 -1.9822
 9135TIP3   OH251599   4.436   3.031  11.443  0.2920  0.6542  0.1765
 9135TIP3    H151600   4.371   3.026  11.373  0.1987  1.6192  0.1807
 9135TIP3    H251601   4.390   3.071  11.517  1.5407  4.0880 -0.7126
 9136TIP3   OH251602   3.843   0.323  11.342  0.3025  0.4132 -0.1348
 9136TIP3    H151603   3.783   0.321  11.268  0.5104 -0.0935 -0.2920
 9136TIP3    H251604   3.892   0.241  11.336 -0.0754  0.0906  0.8921
 9137TIP3   OH251605   0.743   6.195  12.612  0.5775  0.0565 -0.3667
 9137TIP3    H151606   0.769   6.250  12.538  0.8685  1.6192  0.8458
 9137TIP3    H251607   0.655   6.166  12.591 -0.3915  2.6144 -0.2109
 9138TIP3   OH251608   6.183   1.057  13.350  0.3111 -0.2433 -0.2431
 9138TIP3    H151609   6.148   1.128  13.296  0.4921  0.1274  0.1196
 9138TIP3    H251610   6.106   1.013  13.386  0.1997  0.4184  0.3590
 9139TIP3   OH251611   6.882   2.235  12.614 -0.0889 -0.1744 -0.2489
 9139TIP3    H151612   6.944   2.299  12.649 -1.3851  1.2352 -0.4174
 9139TIP3    H251613   6.829   2.285  12.551 -2.0376 -1.0532  0.6240
 9140TIP3   OH251614   4.780   0.243  11.412 -0.4639 -0.1592  0.0955
 9140TIP3    H151615   4.710   0.298  11.378  0.2714 -0.3126 -1.8176
 9140TIP3    H251616   4.761   0.156  11.376 -0.3196 -0.6240  1.1214
 9141TIP3   OH251617   0.096   1.794  11.073  0.0572 -0.2313 -0.6383
 9141TIP3    H151618   0.055   1.808  11.158 -0.6274 -2.4517 -0.5358
 9141TIP3    H251619   0.133   1.879  11.050 -3.6726  1.7041 -0.2474
 9142TIP3   OH251620   4.058   2.306  12.505 -0.0495  0.1105 -0.1456
 9142TIP3    H151621   4.080   2.242  12.573  1.0560  0.6925  0.0620
 9142TIP3    H251622   3.965   2.326  12.520  0.2350  0.3956  1.3457
 9143TIP3   OH251623   3.367   4.345  11.734 -0.6945  0.0239  0.3461
 9143TIP3    H151624   3.312   4.412  11.692  0.5530  2.0342  1.7227
 9143TIP3    H251625   3.358   4.268  11.678 -4.5381  0.3286  0.2779
 9144TIP3   OH251626   6.466   6.018  12.033 -0.3146  0.4070  0.4925
 9144TIP3    H151627   6.501   5.948  11.979  0.2364  0.2838  1.0047
 9144TIP3    H251628   6.375   5.992  12.051  0.0437 -0.4497  1.1253
 9145TIP3   OH251629   1.952   5.236  11.019 -0.7154 -0.6618  0.3532
 9145TIP3    H151630   2.036   5.230  10.973 -1.6428 -2.3567 -1.2477
 9145TIP3    H251631   1.963   5.182  11.097  0.2507  0.6544  1.1642
 9146TIP3   OH251632   5.350   0.272  10.816  0.4902  0.3054  0.2345
 9146TIP3    H151633   5.435   0.282  10.772 -0.0685 -0.0002 -0.9398
 9146TIP3    H251634   5.309   0.198  10.772 -0.4845  0.5938  0.6402
 9147TIP3   OH251635   6.470   6.388  12.793 -0.1492 -0.2648 -0.4215
 9147TIP3    H151636   6.406   6.330  12.835  0.4936  0.0259  1.0394
 9147TIP3    H251637   6.545   6.331  12.775 -0.1424 -0.2320 -0.4938
 9148TIP3   OH251638   5.238   5.493  12.082  0.0494 -0.0602  0.1478
 9148TIP3    H151639   5.204   5.426  12.142  0.6815 -0.3618  0.1727
 9148TIP3    H251640   5.178   5.567  12.093  0.1217 -0.1339  1.1025
 9149TIP3   OH251641   0.198   6.789  12.810 -0.6858 -0.1590 -0.8265
 9149TIP3    H151642   0.264   6.747  12.756  0.6436  0.6009  0.1252
 9149TIP3    H251643   0.155   6.717  12.856 -0.1592 -0.6449 -1.0773
 9150TIP3   OH251644   0.739   5.547  12.027 -0.0302 -0.1655 -0.1512
 9150TIP3    H151645   0.761   5.599  11.950  0.3865 -1.4585 -0.9361
 9150TIP3    H251646   0.685   5.605  12.081  1.5094  1.5319 -0.3428
 9151TIP3   OH251647   6.565   5.020  11.732 -0.3956 -0.0551  0.1501
 9151TIP3    H151648   6.581   4.929  11.759  1.4625  0.0612 -0.4341
 9151TIP3    H251649   6.568   5.070  11.814 -2.9777 -0.6434  0.6919
 9152TIP3   OH251650   5.344   5.850  11.493 -0.3766  0.1528 -0.0546
 9152TIP3    H151651   5.406   5.831  11.422  0.1393 -0.4375  0.5429
 9152TIP3    H251652   5.266   5.881  11.448  0.9385  2.7084 -0.7577
 9153TIP3   OH251653   6.608   5.212  11.960  0.0245 -0.4682 -0.3789
 9153TIP3    H151654   6.534   5.266  11.986 -1.1653 -1.1344 -2.1569
 9153TIP3    H251655   6.678   5.274  11.941 -0.7674  0.3444 -0.7183
 9154TIP3   OH251656   5.347   7.048  10.752  0.2979  0.0220 -0.1184
 9154TIP3    H151657   5.352   7.124  10.810  0.3516 -0.9609  1.1863
 9154TIP3    H251658   5.271   7.065  10.697 -1.0966 -0.0244  1.7067
 9155TIP3   OH251659   5.121   6.113  10.593 -0.0355 -0.0713  0.2408
 9155TIP3    H151660   5.139   6.025  10.628  1.0010  0.6099  1.4978
 9155TIP3    H251661   5.041   6.101  10.541 -0.3546 -1.6073  1.0001
 9156TIP3   OH251662   5.952   1.102  11.069  0.0020 -0.8017 -0.1134
 9156TIP3    H151663   6.044   1.089  11.048 -0.0052  0.7489 -1.2311
 9156TIP3    H251664   5.905   1.039  11.015  0.2775  0.0421 -1.3610
 9157TIP3   OH251665   1.228   0.884  11.894  0.3949  0.6489  0.5657
 9157TIP3    H151666   1.255   0.972  11.921 -1.3841  0.9042  1.6852
 9157TIP3    H251667   1.153   0.899  11.836  0.1478 -0.1150  0.6773
 9158TIP3   OH251668   5.182   0.987  11.537  0.1194  0.5019  0.5313
 9158TIP3    H151669   5.194   1.064  11.592  0.6144  1.1186 -0.4220
 9158TIP3    H251670   5.186   1.020  11.447  0.9385 -0.7006  0.1011
 9159TIP3   OH251671   5.450   6.937  11.552 -0.5699  0.3196  0.2529
 9159TIP3    H151672   5.409   6.908  11.470  0.1998  0.0252 -0.0365
 9159TIP3    H251673   5.377   6.973  11.603 -0.8023  2.3426 -1.3481
 9160TIP3   OH251674   0.932   7.417  12.929  0.4264  0.5972  0.6176
 9160TIP3    H151675   0.865   7.429  12.997  0.4555 -1.3416  1.0587
 9160TIP3    H251676   0.937   7.501  12.885 -2.1416  0.8799  0.7183
 9161TIP3   OH251677   0.756   6.180  10.827 -0.5351  0.1236 -0.7416
 9161TIP3    H151678   0.672   6.205  10.866 -1.2686 -0.5716 -1.8324
 9161TIP3    H251679   0.770   6.090  10.856  0.1910  0.4603 -0.0027
 9162TIP3   OH251680   5.302   4.591  11.690  0.2623 -0.1981  0.1836
 9162TIP3    H151681   5.283   4.520  11.629 -0.3694 -0.5347  0.7582
 9162TIP3    H251682   5.352   4.550  11.760 -0.9110 -0.2967  0.9924
 9163TIP3   OH251683   5.958   2.616  12.635 -0.5759 -0.4295  0.1342
 9163TIP3    H151684   6.009   2.595  12.713 -0.0437  2.0042  0.5291
 9163TIP3    H251685   6.024   2.636  12.568 -1.0254 -1.3795 -0.6117
 9164TIP3   OH251686   6.198   5.704  10.834  0.0250 -0.2301 -0.0785
 9164TIP3    H151687   6.269   5.711  10.898  0.0524 -1.0271 -0.0062
 9164TIP3    H251688   6.122   5.677  10.886 -0.0672 -0.4181 -0.3065
 9165TIP3   OH251689   0.534   0.340  10.901 -0.1541  0.2169  0.0579
 9165TIP3    H151690   0.624   0.348  10.935 -0.5524  1.2175  0.9645
 9165TIP3    H251691   0.544   0.339  10.806  0.9002 -1.0012  0.1608
 9166TIP3   OH251692   1.180   3.063  11.361 -0.1422  0.0962 -0.0461
 9166TIP3    H151693   1.102   3.010  11.380  0.3503 -0.7646 -0.3358
 9166TIP3    H251694   1.206   3.036  11.273  2.0211 -1.6561  1.0291
 9167TIP3   OH251695   7.564   5.650  11.494  0.1993  0.4586  0.4230
 9167TIP3    H151696   7.521   5.683  11.574  1.9456 -0.3338  1.7611
 9167TIP3    H251697   7.538   5.559  11.488  3.7449 -0.9860  2.9856
 9168TIP3   OH251698   4.564   7.309  13.625  0.0020  0.2751 -0.4687
 9168TIP3    H151699   4.536   7.276  13.710 -1.0147  1.1199 -0.4557
 9168TIP3    H251700   4.509   7.386  13.610  2.3694  2.0736 -0.4191
 9169TIP3   OH251701   0.062   3.474  13.271  0.3779  0.4408 -0.1324
 9169TIP3    H151702   0.109   3.512  13.197  0.1584  0.9033 -0.0387
 9169TIP3    H251703   0.016   3.398  13.235  0.4645  0.5253 -0.4201
 9170TIP3   OH251704   0.422   1.644  12.517  0.0725 -0.4006  0.0317
 9170TIP3    H151705   0.431   1.614  12.426  0.8000 -0.5310  0.1437
 9170TIP3    H251706   0.385   1.732  12.510 -0.5112 -0.6706 -0.3645
 9171TIP3   OH251707   2.575   1.785  12.589  0.2202  0.1699  0.0595
 9171TIP3    H151708   2.599   1.878  12.596 -1.1947  0.5741  0.0395
 9171TIP3    H251709   2.532   1.778  12.504 -0.2849 -0.3558  0.3506
 9172TIP3   OH251710   1.677   4.735  11.185  0.2652  0.7729 -0.4237
 9172TIP3    H151711   1.705   4.694  11.103 -1.6044  1.1577 -1.3368
 9172TIP3    H251712   1.755   4.737  11.240  1.1677 -1.0525 -1.5539
 9173TIP3   OH251713   6.137   2.073  13.603  0.6542 -0.0234  0.0504
 9173TIP3    H151714   6.109   2.020  13.529  3.1585  0.2781 -1.2062
 9173TIP3    H251715   6.229   2.051  13.615  0.9302  1.7083  1.5524
 9174TIP3   OH251716   2.646   3.836  12.631 -0.4279 -0.3446  0.2307
 9174TIP3    H151717   2.679   3.922  12.656  0.9361 -0.9455  0.5877
 9174TIP3    H251718   2.579   3.816  12.696 -0.7999  0.4598  0.1046
 9175TIP3   OH251719   4.791   4.969  11.683 -0.2272  0.2284  0.7971
 9175TIP3    H151720   4.789   4.883  11.641 -0.3405 -0.6376  2.5041
 9175TIP3    H251721   4.868   4.967  11.739 -0.3156  1.1946  0.9726
 9176TIP3   OH251722   6.426   5.777  11.662  0.1385 -0.6278 -0.7848
 9176TIP3    H151723   6.461   5.760  11.749 -0.2266  2.1216 -0.0154
 9176TIP3    H251724   6.502   5.804  11.611  0.0296 -0.1774 -0.7115
 9177TIP3   OH251725   3.267   2.891  12.790 -0.4058  0.7153  0.2244
 9177TIP3    H151726   3.328   2.964  12.795 -1.8295  2.0325 -0.6902
 9177TIP3    H251727   3.253   2.877  12.696  1.3735 -2.1428  0.2537
 9178TIP3   OH251728   4.980   6.296  12.414  0.1425 -0.1396 -0.1661
 9178TIP3    H151729   5.018   6.238  12.348  0.4412  0.9288 -0.9605
 9178TIP3    H251730   5.050   6.356  12.437  0.4357 -1.2345  2.0737
 9179TIP3   OH251731   0.903   6.278  11.934 -0.1567  0.3505  0.2524
 9179TIP3    H151732   0.833   6.269  11.869  0.6980 -1.5243 -0.4847
 9179TIP3    H251733   0.984   6.265  11.884  0.6391  0.8900  1.3586
 9180TIP3   OH251734   2.397   7.224  11.456 -0.1138 -0.2302  0.1890
 9180TIP3    H151735   2.356   7.268  11.382 -0.4842 -0.6707  0.1254
 9180TIP3    H251736   2.350   7.141  11.463  0.4154 -0.5117  0.4516
 9181TIP3   OH251737   5.523   0.187  11.274 -0.4243 -0.0935  0.4535
 9181TIP3    H151738   5.439   0.234  11.276  0.0815  0.9925 -1.2085
 9181TIP3    H251739   5.500   0.096  11.289 -1.7211  0.3672  1.4729
 9182TIP3   OH251740   0.633   4.456  11.541 -0.0957  0.1714 -0.1248
 9182TIP3    H151741   0.627   4.548  11.513 -1.8374  0.3310  0.6561
 9182TIP3    H251742   0.617   4.459  11.635  1.2428 -0.8219  0.1695
 9183TIP3   OH251743   3.267   0.384  11.954 -0.2174 -0.4028 -0.0036
 9183TIP3    H151744   3.270   0.292  11.981 -0.6498 -1.1240 -2.2449
 9183TIP3    H251745   3.310   0.386  11.868  0.2758  1.6020  0.2292
 9184TIP3   OH251746   5.641   5.417  12.024  0.3681 -0.8364  0.2522
 9184TIP3    H151747   5.638   5.408  11.929  0.7648  0.1255  0.1399
 9184TIP3    H251748   5.591   5.497  12.042  0.0984 -1.1356  0.8784
 9185TIP3   OH251749   5.027   5.390  13.059 -0.1381 -0.3514  0.2492
 9185TIP3    H151750   4.999   5.299  13.069 -1.0418 -0.3283 -1.6027
 9185TIP3    H251751   4.948   5.442  13.077  0.1539  0.0226  0.4613
 9186TIP3   OH251752   4.331   2.437  12.647 -0.4956  0.1095  0.0772
 9186TIP3    H151753   4.258   2.408  12.592 -1.4882  0.5374  1.1266
 9186TIP3    H251754   4.343   2.529  12.624 -1.6794  0.6071  1.3664
 9187TIP3   OH251755   0.964   6.059  11.448 -0.3654 -0.3741 -0.5132
 9187TIP3    H151756   1.009   6.006  11.514 -2.5028  0.3013  1.6121
 9187TIP3    H251757   0.872   6.032  11.454 -0.9199  1.0453 -1.9233
 9188TIP3   OH251758   4.786   3.559  12.162 -0.1370 -0.4271  0.0134
 9188TIP3    H151759   4.786   3.583  12.254 -2.8000 -1.5090  0.3986
 9188TIP3    H251760   4.820   3.469  12.160  1.6323  0.2223 -0.3268
 9189TIP3   OH251761   5.218   5.561  12.964  0.3354 -0.3411  0.5067
 9189TIP3    H151762   5.157   5.507  13.013 -0.7937 -0.1291 -0.6125
 9189TIP3    H251763   5.179   5.648  12.965  1.2249  0.0659  0.7673
 9190TIP3   OH251764   7.365   0.447  12.190  0.2303 -0.1119 -0.1043
 9190TIP3    H151765   7.429   0.425  12.258  0.4749 -0.1993 -0.3600
 9190TIP3    H251766   7.281   0.449  12.236  0.5591  1.2490  0.4992
 9191TIP3   OH251767   3.634   3.487  11.086 -0.1017  0.1779 -0.0623
 9191TIP3    H151768   3.730   3.480  11.090 -0.1815 -0.3674  1.4185
 9191TIP3    H251769   3.618   3.540  11.008  1.5217  2.3332  0.9533
 9192TIP3   OH251770   2.052   6.375  12.794  0.4599  0.0392  0.2494
 9192TIP3    H151771   2.044   6.291  12.839 -1.6645  0.6451  1.1399
 9192TIP3    H251772   2.081   6.436  12.862 -0.3862  0.4821  0.2267
 9193TIP3   OH251773   4.081   1.855  11.921  0.2159  0.3111  0.1776
 9193TIP3    H151774   4.075   1.871  11.827 -1.1334  0.0956  0.1944
 9193TIP3    H251775   4.014   1.788  11.938  1.2856 -0.5793  1.1005
 9194TIP3   OH251776   0.935   7.630  12.052  0.3960  0.3245 -0.5602
 9194TIP3    H151777   0.969   7.562  12.109 -1.0730 -0.2803 -0.3657
 9194TIP3    H251778   0.958   7.602  11.964  1.1134  0.3529 -0.3846
 9195TIP3   OH251779   1.521   6.547  12.681  0.7576 -0.2524 -0.3181
 9195TIP3    H151780   1.580   6.595  12.622 -1.4129  2.4321 -0.5254
 9195TIP3    H251781   1.479   6.482  12.624  1.8306 -0.6656 -0.6695
 9196TIP3   OH251782   7.485   3.949  12.724 -0.5357 -0.1549  0.5039
 9196TIP3    H151783   7.486   3.929  12.631 -0.7832 -1.1768  0.7066
 9196TIP3    H251784   7.494   4.044  12.729 -1.5629  0.0160 -0.5939
 9197TIP3   OH251785   2.926   2.659  12.052  0.3550  0.3643 -0.5443
 9197TIP3    H151786   2.942   2.565  12.054 -0.4028  0.2001  2.0725
 9197TIP3    H251787   3.007   2.697  12.020 -0.6258 -1.2590 -5.8992
 9198TIP3   OH251788   2.652   4.380  10.590 -0.3460 -0.0650 -0.7585
 9198TIP3    H151789   2.597   4.372  10.512 -0.4872 -1.5889 -0.5369
 9198TIP3    H251790   2.602   4.336  10.659 -1.3505  3.2982  0.8781
 9199TIP3   OH251791   7.179   5.235  12.199  0.1019 -0.0252 -0.1608
 9199TIP3    H151792   7.220   5.238  12.112  1.9168  1.9418  0.6819
 9199TIP3    H251793   7.245   5.195  12.256  0.1883  1.5211  0.8748
 9200TIP3   OH251794   7.004   3.555  12.144  0.2775  0.2724  0.0389
 9200TIP3    H151795   6.969   3.539  12.056 -0.1837 -0.1511  0.2958
 9200TIP3    H251796   7.074   3.491  12.154  0.0929  0.0856  0.1186
 9201TIP3   OH251797   3.843   1.800  12.393 -0.2210  0.2371  0.4780
 9201TIP3    H151798   3.804   1.877  12.352 -0.2108  0.2976  0.5783
 9201TIP3    H251799   3.795   1.790  12.475 -0.4996 -0.1159  0.2686
 9202TIP3   OH251800   4.304   0.544  11.435  0.0441 -0.6496  0.3108
 9202TIP3    H151801   4.388   0.522  11.475  0.1114 -2.0513 -0.5262
 9202TIP3    H251802   4.325   0.565  11.344 -0.2304  1.5063  0.6861
 9203TIP3   OH251803   5.179   6.572  11.479  0.1541 -0.5007  0.2101
 9203TIP3    H151804   5.264   6.612  11.498  0.2058 -1.6156  2.6628
 9203TIP3    H251805   5.190   6.533  11.392  2.1279 -0.4897  0.4127
 9204TIP3   OH251806   2.382   2.258  12.712 -0.3813 -0.1517  0.0623
 9204TIP3    H151807   2.353   2.178  12.668  0.2479 -0.2825 -0.1308
 9204TIP3    H251808   2.367   2.241  12.805 -1.5904  0.0718 -0.0730
 9205TIP3   OH251809   1.258   0.704  11.019 -0.0489 -0.1056  0.4255
 9205TIP3    H151810   1.184   0.764  11.011 -0.2519 -0.1605  1.7101
 9205TIP3    H251811   1.235   0.647  11.092  0.5592 -1.1635 -0.1861
 9206TIP3   OH251812   6.031   5.549  12.458 -0.4011  0.6951 -0.0299
 9206TIP3    H151813   5.980   5.629  12.473 -0.4033  0.9513 -1.2961
 9206TIP3    H251814   5.987   5.482  12.511  0.0341  1.6612  1.6294
 9207TIP3   OH251815   4.423   5.800  11.901  0.1172  0.5399  0.2875
 9207TIP3    H151816   4.380   5.766  11.822 -0.3409  2.9771 -0.6067
 9207TIP3    H251817   4.356   5.792  11.969 -0.1947  0.2641 -0.0445
 9208TIP3   OH251818   3.331   3.209  10.745 -0.5150 -0.3383  0.8756
 9208TIP3    H151819   3.252   3.172  10.705 -1.1805  0.7873  1.1019
 9208TIP3    H251820   3.341   3.161  10.827 -1.6934  0.3199  1.4381
 9209TIP3   OH251821   5.695   4.715  11.529 -0.6959  0.5350  0.3746
 9209TIP3    H151822   5.749   4.639  11.511 -0.9688 -0.1056  2.1400
 9209TIP3    H251823   5.754   4.778  11.570 -0.9222  0.4769  0.7915
 9210TIP3   OH251824   5.244   5.438  11.805 -0.1332 -0.3836  0.3052
 9210TIP3    H151825   5.245   5.516  11.751  0.2614  0.0191  0.8768
 9210TIP3    H251826   5.254   5.471  11.895  1.3496 -1.1434  0.4559
 9211TIP3   OH251827   2.850   5.176  12.430 -0.1109  0.1349  0.5024
 9211TIP3    H151828   2.897   5.188  12.513  2.2863 -0.1422 -0.7057
 9211TIP3    H251829   2.864   5.259  12.384 -1.2795  0.2244  0.2888
 9212TIP3   OH251830   5.486   1.418  12.415 -0.0571  0.0743 -0.1002
 9212TIP3    H151831   5.462   1.492  12.359  0.3024  0.8662  0.7740
 9212TIP3    H251832   5.507   1.457  12.499  0.0479 -1.0398  0.4093
 9213TIP3   OH251833   4.172   6.434  12.587  0.5468  0.1896  0.5122
 9213TIP3    H151834   4.238   6.402  12.648 -0.9364 -1.4021  1.3699
 9213TIP3    H251835   4.176   6.373  12.513  0.0819  0.1002  0.5552
 9214TIP3   OH251836   2.444   1.739  10.506  0.4361  0.0640  0.0792
 9214TIP3    H151837   2.500   1.801  10.553  0.2798 -0.0223  0.3860
 9214TIP3    H251838   2.445   1.768  10.415 -0.0968  0.8533  0.3186
 9215TIP3   OH251839   2.754   1.130  11.341 -0.3998  0.3367  0.0391
 9215TIP3    H151840   2.682   1.073  11.366 -0.8640  0.2075 -1.5188
 9215TIP3    H251841   2.801   1.082  11.273  1.8353 -0.0626  1.7106
 9216TIP3   OH251842   7.077   5.700  12.091  0.8934 -0.3668  0.1791
 9216TIP3    H151843   7.080   5.641  12.015  0.4789 -0.8736  0.5458
 9216TIP3    H251844   6.983   5.711  12.109  0.9944 -0.5527  0.8413
 9217TIP3   OH251845   6.145   6.310  11.376 -0.0314  0.1391 -0.3689
 9217TIP3    H151846   6.079   6.374  11.349  0.9212  0.6401 -1.5863
 9217TIP3    H251847   6.195   6.354  11.445 -1.3036 -0.4594  0.9796
 9218TIP3   OH251848   0.060   6.046  10.902 -0.1025 -0.5951  0.1734
 9218TIP3    H151849   0.085   6.123  10.954  1.2501 -1.1307  0.3660
 9218TIP3    H251850  -0.027   6.067  10.869  0.3062  1.1083  0.0608
 9219TIP3   OH251851   6.923   5.915  13.537  0.3795  0.3087  0.0310
 9219TIP3    H151852   6.839   5.868  13.540 -0.3598  1.6009  0.0999
 9219TIP3    H251853   6.900   6.007  13.547  1.9758  0.5551  1.9528
 9220TIP3   OH251854   5.810   5.186  11.546 -0.6457  0.1742  0.1735
 9220TIP3    H151855   5.745   5.160  11.481 -0.1080 -0.7891 -0.0012
 9220TIP3    H251856   5.809   5.281  11.545 -0.9247  0.1721 -0.9677
 9221TIP3   OH251857   1.791   6.456  11.526  0.5383  0.0509  0.5522
 9221TIP3    H151858   1.849   6.498  11.462  1.1642 -0.5916  0.6728
 9221TIP3    H251859   1.762   6.527  11.583 -0.5563  0.7481 -0.8216
 9222TIP3   OH251860   7.204   5.680  13.103 -0.1240  0.0175 -0.2185
 9222TIP3    H151861   7.157   5.715  13.179  0.6563 -1.9701  1.2803
 9222TIP3    H251862   7.267   5.748  13.080 -0.0351  0.4690  1.2631
 9223TIP3   OH251863   7.305   2.439  12.709 -0.3152  0.1460 -0.2377
 9223TIP3    H151864   7.287   2.419  12.801 -0.8874  0.2649 -0.3162
 9223TIP3    H251865   7.315   2.535  12.708 -0.4161  0.1557 -0.3144
 9224TIP3   OH251866   5.790   2.387  10.721  0.2486  0.1491  0.0221
 9224TIP3    H151867   5.699   2.393  10.749 -0.2284  0.1618 -1.4540
 9224TIP3    H251868   5.820   2.302  10.756  0.2636  0.9309  2.0549
 9225TIP3   OH251869   2.441   0.973  10.507 -0.1811  0.4524 -0.1690
 9225TIP3    H151870   2.525   0.930  10.525  0.2695  1.0337 -0.8021
 9225TIP3    H251871   2.458   1.066  10.525 -0.9625  0.4580  0.5911
 9226TIP3   OH251872   2.215   7.306  11.274  0.5290 -0.0464  0.2552
 9226TIP3    H151873   2.119   7.303  11.272  0.5399 -0.5629  0.2278
 9226TIP3    H251874   2.241   7.310  11.182  0.5154  1.2109  0.2940
 9227TIP3   OH251875   0.603   0.229  11.681  0.0818  0.1701 -0.3778
 9227TIP3    H151876   0.624   0.304  11.625  1.3467  0.3001  0.2422
 9227TIP3    H251877   0.588   0.268  11.768  0.0528 -0.2283 -0.2018
 9228TIP3   OH251878   1.580   2.610  13.187  0.5845  0.0407 -0.0502
 9228TIP3    H151879   1.495   2.574  13.161 -0.8860  2.9743  0.1865
 9228TIP3    H251880   1.569   2.635  13.279  1.3364  1.2932 -0.2682
 9229TIP3   OH251881   1.494   1.639  11.392 -0.2981 -0.5859  0.6626
 9229TIP3    H151882   1.497   1.552  11.354 -1.3264 -0.7474  0.9284
 9229TIP3    H251883   1.572   1.683  11.358 -0.8846 -0.8978 -1.2117
 9230TIP3   OH251884   4.283   4.275  11.444 -1.1559 -0.0575 -0.1371
 9230TIP3    H151885   4.287   4.182  11.424 -0.3963  0.3147 -1.9216
 9230TIP3    H251886   4.355   4.290  11.506  1.3902 -0.0578 -2.8613
 9231TIP3   OH251887   3.937   3.700  12.415  0.2918 -0.2383  0.8285
 9231TIP3    H151888   4.002   3.770  12.414 -0.3176  0.3473  0.9602
 9231TIP3    H251889   3.912   3.689  12.324  1.8383 -1.6975  0.5394
 9232TIP3   OH251890   2.214   6.854  12.141 -0.2339  0.0391  0.0153
 9232TIP3    H151891   2.264   6.786  12.186  2.0617  1.0091 -0.9150
 9232TIP3    H251892   2.242   6.936  12.181 -0.8701  0.6486 -0.7405
 9233TIP3   OH251893   5.940   1.250  11.310  0.2638 -0.4519 -0.7382
 9233TIP3    H151894   5.863   1.307  11.302 -0.5031 -1.0173  1.7193
 9233TIP3    H251895   5.948   1.208  11.224 -2.0535 -0.2232 -1.1259
 9234TIP3   OH251896   4.777   5.281  10.766 -0.0569  0.6940  0.3161
 9234TIP3    H151897   4.744   5.203  10.721  0.3845  0.2871  0.6807
 9234TIP3    H251898   4.701   5.339  10.772 -0.1883  0.6407 -0.6905
 9235TIP3   OH251899   1.191   7.289  11.983 -0.8154  0.4131 -0.4126
 9235TIP3    H151900   1.286   7.299  11.992 -0.8671  0.8576 -0.3143
 9235TIP3    H251901   1.178   7.195  11.973 -0.3795  0.3278 -0.2405
 9236TIP3   OH251902   6.519   4.847  12.278 -0.1634 -0.0119 -1.0834
 9236TIP3    H151903   6.524   4.923  12.220 -0.4438  0.4969 -0.4574
 9236TIP3    H251904   6.590   4.790  12.249  0.5267  0.8272 -1.0924
 9237TIP3   OH251905   2.119   2.819  12.562 -0.2121  0.3330 -0.6585
 9237TIP3    H151906   2.062   2.785  12.630  0.1100  0.9039 -0.0931
 9237TIP3    H251907   2.060   2.857  12.497 -0.6492 -2.0494 -1.7760
 9238TIP3   OH251908   5.356   0.354  11.643 -0.7540  0.1115 -0.3581
 9238TIP3    H151909   5.438   0.403  11.651 -0.9894  0.4553  0.0059
 9238TIP3    H251910   5.322   0.377  11.557 -2.0377  2.4748  0.6867
 9239TIP3   OH251911   4.458   6.549  13.084 -0.6040 -0.2966 -0.6268
 9239TIP3    H151912   4.464   6.631  13.134 -0.0001 -0.8987  0.3177
 9239TIP3    H251913   4.385   6.564  13.024 -1.1650  0.5650  0.2326
 9240TIP3   OH251914   3.180   7.186  12.780  0.0662 -0.5167 -0.0169
 9240TIP3    H151915   3.273   7.199  12.766 -0.3257  0.5809 -1.9854
 9240TIP3    H251916   3.158   7.241  12.855  0.9025 -0.4299  0.1627
 9241TIP3   OH251917   1.811   5.418  12.386 -0.0997  0.4437 -0.3336
 9241TIP3    H151918   1.783   5.355  12.452  2.6461  0.0311  0.5666
 9241TIP3    H251919   1.787   5.503  12.423 -0.4966  0.1120  0.1974
 9242TIP3   OH251920   2.674   3.234  11.091 -0.2727  0.0338  0.1349
 9242TIP3    H151921   2.625   3.184  11.156 -3.6026  1.9814 -0.6141
 9242TIP3    H251922   2.609   3.292  11.051  2.5370  2.2937 -1.6324
 9243TIP3   OH251923   3.565   3.595  10.847 -0.5567  0.1987  0.3267
 9243TIP3    H151924   3.564   3.690  10.848  0.6247  0.2330 -0.0056
 9243TIP3    H251925   3.575   3.571  10.755  1.7807 -0.1436  0.6018
 9244TIP3   OH251926   3.705   7.492  11.158 -0.4039  0.3262 -0.2112
 9244TIP3    H151927   3.765   7.423  11.188 -0.1518  0.4247 -0.4911
 9244TIP3    H251928   3.689   7.472  11.066  0.0734  0.9356 -0.4294
 9245TIP3   OH251929   1.199   4.990  12.012  0.0496  0.5416  0.3701
 9245TIP3    H151930   1.193   4.903  12.052 -1.4087  1.1405  1.5533
 9245TIP3    H251931   1.123   5.037  12.046 -0.4315  1.5921 -2.0155
 9246TIP3   OH251932   2.680   6.054  12.655 -0.0132 -0.6814 -0.2854
 9246TIP3    H151933   2.668   6.048  12.750  1.9928  0.9721  0.1502
 9246TIP3    H251934   2.738   6.129  12.644  0.2287 -1.1763 -2.8018
 9247TIP3   OH251935   2.424   4.768  10.495  0.2563  0.0334 -0.7460
 9247TIP3    H151936   2.497   4.830  10.498  0.0159  0.2843  0.1120
 9247TIP3    H251937   2.362   4.807  10.433  0.5115  0.1923 -0.9050
 9248TIP3   OH251938   2.278   7.539  10.525 -0.1346  0.6220 -0.2847
 9248TIP3    H151939   2.357   7.486  10.522  0.7537  1.9324 -0.8822
 9248TIP3    H251940   2.234   7.512  10.606  0.1959 -1.0867 -0.6186
 9249TIP3   OH251941   5.796   3.996  10.641  0.0188 -0.2506 -0.3504
 9249TIP3    H151942   5.737   3.975  10.569 -1.5192  0.2533  0.7312
 9249TIP3    H251943   5.754   3.960  10.719  0.3312  1.4545  0.6731
 9250TIP3   OH251944   4.006   0.495  13.433 -0.0959  0.2582 -0.3756
 9250TIP3    H151945   4.075   0.447  13.479 -0.4950  0.2004  0.1671
 9250TIP3    H251946   4.054   0.554  13.374  0.4048 -1.0603 -1.3380
 9251TIP3   OH251947   3.366   4.527  12.600  0.4639  0.0785 -0.5097
 9251TIP3    H151948   3.364   4.432  12.614  0.0864  0.1734  0.1011
 9251TIP3    H251949   3.323   4.564  12.677 -0.5827  0.6835 -1.3382
 9252TIP3   OH251950   1.181   1.103  10.879 -0.1553 -0.8305 -0.5763
 9252TIP3    H151951   1.165   1.165  10.808  0.1681 -2.9451 -2.6261
 9252TIP3    H251952   1.254   1.140  10.928 -1.6682  1.6762 -0.0115
 9253TIP3   OH251953   4.719   0.459  13.272  0.3712  0.2347  0.1697
 9253TIP3    H151954   4.635   0.505  13.277  0.2235 -0.0123  0.0263
 9253TIP3    H251955   4.737   0.451  13.179  0.8085  0.7323  0.2111
 9254TIP3   OH251956   6.075   3.426  11.626  1.0487  0.1559 -0.2805
 9254TIP3    H151957   6.080   3.442  11.720  1.8610  0.2466 -0.3324
 9254TIP3    H251958   6.164   3.402  11.600  1.2578  1.8660 -1.3339
 9255TIP3   OH251959   6.530   4.044  12.077  0.8183 -1.0426 -0.6953
 9255TIP3    H151960   6.609   4.051  12.131  0.9055  1.2060 -1.0252
 9255TIP3    H251961   6.561   4.011  11.993  1.2713 -0.9414 -0.5700
 9256TIP3   OH251962   0.467   1.705  11.962  0.3418  0.3135 -0.7829
 9256TIP3    H151963   0.468   1.714  11.867  0.1227 -2.1908 -1.1054
 9256TIP3    H251964   0.374   1.705  11.985  0.3491 -0.3301 -0.7422
 9257TIP3   OH251965   1.242   6.482  11.051 -0.1054 -0.1216 -1.4187
 9257TIP3    H151966   1.232   6.500  11.144  1.7703 -0.1430 -1.1896
 9257TIP3    H251967   1.285   6.560  11.016  1.6727 -1.2154 -1.7393
 9258TIP3   OH251968   1.561   7.576  11.787 -0.5244 -0.5411  0.0420
 9258TIP3    H151969   1.643   7.590  11.740 -0.8812 -1.4976 -0.9164
 9258TIP3    H251970   1.564   7.637  11.860 -0.4276  1.8198 -1.8282
 9259TIP3   OH251971   0.004   7.514  10.808 -0.5111 -0.0615  0.4629
 9259TIP3    H151972   0.066   7.569  10.761 -2.2080  1.5913  0.0323
 9259TIP3    H251973   0.057   7.470  10.875  1.2283  0.7091 -0.3407
 9260TIP3   OH251974   3.994   0.937  10.919 -0.5263 -0.4404  0.1449
 9260TIP3    H151975   3.968   0.896  10.836  0.9406 -2.7779  0.7563
 9260TIP3    H251976   3.933   1.011  10.928 -0.5630  0.1057 -3.1156
 9261TIP3   OH251977   4.642   6.018  10.975  0.5553 -0.0757 -0.1855
 9261TIP3    H151978   4.732   6.044  10.957  0.1676  1.0941 -0.5635
 9261TIP3    H251979   4.591   6.098  10.959 -0.6245 -0.9012 -0.6335
 9262TIP3   OH251980   6.653   4.862  11.485 -0.1568 -0.0362 -0.5313
 9262TIP3    H151981   6.734   4.877  11.534  0.8020  0.4138 -2.1991
 9262TIP3    H251982   6.595   4.933  11.512 -0.1587 -0.5425  0.9209
 9263TIP3   OH251983   3.129   2.476  10.769  0.5502 -0.1924  0.5141
 9263TIP3    H151984   3.042   2.474  10.728  0.2995 -0.6116  1.0608
 9263TIP3    H251985   3.179   2.538  10.715 -0.0179 -0.1169  0.0631
 9264TIP3   OH251986   3.097   2.419  12.118  0.3440  0.2600  0.7536
 9264TIP3    H151987   3.166   2.383  12.061 -0.1244 -0.3493  0.5602
 9264TIP3    H251988   3.136   2.498  12.156  0.4030  1.1320 -1.0084
 9265TIP3   OH251989   7.505   5.153  11.006 -0.4113  0.1297  0.0985
 9265TIP3    H151990   7.414   5.156  10.977 -1.1770 -1.9607  1.9146
 9265TIP3    H251991   7.508   5.212  11.081 -0.7798 -1.0675  1.0966
 9266TIP3   OH251992   6.265   5.000  12.539 -0.1005  0.7256 -0.0725
 9266TIP3    H151993   6.349   5.037  12.512  0.1600 -0.2432 -0.6224
 9266TIP3    H251994   6.234   4.950  12.463 -0.6068  0.1008  0.5297
 9267TIP3   OH251995   0.821   7.573  11.687  0.1011  0.6370 -0.0352
 9267TIP3    H151996   0.877   7.496  11.678  1.5064  1.4890  0.9040
 9267TIP3    H251997   0.841   7.626  11.610 -1.5039 -0.2962 -1.1244
 9268TIP3   OH251998   3.167   3.290  10.316 -0.3887 -0.1648  0.2561
 9268TIP3    H151999   3.187   3.222  10.380 -0.5311 -0.9434 -0.5083
 9268TIP3    H252000   3.095   3.254  10.265 -2.4237  1.6854  1.5955
 9269TIP3   OH252001   0.106   6.201  13.440  0.2055  0.1963 -0.1279
 9269TIP3    H152002   0.172   6.205  13.509 -0.7607  0.0578  0.8350
 9269TIP3    H252003   0.039   6.263  13.468 -0.8346 -0.8471 -0.2683
 9270TIP3   OH252004   0.774   3.443  13.043 -0.2045  0.2682 -0.3214
 9270TIP3    H152005   0.862   3.439  13.080 -0.9806  1.5134  1.8343
 9270TIP3    H252006   0.772   3.526  12.995 -0.1596  0.1577 -0.5150
 9271TIP3   OH252007   1.006   4.663  11.581 -0.3466 -0.0193 -0.0577
 9271TIP3    H152008   1.088   4.702  11.611 -0.4639  1.3789 -1.4642
 9271TIP3    H252009   0.955   4.736  11.547 -1.8771 -0.9753  0.0717
 9272TIP3   OH252010   0.035   1.890  12.358 -0.3024 -0.6511  0.2422
 9272TIP3    H152011   0.122   1.880  12.398 -0.1472 -1.6787 -0.3012
 9272TIP3    H252012   0.039   1.974  12.313  0.6762 -0.9916 -0.3614
 9273TIP3   OH252013   4.213   0.422  11.956 -0.0236 -0.2172 -0.0502
 9273TIP3    H152014   4.200   0.396  11.865  0.3009 -1.4255  0.2331
 9273TIP3    H252015   4.132   0.468  11.979  0.1105  0.5772 -1.0922
 9274TIP3   OH252016   3.410   2.654  12.420 -0.4829 -0.1327 -0.8573
 9274TIP3    H152017   3.319   2.673  12.397 -0.3578  1.6572 -0.0763
 9274TIP3    H252018   3.404   2.582  12.483 -1.3011 -0.4669 -1.2929
 9275TIP3   OH252019   3.184   0.807  11.839 -0.0062 -0.4618 -0.3647
 9275TIP3    H152020   3.145   0.817  11.752  0.6193 -0.2337 -0.6211
 9275TIP3    H252021   3.251   0.875  11.844 -0.5338  0.0136  0.5867
 9276TIP3   OH252022   2.847   1.772  13.511  0.1723  0.1280 -0.3272
 9276TIP3    H152023   2.785   1.700  13.522  0.8238 -0.1810  1.8815
 9276TIP3    H252024   2.791   1.849  13.499 -0.6077 -0.3982 -0.1796
 9277TIP3   OH252025   6.132   0.296  11.809 -0.0832  0.0116 -0.4155
 9277TIP3    H152026   6.056   0.254  11.768 -0.7054 -0.0519  0.7691
 9277TIP3    H252027   6.095   0.349  11.880  0.8277  1.3751 -0.9111
 9278TIP3   OH252028   1.636   0.583  12.606  0.4185 -0.2093 -0.0036
 9278TIP3    H152029   1.731   0.589  12.591  0.6263 -1.4192  0.6853
 9278TIP3    H252030   1.598   0.575  12.519  0.8146  1.6564 -0.3808
 9279TIP3   OH252031   5.861   3.174  10.938 -0.1805 -0.0138  0.9339
 9279TIP3    H152032   5.828   3.122  10.865 -1.3309  0.4310  1.1175
 9279TIP3    H252033   5.941   3.129  10.966  0.7083  0.2361 -1.0728
 9280TIP3   OH252034   2.607   2.449  12.731  0.4255  0.4042  0.7525
 9280TIP3    H152035   2.543   2.378  12.734  0.1804  0.5621 -0.3199
 9280TIP3    H252036   2.554   2.528  12.718  0.8801  0.3335 -2.2216
 9281TIP3   OH252037   6.594   3.021  10.766 -0.1778 -0.0906 -0.2996
 9281TIP3    H152038   6.647   3.101  10.771  0.0312 -0.2543  0.2198
 9281TIP3    H252039   6.521   3.036  10.826 -0.4220 -0.0845 -0.5975
 9282TIP3   OH252040   2.461   0.191  12.247 -0.5339 -0.3048  0.0809
 9282TIP3    H152041   2.423   0.169  12.332 -1.6970 -0.1489 -0.3840
 9282TIP3    H252042   2.388   0.185  12.185  0.5229 -1.5074 -1.1025
 9283TIP3   OH252043   0.179   5.582  11.457 -0.0555 -0.0360  0.3582
 9283TIP3    H152044   0.097   5.628  11.437 -0.5429 -0.0593  2.1211
 9283TIP3    H252045   0.192   5.522  11.383 -1.0368  0.7411 -0.4760
 9284TIP3   OH252046   2.542   1.866  10.237 -0.5679 -0.3580 -0.3366
 9284TIP3    H152047   2.547   1.812  10.158 -1.6421 -0.3405 -0.4266
 9284TIP3    H252048   2.458   1.910  10.231  0.2254  1.2379 -0.1842
 9285TIP3   OH252049   4.316   6.763  13.560 -0.1123 -0.0465 -0.0968
 9285TIP3    H152050   4.377   6.823  13.602  1.2012 -1.2403 -0.2216
 9285TIP3    H252051   4.238   6.815  13.544 -0.2814  0.7831  2.7883
 9286TIP3   OH252052   0.265   3.425  11.925 -0.1412 -0.7738  0.0119
 9286TIP3    H152053   0.234   3.481  11.996 -0.0965  0.8411 -1.1976
 9286TIP3    H252054   0.350   3.394  11.954  0.9711  1.7939 -0.2949
 9287TIP3   OH252055   0.196   6.935  10.600  0.2284 -0.0394 -0.3035
 9287TIP3    H152056   0.212   7.027  10.581 -0.1309  0.2616  0.8146
 9287TIP3    H252057   0.101   6.924  10.587 -0.4097  0.6305  2.9703
 9288TIP3   OH252058   4.522   4.768  10.777  0.0379  0.3365 -0.1910
 9288TIP3    H152059   4.432   4.747  10.753  0.2385 -2.4552  1.0508
 9288TIP3    H252060   4.539   4.715  10.855  2.7474  0.7961 -0.3772
 9289TIP3   OH252061   6.415   7.294  10.872 -0.2985  0.4140  0.6079
 9289TIP3    H152062   6.344   7.325  10.816 -0.1401  1.1514  0.8078
 9289TIP3    H252063   6.370   7.254  10.947 -0.5085 -0.6193 -0.0551
 9290TIP3   OH252064   0.845   6.415  13.417 -0.7627 -0.4485  0.0074
 9290TIP3    H152065   0.854   6.392  13.325 -1.2571 -1.4985  0.2054
 9290TIP3    H252066   0.888   6.344  13.464  1.1010  0.9641  0.5662
 9291TIP3   OH252067   7.191   1.095  12.682 -0.0480 -0.5876  0.1705
 9291TIP3    H152068   7.110   1.044  12.687 -0.0031 -0.8689 -1.3447
 9291TIP3    H252069   7.233   1.065  12.602  0.9859  0.3941  0.3189
 9292TIP3   OH252070   1.066   2.415  11.214 -0.0694  0.5694 -0.2365
 9292TIP3    H152071   1.033   2.326  11.217 -1.3205  1.0230 -0.0338
 9292TIP3    H252072   1.138   2.412  11.150  2.0223 -1.2190  2.0102
 9293TIP3   OH252073   5.704   7.434  11.566  0.0087  0.2366  0.5362
 9293TIP3    H152074   5.671   7.357  11.521 -1.4676  0.7121  0.7507
 9293TIP3    H252075   5.789   7.408  11.599  0.6574 -0.4916 -1.5436
 9294TIP3   OH252076   5.978   0.134  11.648 -0.2104  0.3263  0.2317
 9294TIP3    H152077   5.886   0.116  11.669 -0.3629 -0.6656 -1.1831
 9294TIP3    H252078   6.009   0.055  11.603  1.2484  0.7731  0.3761
 9295TIP3   OH252079   6.490   5.176  11.069 -0.3663 -0.3547  0.0962
 9295TIP3    H152080   6.556   5.230  11.111  0.3271 -0.7591 -0.4554
 9295TIP3    H252081   6.407   5.211  11.101  0.0735  0.8702 -0.0501
 9296TIP3   OH252082   6.630   0.993  12.679 -0.1468 -0.0312 -0.4583
 9296TIP3    H152083   6.718   0.980  12.643  0.2284  1.0307  0.0178
 9296TIP3    H252084   6.638   0.964  12.770  0.3131  1.9519  0.1953
 9297TIP3   OH252085   4.510   7.159  13.363 -0.1452 -0.5401  0.6557
 9297TIP3    H152086   4.517   7.212  13.442  0.1495  0.5169 -0.0544
 9297TIP3    H252087   4.573   7.197  13.302 -1.1885 -0.5730 -0.4949
 9298TIP3   OH252088   1.898   6.923  11.865  0.2829 -0.1583 -0.0456
 9298TIP3    H152089   1.838   6.943  11.793  0.7655  0.1898 -0.3555
 9298TIP3    H252090   1.845   6.935  11.944  0.0691  0.6419 -0.2933
 9299TIP3   OH252091   0.614   4.619  10.938  0.2032  0.1602 -0.1980
 9299TIP3    H152092   0.560   4.685  10.982  0.8265  0.4374  0.1828
 9299TIP3    H252093   0.567   4.598  10.858 -0.6673  0.0930  0.3096
 9300TIP3   OH252094   0.029   4.876  12.276 -0.8338 -0.3223  0.5864
 9300TIP3    H152095   0.079   4.888  12.356 -1.0787 -0.5195  0.7677
 9300TIP3    H252096  -0.003   4.964  12.255  1.0700  0.1427 -0.5121
 9301TIP3   OH252097   2.853   3.481  10.359 -0.2062  0.7543  0.1289
 9301TIP3    H152098   2.898   3.508  10.438  1.2576 -1.1994  0.0231
 9301TIP3    H252099   2.919   3.489  10.290 -0.8734  0.5468 -0.5451
 9302TIP3   OH252100   4.916   3.642  13.270 -0.1397 -0.0084 -0.5149
 9302TIP3    H152101   4.836   3.618  13.315  0.3738  0.9686  0.9937
 9302TIP3    H252102   4.987   3.611  13.326  0.5230  1.1472 -0.6733
 9303TIP3   OH252103   5.145   6.122  13.023 -0.0454  0.9530 -0.1559
 9303TIP3    H152104   5.060   6.078  13.026  0.1011  0.3227 -2.5340
 9303TIP3    H252105   5.128   6.210  13.055 -1.3135  0.4566  0.6102
 9304TIP3   OH252106   3.013   3.000  12.778 -0.5132  0.0833 -0.0444
 9304TIP3    H152107   3.069   2.973  12.705 -0.5220  0.1200 -0.0644
 9304TIP3    H252108   2.925   3.006  12.739 -0.9379 -2.0619  0.4425
 9305TIP3   OH252109   3.942   2.406  11.645  0.2328  0.3036  0.4518
 9305TIP3    H152110   3.949   2.476  11.580 -0.2648  0.1083  0.1844
 9305TIP3    H252111   3.849   2.402  11.666  0.1791 -0.5964  0.1043
 9306TIP3   OH252112   3.433   6.991  12.367  0.2025 -0.1712 -0.6800
 9306TIP3    H152113   3.457   6.949  12.449  1.7429  0.3336 -0.8266
 9306TIP3    H252114   3.340   6.974  12.356  0.5360 -2.6160 -0.2115
 9307TIP3   OH252115   5.181   5.973  12.738 -0.6862 -0.6317  0.5972
 9307TIP3    H152116   5.090   5.955  12.713 -0.6304 -2.3100  1.4661
 9307TIP3    H252117   5.184   5.955  12.832  0.9480 -2.4940  0.2563
 9308TIP3   OH252118   2.905   3.990  11.815 -0.1343 -0.2406 -0.6482
 9308TIP3    H152119   2.907   3.895  11.822  2.1733 -0.2113 -0.0669
 9308TIP3    H252120   2.974   4.011  11.753  1.8208  1.1336  1.7860
 9309TIP3   OH252121   2.009   2.107  12.293  0.1722 -0.1417 -0.2198
 9309TIP3    H152122   2.030   2.178  12.232  0.3747 -0.4709 -0.5344
 9309TIP3    H252123   1.979   2.152  12.372 -1.0591  0.2704 -0.9074
 9310TIP3   OH252124   0.576   6.726  12.090  0.1807 -0.1450  0.7749
 9310TIP3    H152125   0.520   6.650  12.106  1.1176 -0.6475  1.7615
 9310TIP3    H252126   0.636   6.697  12.021 -1.0020  0.5371 -0.5928
 9311TIP3   OH252127   0.661   6.156  10.566 -0.4133 -0.7624  0.2350
 9311TIP3    H152128   0.693   6.141  10.655 -2.3680  1.2962  1.3828
 9311TIP3    H252129   0.566   6.155  10.575 -0.6493  1.1696 -1.5012
 9312TIP3   OH252130   3.847   4.790  11.297 -0.3417 -0.5322  0.3685
 9312TIP3    H152131   3.805   4.711  11.262  2.1541 -2.2016  0.8740
 9312TIP3    H252132   3.919   4.808  11.238  0.2262  0.2826  1.2732
 9313TIP3   OH252133   0.851   5.559  11.061 -0.1248 -0.0366  0.0989
 9313TIP3    H152134   0.862   5.517  10.976 -0.7609  2.2445 -1.1712
 9313TIP3    H252135   0.776   5.515  11.100 -0.4652 -0.4253 -0.9659
 9314TIP3   OH252136   0.070   4.981  11.094  0.3033  0.3710 -0.5858
 9314TIP3    H152137   0.095   4.931  11.016  1.1398  0.2963 -0.2843
 9314TIP3    H252138  -0.008   5.030  11.068  0.8489  0.7153 -1.6181
 9315TIP3   OH252139   6.061   1.949  13.367  0.6932 -0.1957 -0.0105
 9315TIP3    H152140   6.026   1.885  13.304 -0.7269  0.4718  0.0658
 9315TIP3    H252141   6.147   1.972  13.332 -0.2330  0.4814 -1.9824
 9316TIP3   OH252142   4.987   0.303  11.167  0.1844 -0.0402 -0.3817
 9316TIP3    H152143   4.898   0.275  11.191 -0.2853  1.5607 -0.1534
 9316TIP3    H252144   5.023   0.340  11.247  1.0542 -0.6131 -0.4942
 9317TIP3   OH252145   5.038   6.565  11.155 -0.5211  0.3014 -0.3614
 9317TIP3    H152146   5.035   6.659  11.173  2.3722  0.2047  1.2402
 9317TIP3    H252147   4.999   6.525  11.232 -1.1600  0.1605 -0.7541
 9318TIP3   OH252148   6.856   6.629  11.175 -0.1122  0.4177  0.6705
 9318TIP3    H152149   6.812   6.691  11.118 -0.4252  0.4389  0.9343
 9318TIP3    H252150   6.948   6.631  11.147 -0.1276  0.9647  0.6512
 9319TIP3   OH252151   0.002   0.705  12.812 -0.0638  0.2093  0.0782
 9319TIP3    H152152  -0.010   0.795  12.782  1.9992  1.4075  2.4652
 9319TIP3    H252153  -0.020   0.707  12.905  2.7248 -0.9874  0.8829
 9320TIP3   OH252154   1.490   5.570  12.157 -0.9125  0.1384  0.2069
 9320TIP3    H152155   1.526   5.532  12.237  0.7356 -0.1923 -0.6471
 9320TIP3    H252156   1.526   5.515  12.086 -0.6710  1.6323 -0.8768
 9321TIP3   OH252157   4.525   1.127  11.899 -0.0101 -0.1893 -0.0367
 9321TIP3    H152158   4.456   1.192  11.886 -0.7063 -1.0946 -1.0648
 9321TIP3    H252159   4.486   1.045  11.870  1.4519 -0.7511 -0.5090
 9322TIP3   OH252160   5.378   3.319  10.987 -0.0676  0.6340  0.9594
 9322TIP3    H152161   5.468   3.346  10.973  0.0321 -0.0310  0.1944
 9322TIP3    H252162   5.337   3.392  11.034  0.7957  1.0451  1.0822
 9323TIP3   OH252163   2.322   7.148  10.533  0.4409  0.0784  0.1207
 9323TIP3    H152164   2.241   7.199  10.527 -0.4487 -1.3834 -1.0021
 9323TIP3    H252165   2.388   7.211  10.561 -0.9504  1.4495  0.4657
 9324TIP3   OH252166   0.309   2.890  10.695  0.3201 -0.1712 -0.0660
 9324TIP3    H152167   0.331   2.982  10.683  1.0824 -0.3925 -0.4007
 9324TIP3    H252168   0.256   2.868  10.618  0.1648 -0.0255 -0.0024
 9325TIP3   OH252169   4.208   7.538  11.141 -0.0160 -0.0838 -0.4390
 9325TIP3    H152170   4.295   7.530  11.102  0.7796 -0.3698  1.3185
 9325TIP3    H252171   4.186   7.449  11.170 -0.6359  0.0952 -0.3526
 9326TIP3   OH252172   0.092   6.074  10.553  0.2259 -0.1333 -0.1071
 9326TIP3    H152173   0.146   5.997  10.572  1.3173  0.5845 -0.1873
 9326TIP3    H252174   0.026   6.075  10.622  0.0804 -1.2274 -0.2039
 9327TIP3   OH252175   3.775   0.526  10.582  0.3767  0.2425 -0.2621
 9327TIP3    H152176   3.808   0.469  10.513  1.3769  0.4495  0.0223
 9327TIP3    H252177   3.699   0.569  10.544 -0.3681 -1.2267 -0.4991
 9328TIP3   OH252178   5.664   1.706  12.325 -0.0206  0.1646 -0.5787
 9328TIP3    H152179   5.647   1.652  12.247  0.6339 -0.3211 -0.4046
 9328TIP3    H252180   5.579   1.740  12.350 -0.3459 -0.2285 -1.1136
 9329TIP3   OH252181   7.627   0.629  12.164 -0.2348 -0.4107  0.0413
 9329TIP3    H152182   7.636   0.699  12.099  0.1803  0.5295  1.0681
 9329TIP3    H252183   7.715   0.618  12.200 -0.3527 -1.2937  0.0696
 9330TIP3   OH252184   5.287   3.851  12.429  0.1864 -0.1288 -0.2019
 9330TIP3    H152185   5.292   3.937  12.388 -0.4722  0.4022  0.8028
 9330TIP3    H252186   5.378   3.829  12.450  0.3889  0.1623 -0.7501
 9331TIP3   OH252187   5.574   5.096  12.187  0.3713 -0.5673  0.3640
 9331TIP3    H152188   5.625   5.139  12.255  0.1599 -1.0875  0.8551
 9331TIP3    H252189   5.633   5.090  12.112  0.8532 -0.6789  0.7486
 9332TIP3   OH252190   6.714   3.891  10.870 -0.2251 -0.3876  0.1674
 9332TIP3    H152191   6.655   3.818  10.848 -0.0183 -0.7221  0.7217
 9332TIP3    H252192   6.677   3.965  10.822 -0.4242 -0.8557 -0.4281
 9333TIP3   OH252193   3.828   0.489  13.209  0.1624  0.3103  0.0288
 9333TIP3    H152194   3.887   0.482  13.284 -2.2989  0.2048  2.0860
 9333TIP3    H252195   3.837   0.579  13.179  1.5232  0.2215  0.1148
 9334TIP3   OH252196   0.850   6.454  11.190 -0.5604 -0.2126 -0.2654
 9334TIP3    H152197   0.941   6.446  11.221 -0.7908  0.7052  0.7217
 9334TIP3    H252198   0.856   6.440  11.096  0.4168 -1.4710 -0.0394
 9335TIP3   OH252199   1.777   1.798  11.910 -0.8764 -0.2409  0.3950
 9335TIP3    H152200   1.767   1.843  11.826  2.1218 -0.1370 -0.0147
 9335TIP3    H252201   1.797   1.868  11.972 -2.8050 -0.3525  1.2126
 9336TIP3   OH252202   5.677   4.791  11.987  0.3004  0.2865  0.2750
 9336TIP3    H152203   5.746   4.735  12.023  0.3083 -0.8212 -1.3499
 9336TIP3    H252204   5.693   4.876  12.026  1.9839 -0.1917  0.7200
 9337TIP3   OH252205   4.664   0.689  12.128 -0.0705 -0.3256  0.6340
 9337TIP3    H152206   4.700   0.776  12.147  0.5984 -0.6376  0.8343
 9337TIP3    H252207   4.663   0.645  12.213  1.4559 -1.1899  0.2415
 9338TIP3   OH252208   1.239   4.034  11.033 -0.1615 -0.3525 -0.1286
 9338TIP3    H152209   1.204   4.085  10.960  0.1930  0.8360  0.5032
 9338TIP3    H252210   1.320   4.079  11.057  0.4416 -1.5390  0.1115
 9339TIP3   OH252211   6.308   5.188  11.843 -0.2849 -0.6451  0.0283
 9339TIP3    H152212   6.239   5.122  11.845  0.3398 -1.3207 -0.1218
 9339TIP3    H252213   6.313   5.221  11.932 -0.2940 -1.1381  0.2149
 9340TIP3   OH252214   2.799   6.118  12.395  0.7365 -0.1144  0.5990
 9340TIP3    H152215   2.776   6.046  12.454  0.4545 -1.2123 -0.7767
 9340TIP3    H252216   2.719   6.136  12.346  0.8825  0.9667  0.7315
 9341TIP3   OH252217   6.378   2.084  11.768 -0.1375  0.4931  0.1865
 9341TIP3    H152218   6.458   2.086  11.716 -0.8829 -0.4031 -1.0640
 9341TIP3    H252219   6.309   2.061  11.705 -1.2309  0.3183  1.3980
 9342TIP3   OH252220   4.376   7.245  13.098 -0.0541 -0.2083  0.0157
 9342TIP3    H152221   4.289   7.267  13.133  0.8245  1.6514  1.1919
 9342TIP3    H252222   4.435   7.254  13.173  1.3948  0.1931 -1.1266
 9343TIP3   OH252223   3.815   7.022  12.262  0.0966  0.3005  0.0803
 9343TIP3    H152224   3.803   7.059  12.174 -0.3857  1.2966  0.5548
 9343TIP3    H252225   3.825   7.098  12.319 -0.2631 -0.3208  0.9910
 9344TIP3   OH252226   4.159   0.815  10.608 -0.1376 -0.2284 -0.2480
 9344TIP3    H152227   4.090   0.792  10.672 -0.4539  2.0482  0.3075
 9344TIP3    H252228   4.137   0.903  10.580  1.0439 -0.4989 -2.1902
 9345TIP3   OH252229   0.512   2.651  11.300  0.1849  0.2355  0.1345
 9345TIP3    H152230   0.547   2.737  11.278 -0.6097  0.9738  1.6463
 9345TIP3    H252231   0.512   2.648  11.396 -0.6891 -1.0737  0.1241
 9346TIP3   OH252232   0.392   0.458  12.250 -0.1951  0.8439  0.3258
 9346TIP3    H152233   0.338   0.511  12.309 -0.6425  2.0568 -1.1093
 9346TIP3    H252234   0.328   0.411  12.197  0.1892  0.4998  0.1694
 9347TIP3   OH252235   0.198   5.942  11.633  0.0807  0.1202 -0.2146
 9347TIP3    H152236   0.273   5.915  11.580 -0.2516  0.3356 -0.7895
 9347TIP3    H252237   0.151   5.860  11.651 -1.6676  0.3680 -3.0617
 9348TIP3   OH252238   1.111   1.772  10.940 -0.1442 -0.8541 -0.5254
 9348TIP3    H152239   1.134   1.769  11.033 -1.7956  0.2855 -0.0298
 9348TIP3    H252240   1.016   1.768  10.938 -0.2711  1.0619 -2.0297
 9349TIP3   OH252241   1.138   7.004  11.935 -0.1274  0.2541 -0.0785
 9349TIP3    H152242   1.049   6.989  11.966 -0.5798  0.3638 -1.2768
 9349TIP3    H252243   1.194   6.958  11.997 -1.1425 -1.7320 -0.5711
 9350TIP3   OH252244   4.796   4.039  11.147 -0.5997 -0.6659  0.2223
 9350TIP3    H152245   4.886   4.005  11.143 -0.0881  0.6551 -0.0185
 9350TIP3    H252246   4.742   3.961  11.161  0.4619 -1.6535 -0.8710
 9351TIP3   OH252247   4.495   0.326  11.317  0.3833  0.3498 -0.4594
 9351TIP3    H152248   4.406   0.309  11.287 -0.4550 -0.1204  2.0119
 9351TIP3    H252249   4.483   0.367  11.403  2.5558  1.1979 -0.5086
 9352TIP3   OH252250   1.295   5.216  10.695  0.0248  0.3213  0.1101
 9352TIP3    H152251   1.298   5.254  10.607  0.9694 -0.4930 -0.2260
 9352TIP3    H252252   1.221   5.259  10.737 -1.1326 -0.0649 -1.4414
 9353TIP3   OH252253   0.610   0.019  11.316 -0.7838  0.1219 -0.4559
 9353TIP3    H152254   0.530  -0.028  11.340 -0.9183 -0.0895 -1.2824
 9353TIP3    H252255   0.592   0.055  11.229 -0.4667  1.2304 -0.0785
 9354TIP3   OH252256   6.154   2.325  13.507  0.1938  0.5807 -0.1050
 9354TIP3    H152257   6.151   2.240  13.551  1.0817  1.8396  2.6172
 9354TIP3    H252258   6.064   2.357  13.511 -0.5889 -0.8724 -2.8348
 9355TIP3   OH252259   0.769   5.650  12.799  0.9183 -0.1806 -0.1337
 9355TIP3    H152260   0.850   5.678  12.758  1.2323 -2.0596 -0.8950
 9355TIP3    H252261   0.796   5.588  12.867  0.1213 -1.3512 -0.8452
 9356TIP3   OH252262   5.018   0.438  11.785  0.4878  0.1359 -0.2372
 9356TIP3    H152263   5.009   0.356  11.833  1.7978  0.3453  0.4196
 9356TIP3    H252264   4.960   0.500  11.830  0.6585 -0.0363  0.2208
 9357TIP3   OH252265   3.738   5.575  12.049  0.9187  0.4228 -1.1501
 9357TIP3    H152266   3.788   5.655  12.033  2.7437 -0.1371  1.1377
 9357TIP3    H252267   3.786   5.531  12.120 -1.2243 -1.6465 -0.8683
 9358TIP3   OH252268   1.628   4.080  11.583 -0.1005 -0.0142  0.0240
 9358TIP3    H152269   1.621   4.154  11.524  1.4931 -0.3549 -0.6512
 9358TIP3    H252270   1.668   4.116  11.662  2.7666 -0.4655 -1.1055
 9359TIP3   OH252271   4.900   0.848  12.171  0.5346 -0.2045  0.2111
 9359TIP3    H152272   4.939   0.878  12.088  0.0621 -1.9471 -0.6987
 9359TIP3    H252273   4.968   0.795  12.212 -0.1646 -1.6674 -0.4547
 9360TIP3   OH252274   4.960   0.900  12.576 -0.1125 -0.2536  0.4727
 9360TIP3    H152275   5.005   0.981  12.602 -0.1351 -0.7174  1.9976
 9360TIP3    H252276   4.933   0.917  12.486  0.1343  1.3326  0.6617
 9361TIP3   OH252277   0.822   2.410  10.830  0.4607 -0.5393  0.1935
 9361TIP3    H152278   0.904   2.384  10.788  0.7156 -0.2501  0.5048
 9361TIP3    H252279   0.789   2.329  10.870  0.0978 -0.8661 -0.7465
 9362TIP3   OH252280   2.550   0.440  10.926  0.0153 -0.2720  0.0147
 9362TIP3    H152281   2.466   0.401  10.950 -0.8559 -0.5359 -3.1326
 9362TIP3    H252282   2.616   0.381  10.962 -1.2269 -2.1739 -0.7317
 9363TIP3   OH252283   6.497   0.016  11.197 -0.0158 -0.2494 -0.3236
 9363TIP3    H152284   6.409   0.023  11.234 -0.9761  2.3033 -2.7437
 9363TIP3    H252285   6.485  -0.032  11.115  1.3342 -2.0987  0.5017
 9364TIP3   OH252286   7.109   6.773  12.694 -0.2242  0.5202  0.4582
 9364TIP3    H152287   7.106   6.753  12.601  1.0845 -1.9195  0.8677
 9364TIP3    H252288   7.028   6.822  12.711 -1.6264 -0.9819 -1.5128
 9365TIP3   OH252289   3.709   5.401  12.427  0.1798  0.2053 -0.3916
 9365TIP3    H152290   3.773   5.465  12.458  0.7379 -1.5197  2.3652
 9365TIP3    H252291   3.752   5.357  12.354  1.3006  0.5027  0.0767
 9366TIP3   OH252292   1.862   3.605  10.882  0.2757 -0.1584  0.1952
 9366TIP3    H152293   1.809   3.527  10.864  0.0142  0.4307 -1.9006
 9366TIP3    H252294   1.815   3.676  10.838  2.3785  0.5212 -1.0873
 9367TIP3   OH252295   3.336   6.225  10.899  0.5417 -0.0965  0.2003
 9367TIP3    H152296   3.249   6.224  10.939  0.2052 -1.2899 -0.5113
 9367TIP3    H252297   3.327   6.281  10.822  0.4994  0.0837  0.3368
 9368TIP3   OH252298   5.177   6.855  10.884  0.2249 -0.2547  0.0865
 9368TIP3    H152299   5.212   6.937  10.848  0.2458 -0.2042  0.2222
 9368TIP3    H252300   5.086   6.852  10.853  0.0595  0.0880  0.5318
 9369TIP3   OH252301   5.656   5.994  11.975 -0.3024  0.5727  0.0583
 9369TIP3    H152302   5.652   6.031  11.887  1.0862 -0.1831 -0.3573
 9369TIP3    H252303   5.566   5.967  11.994 -0.8837  1.9967 -0.5506
 9370TIP3   OH252304   4.122   2.464  10.782  0.0176 -0.0195  0.7411
 9370TIP3    H152305   4.145   2.496  10.870  2.2743  0.4365  0.0539
 9370TIP3    H252306   4.126   2.542  10.726  2.3902 -0.8378 -0.3791
 9371TIP3   OH252307   2.276   2.883  11.522  0.4525 -0.0723  0.1370
 9371TIP3    H152308   2.292   2.947  11.591  1.5533 -2.6123  2.4499
 9371TIP3    H252309   2.216   2.820  11.561  0.2341 -1.0405 -1.6371
 9372TIP3   OH252310   2.855   1.394  11.268  0.0395  0.3336 -0.2540
 9372TIP3    H152311   2.835   1.301  11.280 -0.2631  0.1709 -1.7780
 9372TIP3    H252312   2.774   1.430  11.233  0.1802  1.1740  0.2695
 9373TIP3   OH252313   1.217   0.991  11.241 -0.5083  0.2165  0.1209
 9373TIP3    H152314   1.156   0.923  11.212  0.1063 -1.4381  2.4236
 9373TIP3    H252315   1.301   0.964  11.205 -0.1963 -0.5034  1.3337
 9374TIP3   OH252316   3.432   4.227  10.974  0.1476  0.6547  0.0795
 9374TIP3    H152317   3.461   4.211  11.064  0.3175  1.0919  0.1068
 9374TIP3    H252318   3.362   4.163  10.960 -0.2439  0.9284  0.7047
 9375TIP3   OH252319   2.423   4.254  10.421 -0.3868  0.3702  0.2105
 9375TIP3    H152320   2.505   4.213  10.395 -0.2155  1.3818 -0.9449
 9375TIP3    H252321   2.355   4.194  10.389 -0.1142  0.2550 -0.1604
 9376TIP3   OH252322   6.725   2.722  11.427  0.0584 -0.6988  0.5916
 9376TIP3    H152323   6.753   2.720  11.336  0.2075 -0.3221  0.6273
 9376TIP3    H252324   6.804   2.744  11.477 -0.5865  2.1218  0.5403
 9377TIP3   OH252325   6.193   5.865  11.777  0.1560 -0.3607  0.3299
 9377TIP3    H152326   6.108   5.861  11.733  0.0462 -1.3400  0.6230
 9377TIP3    H252327   6.257   5.852  11.706  0.0085 -1.0560  0.3182
 9378TIP3   OH252328   7.510   5.440  12.827  0.0785 -0.5530 -0.5267
 9378TIP3    H152329   7.594   5.404  12.855 -0.5655 -0.7225  1.3597
 9378TIP3    H252330   7.448   5.409  12.893 -1.2877  0.4135 -1.3046
 9379TIP3   OH252331   3.615   6.105  11.761  0.3556 -0.4176  0.3012
 9379TIP3    H152332   3.555   6.155  11.705  1.0698  0.3739  0.2112
 9379TIP3    H252333   3.564   6.030  11.791 -0.7228  0.3115  0.3429
 9380TIP3   OH252334   6.749   5.980  11.880  0.2891 -0.3171  0.1990
 9380TIP3    H152335   6.753   6.040  11.806 -1.1226 -0.3324  0.0806
 9380TIP3    H252336   6.775   6.033  11.955 -1.0809  0.5015  0.1192
 9381TIP3   OH252337   6.661   7.175  10.881  0.3486 -0.0507 -0.5898
 9381TIP3    H152338   6.581   7.227  10.869  0.8439  0.2672 -3.1650
 9381TIP3    H252339   6.703   7.212  10.959 -0.9782  1.1392 -0.4009
 9382TIP3   OH252340   7.264   0.282  13.083 -0.7247  0.2463  0.2786
 9382TIP3    H152341   7.288   0.368  13.117 -2.4007  1.4550 -1.4233
 9382TIP3    H252342   7.340   0.227  13.102  0.7481  2.2957  0.6602
 9383TIP3   OH252343   5.341   4.061  11.249  0.0893 -0.3303  0.0948
 9383TIP3    H152344   5.379   4.076  11.162 -1.9677 -0.2116 -0.8391
 9383TIP3    H252345   5.374   4.133  11.303  0.3683  0.3395 -0.9457
 9384TIP3   OH252346   5.183   4.772  11.203 -0.7914  0.1574 -0.4885
 9384TIP3    H152347   5.178   4.810  11.116 -1.2829  0.8160 -0.1798
 9384TIP3    H252348   5.124   4.826  11.256 -2.7441 -1.9599 -0.3562
 9385TIP3   OH252349   7.157   7.034  11.670 -0.2974  0.4281  0.3835
 9385TIP3    H152350   7.177   7.090  11.595  0.8143  0.6463  0.8281
 9385TIP3    H252351   7.198   6.950  11.649  2.7012  1.3403  2.0066
 9386TIP3   OH252352   7.222   7.273  11.870 -0.0915 -0.1237 -0.6031
 9386TIP3    H152353   7.159   7.345  11.867  0.0543 -0.0253 -1.8461
 9386TIP3    H252354   7.227   7.242  11.780  0.0010 -1.5719 -0.1249
 9387TIP3   OH252355   2.944   7.221  11.857 -0.4020 -0.0400  0.3990
 9387TIP3    H152356   3.024   7.230  11.804  0.5112  2.1259  1.9776
 9387TIP3    H252357   2.951   7.291  11.923 -2.5187 -1.2258  2.0172
 9388TIP3   OH252358   4.323   6.937  11.155 -0.3005  0.4760 -0.2085
 9388TIP3    H152359   4.334   7.008  11.218 -0.0777 -0.7573  1.2292
 9388TIP3    H252360   4.299   6.861  11.209  0.6514 -0.8303 -1.5199
 9389TIP3   OH252361   5.903   5.408  11.053  0.4056 -0.2498  0.0958
 9389TIP3    H152362   5.962   5.339  11.085 -1.2407 -1.8741 -0.1825
 9389TIP3    H252363   5.874   5.453  11.132 -0.4396 -1.5560  0.5722
 9390TIP3   OH252364   3.063   0.874  11.589 -0.7523  0.0179  0.1225
 9390TIP3    H152365   3.056   0.969  11.581 -1.1549 -0.0536 -0.4158
 9390TIP3    H252366   3.068   0.843  11.499 -0.3755 -0.4552  0.3051
 9391TIP3   OH252367   5.881   1.615  12.976  0.2937  0.0890 -0.2325
 9391TIP3    H152368   5.837   1.534  12.949  0.8430 -0.6850  1.1021
 9391TIP3    H252369   5.811   1.680  12.978 -0.2491 -0.4599 -0.8850
 9392TIP3   OH252370   0.070   4.288  10.608  0.4299 -0.0980  0.2977
 9392TIP3    H152371   0.137   4.337  10.561  0.5364 -0.6324 -0.1197
 9392TIP3    H252372   0.118   4.241  10.675  0.3816  0.0446  0.4326
 9393TIP3   OH252373   4.051   4.650  12.778  0.4126 -0.0034 -0.1487
 9393TIP3    H152374   4.055   4.734  12.732  3.0559  0.0402  0.0008
 9393TIP3    H252375   4.048   4.673  12.870 -1.9288 -0.1218 -0.1314
 9394TIP3   OH252376   1.258   4.219  12.066 -0.2134  0.4563 -0.0133
 9394TIP3    H152377   1.197   4.208  12.138 -1.5947  0.6661 -1.1104
 9394TIP3    H252378   1.344   4.206  12.105 -0.9182  0.6529  1.6757
 9395TIP3   OH252379   4.411   1.545  11.164 -0.2407 -0.4886 -0.5938
 9395TIP3    H152380   4.433   1.541  11.071 -0.9213  0.0823 -0.7888
 9395TIP3    H252381   4.426   1.637  11.187  0.7251 -0.7969  0.0753
 9396TIP3   OH252382   2.181   2.787  12.936 -0.7886  0.0933 -0.5081
 9396TIP3    H152383   2.110   2.805  12.875  0.4056  0.8372 -1.7583
 9396TIP3    H252384   2.259   2.819  12.891  0.3807 -0.9378  0.6988
 9397TIP3   OH252385   1.582   5.514  12.980  0.4491 -0.2903  0.1456
 9397TIP3    H152386   1.559   5.600  12.945 -0.6049 -0.7649 -0.3755
 9397TIP3    H252387   1.678   5.511  12.974  0.5461  1.0542  0.6951
 9398TIP3   OH252388   3.670   3.778  11.159  0.1890  0.8293 -0.0185
 9398TIP3    H152389   3.667   3.772  11.063  1.2669 -0.5082  0.0058
 9398TIP3    H252390   3.582   3.752  11.186  0.3215 -0.3471 -0.6170
 9399TIP3   OH252391   2.607   3.957  11.090  0.1484 -0.1901  0.2063
 9399TIP3    H152392   2.673   4.014  11.050  0.0217 -1.6575 -2.2880
 9399TIP3    H252393   2.569   3.909  11.017 -3.2572  0.0734  1.6018
 9400TIP3   OH252394   6.878   4.819  10.667 -0.0867 -0.0459 -0.3907
 9400TIP3    H152395   6.875   4.727  10.695 -1.3431 -0.8538 -2.9140
 9400TIP3    H252396   6.825   4.865  10.732  2.2571 -0.6304  2.1518
 9401TIP3   OH252397   2.537   0.611  11.810 -0.0274 -0.2468  0.5798
 9401TIP3    H152398   2.504   0.700  11.802  0.8642  0.0142 -0.3914
 9401TIP3    H252399   2.467   0.556  11.776  0.3783  0.2766 -1.1883
 9402TIP3   OH252400   2.755   3.480  10.862  0.7329  0.1122  0.1118
 9402TIP3    H152401   2.781   3.388  10.867 -1.8618 -0.6392  2.2371
 9402TIP3    H252402   2.686   3.481  10.795  1.2592  0.6686 -0.4258
 9403TIP3   OH252403   0.279   7.146  13.525  0.2601 -0.2721  0.2873
 9403TIP3    H152404   0.274   7.215  13.459 -1.2252 -0.2016  0.4507
 9403TIP3    H252405   0.373   7.129  13.534  0.5620  0.6161 -0.8951
 9404TIP3   OH252406   4.321   6.388  11.316 -0.1558  0.4019  0.1471
 9404TIP3    H152407   4.386   6.379  11.246  0.2561  0.1868  0.5533
 9404TIP3    H252408   4.271   6.306  11.313  0.9191 -0.3276  1.1529
 9405TIP3   OH252409   3.105   1.242  12.515 -0.4968 -0.5131 -0.4494
 9405TIP3    H152410   3.151   1.222  12.597  0.5831 -1.8613 -1.3313
 9405TIP3    H252411   3.031   1.182  12.514 -2.2158  1.4681  0.8382
 9406TIP3   OH252412   0.496   5.938  11.272  0.6455 -0.3562  0.0740
 9406TIP3    H152413   0.459   6.003  11.212  0.9586 -0.7129 -0.5088
 9406TIP3    H252414   0.436   5.938  11.347 -1.0883 -1.5931 -1.2298
 9407TIP3   OH252415   4.325   5.951  10.773  0.4514 -0.3219  0.4079
 9407TIP3    H152416   4.301   6.039  10.743 -1.7480 -0.8201  0.5656
 9407TIP3    H252417   4.421   5.952  10.772  0.5161  2.1567  0.6831
 9408TIP3   OH252418   1.379   3.536  10.425  0.0340  0.6728  0.4602
 9408TIP3    H152419   1.454   3.580  10.384  1.0292  0.6663  2.1910
 9408TIP3    H252420   1.379   3.449  10.385  2.0023  0.0894  1.5751
 9409TIP3   OH252421   2.849   0.890  12.005  0.4105 -0.0800 -0.6729
 9409TIP3    H152422   2.868   0.806  11.962 -2.8176 -0.5512 -1.4000
 9409TIP3    H252423   2.844   0.953  11.934  0.0843  0.1702 -0.4299
 9410TIP3   OH252424   0.508   3.569  11.499  0.4068 -0.0366 -0.9487
 9410TIP3    H152425   0.472   3.542  11.583  0.8231  0.3696 -0.6291
 9410TIP3    H252426   0.483   3.661  11.490  0.8017  0.0693 -1.0219
 9411TIP3   OH252427   5.090   2.596  12.121 -0.3514  0.1707 -0.0221
 9411TIP3    H152428   5.105   2.506  12.151  1.1082  0.6078  0.6402
 9411TIP3    H252429   5.140   2.602  12.040 -1.1605  0.1410 -0.5340
 9412TIP3   OH252430   1.581   5.257  12.235  0.3150  0.6132 -0.5375
 9412TIP3    H152431   1.512   5.310  12.276  1.3523  0.2130  1.8886
 9412TIP3    H252432   1.568   5.169  12.269  1.0164  0.1558 -1.3997
 9413TIP3   OH252433   1.639   6.384  12.944 -0.2773 -0.1711  0.0219
 9413TIP3    H152434   1.633   6.462  13.000 -0.0464 -0.0068 -0.1779
 9413TIP3    H252435   1.581   6.402  12.871 -0.4740 -0.3266  0.1409
 9414TIP3   OH252436   6.527   2.915  11.909  0.0955 -0.7508 -0.4217
 9414TIP3    H152437   6.596   2.902  11.973  0.1312 -0.2958 -0.3664
 9414TIP3    H252438   6.448   2.883  11.952 -0.3553  1.8411  0.8412
 9415TIP3   OH252439   0.746   3.084  11.324 -0.1838  0.0384  0.5256
 9415TIP3    H152440   0.673   3.079  11.386 -0.4985 -1.2205  0.0792
 9415TIP3    H252441   0.739   3.173  11.288 -1.3736  0.0218  0.6518
 9416TIP3   OH252442   5.289   0.146  11.788 -0.2461 -0.1848 -0.0448
 9416TIP3    H152443   5.291   0.205  11.712 -1.5193 -1.4808 -1.1576
 9416TIP3    H252444   5.262   0.202  11.861  1.0706  1.1133 -0.4987
 9417TIP3   OH252445   6.165   4.375  11.410  0.4370  0.2608 -0.4129
 9417TIP3    H152446   6.193   4.303  11.353  0.3318  0.8339 -1.2045
 9417TIP3    H252447   6.175   4.341  11.498  1.7861 -0.2136 -0.7347
 9418TIP3   OH252448   3.582   5.894  12.274 -0.0871  0.3085 -0.0838
 9418TIP3    H152449   3.610   5.965  12.215 -0.2475  1.4086  1.1179
 9418TIP3    H252450   3.658   5.836  12.279  1.0623  1.7999  0.9560
 9419TIP3   OH252451   1.514   4.588  12.248 -0.5414 -0.3509  0.1300
 9419TIP3    H152452   1.423   4.558  12.248 -0.8830  0.6054  0.9592
 9419TIP3    H252453   1.544   4.574  12.338  0.1970 -0.8112 -0.1758
 9420TIP3   OH252454   1.514   2.317  11.179 -0.1485  0.2916 -0.0256
 9420TIP3    H152455   1.597   2.360  11.197  1.4101 -2.3100 -0.4082
 9420TIP3    H252456   1.537   2.244  11.120 -2.7639 -0.2850 -0.4784
 9421TIP3   OH252457   3.936   7.327  11.562 -0.1363  0.9532  0.1972
 9421TIP3    H152458   3.996   7.400  11.574  0.8904  0.1564  0.0799
 9421TIP3    H252459   3.858   7.366  11.523  1.9237  1.4810 -4.0214
 9422TIP3   OH252460   6.126   5.768  11.209  0.2545  0.1832 -0.2682
 9422TIP3    H152461   6.167   5.823  11.275 -0.0256  0.2422 -0.1394
 9422TIP3    H252462   6.195   5.751  11.145  0.4630  0.3192 -0.0816
 9423TIP3   OH252463   2.340   5.687  13.100  0.2014 -0.4337 -0.0279
 9423TIP3    H152464   2.347   5.600  13.059 -0.7080 -0.4779 -0.1112
 9423TIP3    H252465   2.312   5.669  13.190  1.4047 -0.2906  0.3977
 9424TIP3   OH252466   4.300   7.538  10.575  0.4101  0.1036 -0.3824
 9424TIP3    H152467   4.344   7.602  10.520  0.1152 -1.3683 -2.4353
 9424TIP3    H252468   4.207   7.560  10.568  0.4759  0.8828  0.8749
 9425TIP3   OH252469   1.704   7.299  11.097  0.6177 -0.5181 -0.6724
 9425TIP3    H152470   1.624   7.341  11.127  1.5030  0.3652  0.5821
 9425TIP3    H252471   1.678   7.250  11.019 -0.8624  0.7849 -1.0455
 9426TIP3   OH252472   7.306   7.098  11.423  0.4692 -0.2194 -0.1714
 9426TIP3    H152473   7.343   7.010  11.431  0.2287 -0.4097 -1.0480
 9426TIP3    H252474   7.260   7.098  11.339  0.2318  0.6616 -0.0592
 9427TIP3   OH252475   3.217   6.254  12.150 -0.1566  0.8241  0.1098
 9427TIP3    H152476   3.141   6.208  12.186 -0.1506  0.4481 -0.3503
 9427TIP3    H252477   3.292   6.211  12.190 -0.1207 -0.0746 -0.8700
 9428TIP3   OH252478   4.574   1.673  11.886  0.0180 -0.1152 -0.3345
 9428TIP3    H152479   4.497   1.726  11.906  0.5643  0.5012  0.1592
 9428TIP3    H252480   4.648   1.725  11.916  0.7209 -0.2252 -1.7707
 9429TIP3   OH252481   0.825   3.760  10.276  0.3756 -0.3960  0.0442
 9429TIP3    H152482   0.880   3.704  10.222 -1.0794 -1.0068 -0.8252
 9429TIP3    H252483   0.886   3.798  10.340  1.8951 -0.6209 -1.2267
 9430TIP3   OH252484   3.350   2.223  11.145  0.2793 -0.2928  0.0036
 9430TIP3    H152485   3.445   2.219  11.132  0.0280 -1.9699 -1.7914
 9430TIP3    H252486   3.314   2.235  11.057 -1.1618  1.4966  0.7848
 9431TIP3   OH252487   0.814   1.954  11.105  0.5402  0.1650  0.8537
 9431TIP3    H152488   0.820   1.960  11.200  0.0555 -0.7063  0.9513
 9431TIP3    H252489   0.805   1.860  11.087  3.2031 -0.0004 -0.2136
 9432TIP3   OH252490   7.105   2.663  11.699  0.2659  0.1444  0.2258
 9432TIP3    H152491   7.110   2.662  11.794 -2.4194  0.5337  0.4271
 9432TIP3    H252492   7.025   2.711  11.679 -0.1803 -1.4157 -2.1890
 9433TIP3   OH252493   5.592   7.367  13.054  0.4867 -0.2929  0.4833
 9433TIP3    H152494   5.602   7.311  13.131 -0.4820 -0.7356  0.3045
 9433TIP3    H252495   5.682   7.388  13.027  0.8477  0.2692  2.0118
 9434TIP3   OH252496   0.187   7.586  13.329 -0.0075  0.5292 -0.1712
 9434TIP3    H152497   0.147   7.643  13.263 -0.9670 -0.2076 -0.2446
 9434TIP3    H252498   0.127   7.590  13.403 -0.4861 -0.9420 -0.4481
 9435TIP3   OH252499   7.442   7.431  12.069  0.3476  0.4210  0.5289
 9435TIP3    H152500   7.361   7.456  12.025 -1.2647 -4.2943  0.2537
 9435TIP3    H252501   7.424   7.443  12.162 -0.1688  0.6591  0.4005
 9436TIP3   OH252502   1.659   3.466  11.822 -0.0575  0.2848 -0.3228
 9436TIP3    H152503   1.682   3.382  11.784 -0.7197 -0.4460  0.8369
 9436TIP3    H252504   1.677   3.456  11.916 -0.6350  1.2522 -0.0867
 9437TIP3   OH252505   6.640   5.588  12.646  0.2883  0.4601 -0.1354
 9437TIP3    H152506   6.574   5.569  12.713 -0.6484 -1.1126 -1.4323
 9437TIP3    H252507   6.669   5.502  12.616  0.3627  1.1102 -2.0479
 9438TIP3   OH252508   2.621   3.127  12.921 -0.2969 -0.5843  0.5790
 9438TIP3    H152509   2.700   3.139  12.975 -1.0934 -1.7265  2.0597
 9438TIP3    H252510   2.552   3.174  12.968 -0.5963  0.1805 -0.5693
 9439TIP3   OH252511   2.278   3.970  12.192 -0.0589 -0.1050  0.1374
 9439TIP3    H152512   2.362   3.950  12.233 -1.6437 -1.6984  2.8620
 9439TIP3    H252513   2.236   4.033  12.251 -0.6375  1.0566 -1.4318
 9440TIP3   OH252514   2.003   4.603  10.914  0.5783 -0.1839 -0.0622
 9440TIP3    H152515   2.051   4.552  10.979 -0.2314 -0.1281  0.5941
 9440TIP3    H252516   2.064   4.671  10.886  0.9809 -0.2941  0.5340
 9441TIP3   OH252517   7.334   4.161  13.538 -0.3112 -0.1845 -0.1120
 9441TIP3    H152518   7.291   4.165  13.624  1.3219  0.9202  0.7055
 9441TIP3    H252519   7.356   4.251  13.518 -1.0823 -0.3626 -1.9646
 9442TIP3   OH252520   3.993   4.892  12.328 -0.3161  0.2904  0.4079
 9442TIP3    H152521   3.907   4.859  12.302 -0.3496  0.9239 -0.3402
 9442TIP3    H252522   4.037   4.910  12.245  0.7816 -0.6247  0.7746
 9443TIP3   OH252523   6.501   4.839  12.829 -0.4532  0.5291  0.3326
 9443TIP3    H152524   6.590   4.859  12.798 -1.3258  1.9752 -1.4024
 9443TIP3    H252525   6.487   4.901  12.901 -0.1926  0.4938  0.4183
 9444TIP3   OH252526   3.955   5.972  12.545 -0.2092 -0.3045 -0.4952
 9444TIP3    H152527   3.963   5.888  12.590  1.3038  0.5675  0.9965
 9444TIP3    H252528   4.044   5.991  12.514 -0.5848  0.6276 -1.0454
 9445TIP3   OH252529   0.762   0.450  11.000  0.3936  0.3180 -0.3719
 9445TIP3    H152530   0.763   0.423  11.092 -0.7203  0.4089 -0.3118
 9445TIP3    H252531   0.843   0.415  10.964  0.5846 -0.1952  0.5122
 9446TIP3   OH252532   0.248   1.569  11.144  0.1789  0.1262 -0.6180
 9446TIP3    H152533   0.214   1.646  11.099  0.3351 -0.6256 -2.0907
 9446TIP3    H252534   0.247   1.500  11.077  1.5011 -0.7476  0.2158
 9447TIP3   OH252535   5.528   1.232  10.533  0.3400  0.1324  0.3247
 9447TIP3    H152536   5.436   1.259  10.534  0.4213  0.6090 -1.5328
 9447TIP3    H252537   5.577   1.315  10.531  0.7400 -0.1142 -0.5872
 9448TIP3   OH252538   0.743   1.175  11.821 -0.2078  0.1302 -0.3490
 9448TIP3    H152539   0.654   1.157  11.790 -0.6723 -0.2595  1.1639
 9448TIP3    H252540   0.762   1.263  11.789 -1.3972  0.4811 -0.1202
 9449TIP3   OH252541   7.287   3.857  11.679  0.0579  0.4680  0.1549
 9449TIP3    H152542   7.360   3.894  11.630  0.0398  1.2995  0.7381
 9449TIP3    H252543   7.269   3.922  11.747 -0.7437 -0.0752  0.4674
 9450TIP3   OH252544   4.758   0.808  12.941 -0.2262  0.0257  0.0699
 9450TIP3    H152545   4.765   0.714  12.957 -1.6044 -0.0004  0.6944
 9450TIP3    H252546   4.664   0.825  12.944 -0.0345  1.3267 -0.6492
 9451TIP3   OH252547   1.688   0.182  11.659 -0.3236 -0.5955  0.3488
 9451TIP3    H152548   1.621   0.176  11.727 -0.7970  0.4450  0.0147
 9451TIP3    H252549   1.727   0.269  11.671 -0.7003 -0.2147 -0.9313
 9452TIP3   OH252550   2.185   1.218  12.526 -0.4432  0.4650  0.1043
 9452TIP3    H152551   2.209   1.205  12.434 -3.0720  1.4347 -0.8260
 9452TIP3    H252552   2.177   1.130  12.562 -0.1152  0.0480 -0.8094
 9453TIP3   OH252553   5.736   2.973  12.126  0.3439  0.3754 -0.3189
 9453TIP3    H152554   5.827   3.002  12.125  0.5919 -0.2585  1.2954
 9453TIP3    H252555   5.702   2.999  12.041  1.3361  2.8184 -0.0556
 9454TIP3   OH252556   7.505   7.382  11.710 -0.2086  0.1055 -0.4705
 9454TIP3    H152557   7.411   7.373  11.700 -0.0788 -1.4139 -0.4599
 9454TIP3    H252558   7.533   7.303  11.757  0.8463  1.3317  1.0824
 9455TIP3   OH252559   7.369   5.496  12.560  0.2669  0.3799  0.1964
 9455TIP3    H152560   7.444   5.437  12.569 -0.9551 -1.0920  1.4458
 9455TIP3    H252561   7.402   5.582  12.586  1.6573 -0.1250  0.1647
 9456TIP3   OH252562   4.306   3.993  11.400 -0.6715  0.3651  0.2109
 9456TIP3    H152563   4.231   3.958  11.352 -0.5129  1.6721 -1.0690
 9456TIP3    H252564   4.378   3.990  11.336  0.0509  0.2798  1.0182
 9457TIP3   OH252565   6.651   4.313  12.810  0.2289 -0.2612  0.2198
 9457TIP3    H152566   6.689   4.247  12.751  1.3261 -0.1000  0.7245
 9457TIP3    H252567   6.608   4.261  12.878 -0.7900 -0.4464 -0.5221
 9458TIP3   OH252568   4.263   4.883  13.058 -0.9640  0.0994  0.2990
 9458TIP3    H152569   4.280   4.899  12.965 -1.6344 -0.1242  0.1325
 9458TIP3    H252570   4.293   4.963  13.101  0.7252 -0.3741  0.0584
 9459TIP3   OH252571   1.908   4.409  12.816 -0.1472  0.0676  0.3236
 9459TIP3    H152572   1.905   4.498  12.851  0.3691 -0.5695  2.1196
 9459TIP3    H252573   1.963   4.415  12.739 -1.4111  1.5732 -0.5053
 9460TIP3   OH252574   1.843   2.320  12.676 -0.3471 -0.2182  0.2173
 9460TIP3    H152575   1.930   2.326  12.637  0.4491  1.9619  2.0615
 9460TIP3    H252576   1.827   2.227  12.687  1.1482 -0.7041 -1.4020
 9461TIP3   OH252577   0.680   0.826  10.581 -0.0727 -0.8018 -0.2666
 9461TIP3    H152578   0.710   0.765  10.647 -0.3339 -0.5159  0.1224
 9461TIP3    H252579   0.610   0.876  10.624 -1.3706 -1.6998 -1.2590
 9462TIP3   OH252580   4.356   2.487  12.331 -0.3324  0.1469  0.3016
 9462TIP3    H152581   4.393   2.542  12.262  0.5369  0.4042  0.9621
 9462TIP3    H252582   4.357   2.542  12.409 -1.1578 -0.1958  0.5706
 9463TIP3   OH252583   3.198   6.686  11.535  0.0817 -0.6659  0.0970
 9463TIP3    H152584   3.248   6.605  11.522  0.8238 -0.6262  2.2962
 9463TIP3    H252585   3.122   6.659  11.586 -0.6298 -0.2380 -0.7086
 9464TIP3   OH252586   4.085   2.201  11.791 -0.1415  0.1289  0.2658
 9464TIP3    H152587   4.059   2.206  11.883 -1.9160 -0.4469 -0.1488
 9464TIP3    H252588   4.043   2.277  11.750 -0.1309 -0.1188 -0.2167
 9465TIP3   OH252589   5.053   5.777  12.964 -0.2961  0.4326  0.3161
 9465TIP3    H152590   4.977   5.721  12.949 -0.3228  1.0015 -2.0685
 9465TIP3    H252591   5.016   5.859  12.996 -0.6704  0.5684 -0.4481
 9466TIP3   OH252592   0.876   1.707  11.896 -0.6372  0.1379  0.0908
 9466TIP3    H152593   0.969   1.697  11.876 -0.8942  0.3832 -1.3537
 9466TIP3    H252594   0.860   1.645  11.967  1.1081  1.7643  2.0250
 9467TIP3   OH252595   6.192   7.383  11.498 -0.0179 -0.5088  0.2319
 9467TIP3    H152596   6.167   7.366  11.589  0.1974 -1.4372  0.1306
 9467TIP3    H252597   6.166   7.303  11.451  0.4249 -0.2819 -0.4119
 9468TIP3   OH252598   0.704   4.881  12.840  0.6926 -0.2548 -0.3065
 9468TIP3    H152599   0.619   4.924  12.834 -0.1579 -1.5798  1.5247
 9468TIP3    H252600   0.715   4.860  12.932  1.9413 -2.2252 -0.8279
 9469TIP3   OH252601   5.967   6.426  11.691 -0.0995  0.5436  0.1254
 9469TIP3    H152602   6.054   6.427  11.731 -0.5192 -1.2605  1.1727
 9469TIP3    H252603   5.977   6.479  11.611  2.2583 -0.5342 -0.3833
 9470TIP3   OH252604   1.591   6.245  13.321 -0.3866 -1.1504 -0.4887
 9470TIP3    H152605   1.505   6.216  13.289  0.6269 -3.2077 -1.5157
 9470TIP3    H252606   1.653   6.212  13.256  1.1982  0.4137  0.1609
 9471TIP3   OH252607   3.400   1.478  12.058 -0.3525  0.9944  0.4862
 9471TIP3    H152608   3.455   1.549  12.090  1.4857 -0.0007 -0.3072
 9471TIP3    H252609   3.461   1.416  12.018 -2.1352  0.2270 -1.2462
 9472TIP3   OH252610   0.180   0.749  11.978  0.3811  0.2659 -0.4039
 9472TIP3    H152611   0.221   0.685  11.920  2.2698 -0.5966  1.7458
 9472TIP3    H252612   0.235   0.750  12.056 -1.6474  1.8771  1.1288
 9473TIP3   OH252613   5.757   3.370  12.420 -0.0800  0.1414 -0.2984
 9473TIP3    H152614   5.750   3.275  12.409  0.5158  0.2011 -1.3891
 9473TIP3    H252615   5.793   3.382  12.507 -1.9275 -0.5621  0.6084
 9474TIP3   OH252616   4.806   5.424  11.959 -0.2044  0.4416 -0.2424
 9474TIP3    H152617   4.843   5.336  11.967 -1.6032 -0.2375 -0.8892
 9474TIP3    H252618   4.789   5.450  12.050  0.7272  0.2803 -0.0139
 9475TIP3   OH252619   5.555   3.942  13.054  0.3853 -0.3426  0.3549
 9475TIP3    H152620   5.571   3.858  13.098  0.8399  0.0559  0.9777
 9475TIP3    H252621   5.487   3.924  12.990  1.5116 -1.5334 -0.5626
 9476TIP3   OH252622   3.083   3.447  12.185 -0.8197  0.6156  0.6820
 9476TIP3    H152623   3.131   3.482  12.260 -0.8596 -0.1625  1.0724
 9476TIP3    H252624   3.042   3.367  12.218  0.6776 -0.7719 -0.6462
 9477TIP3   OH252625   6.825   7.196  10.657 -0.1149 -0.3950 -0.0224
 9477TIP3    H152626   6.773   7.181  10.737  0.2005 -1.4649 -0.0043
 9477TIP3    H252627   6.802   7.285  10.630 -0.3185 -0.0574  1.1972
 9478TIP3   OH252628   6.912   1.367  11.958  0.2164 -0.0277  0.2812
 9478TIP3    H152629   6.839   1.381  12.018  1.1517  0.4796  1.3274
 9478TIP3    H252630   6.954   1.453  11.951  0.6172 -0.2762 -0.4408
 9479TIP3   OH252631   1.463   3.999  11.353 -0.0858 -0.2809  0.1966
 9479TIP3    H152632   1.478   3.913  11.312 -3.3333 -0.6664 -0.4145
 9479TIP3    H252633   1.483   3.985  11.445  0.6106 -1.3414 -0.0878
 9480TIP3   OH252634   0.113   0.359  12.535  0.0096  0.4306  0.2668
 9480TIP3    H152635   0.139   0.268  12.549 -1.6011 -0.3205 -1.2724
 9480TIP3    H252636   0.052   0.377  12.606  1.2561  0.7505  1.2929
 9481TIP3   OH252637   5.636   5.750  10.928 -0.3428 -0.0755 -0.6675
 9481TIP3    H152638   5.725   5.780  10.944 -0.0685 -1.8559  1.6279
 9481TIP3    H252639   5.621   5.767  10.835  2.1905  0.7225 -0.9893
 9482TIP3   OH252640   3.400   5.258  13.065  0.1921  0.1412  0.0084
 9482TIP3    H152641   3.473   5.314  13.091 -0.4544  2.7368 -3.0548
 9482TIP3    H252642   3.324   5.316  13.067 -1.2117 -1.6064 -0.0173
 9483TIP3   OH252643   5.846   1.273  12.548  0.0083 -0.1398 -0.7222
 9483TIP3    H152644   5.839   1.305  12.638  1.2184 -1.1350 -0.2397
 9483TIP3    H252645   5.931   1.305  12.517  0.8527 -2.0074 -0.5270
 9484TIP3   OH252646   3.204   4.992  12.647  0.2573  0.2314 -0.0075
 9484TIP3    H152647   3.191   4.908  12.602  1.3249 -1.0969  2.0343
 9484TIP3    H252648   3.115   5.020  12.670 -0.3697  1.1179 -3.0519
 9485TIP3   OH252649   4.681   0.670  10.477 -0.2619 -0.1892  0.1722
 9485TIP3    H152650   4.638   0.707  10.400  0.7993  1.5092  0.3551
 9485TIP3    H252651   4.688   0.743  10.539 -0.2194 -1.2735  1.5124
 9486TIP3   OH252652   7.161   2.603  10.783  0.2274  0.2145  0.6038
 9486TIP3    H152653   7.089   2.664  10.771 -1.8387 -2.0613  0.6642
 9486TIP3    H252654   7.126   2.518  10.756  3.5603 -0.7179 -1.4812
 9487TIP3   OH252655   0.688   3.900  12.828 -0.0713 -0.8240 -0.2933
 9487TIP3    H152656   0.710   3.817  12.871  1.2100 -0.0214  0.6673
 9487TIP3    H252657   0.626   3.942  12.887 -0.8654 -1.1655 -0.8715
 9488TIP3   OH252658   0.281   3.549  10.712  0.0826 -0.5879 -0.4512
 9488TIP3    H152659   0.268   3.527  10.805  0.7414 -0.5163 -0.3370
 9488TIP3    H252660   0.268   3.643  10.708  1.2366 -0.4022 -0.2037
 9489TIP3   OH252661   0.778   3.194  13.194 -0.2796  0.4362 -0.2528
 9489TIP3    H152662   0.708   3.143  13.153  0.3466 -1.2836  0.7098
 9489TIP3    H252663   0.747   3.285  13.189 -2.3994 -0.2154 -0.2300
 9490TIP3   OH252664   2.638   5.291  12.112  0.0201  0.5206 -0.7280
 9490TIP3    H152665   2.596   5.337  12.184 -1.0883  0.4485 -1.3019
 9490TIP3    H252666   2.568   5.239  12.072  0.8761 -0.3661 -1.1225
 9491TIP3   OH252667   1.854   5.507  12.981 -0.0100  0.6579 -0.0670
 9491TIP3    H152668   1.859   5.591  13.027  0.6119  1.6336 -1.8237
 9491TIP3    H252669   1.944   5.475  12.979  0.5906  2.0915 -3.0272
 9492TIP3   OH252670   4.265   7.048  13.312  0.4625  0.4551  0.3816
 9492TIP3    H152671   4.353   7.084  13.318  2.4667 -3.0529 -3.2230
 9492TIP3    H252672   4.218   7.106  13.252  2.1473 -0.3318 -1.8160
 9493TIP3   OH252673   7.205   3.949  11.910 -0.1914 -0.0236  0.2337
 9493TIP3    H152674   7.188   4.027  11.963  0.6292  1.0807 -1.0353
 9493TIP3    H252675   7.232   3.882  11.972  1.5646  1.4590  1.1682
 9494TIP3   OH252676   6.506   4.462  11.528 -0.0303  0.1005  0.0735
 9494TIP3    H152677   6.445   4.392  11.549  1.2015 -0.3323  2.5128
 9494TIP3    H252678   6.559   4.427  11.457 -0.5646 -0.7492  0.0763
 9495TIP3   OH252679   6.395   7.014  11.209 -0.4929  0.0857 -0.8341
 9495TIP3    H152680   6.352   7.046  11.288 -1.0576  2.6015 -2.0638
 9495TIP3    H252681   6.488   7.020  11.228 -0.6073 -1.3663  0.3467
 9496TIP3   OH252682   3.139   5.928  10.711 -0.5730  0.0103  0.2643
 9496TIP3    H152683   3.094   5.860  10.660 -1.9257  1.9834 -1.3293
 9496TIP3    H252684   3.113   5.910  10.802 -2.2107 -0.6989 -0.3001
 9497TIP3   OH252685   1.544   4.976  10.781 -0.3117  0.1660 -0.2871
 9497TIP3    H152686   1.540   4.987  10.686 -1.0948  1.0929 -0.1596
 9497TIP3    H252687   1.532   5.065  10.816 -0.4305 -0.2214  0.6873
 9498TIP3   OH252688   1.059   4.870  12.992 -0.2917  0.0923  0.5737
 9498TIP3    H152689   0.985   4.928  13.012  0.0833  0.2441  1.6067
 9498TIP3    H252690   1.032   4.785  13.026  0.0942  0.2039  1.1783
 9499TIP3   OH252691   3.612   3.494  12.341 -0.9764 -0.1101 -0.7817
 9499TIP3    H152692   3.641   3.568  12.288  0.5171 -0.2866 -0.2405
 9499TIP3    H252693   3.649   3.510  12.427 -0.1455 -1.7590 -0.7967
 9500TIP3   OH252694   3.311   1.030  12.379 -0.0010  0.2661  0.2119
 9500TIP3    H152695   3.225   1.069  12.393  0.0321 -0.1052  1.6729
 9500TIP3    H252696   3.354   1.089  12.316 -1.1498  0.6948 -0.1931
 9501TIP3   OH252697   1.383   1.486  11.925  0.4762 -0.2325  0.1359
 9501TIP3    H152698   1.334   1.446  11.997  0.1252  0.3077  0.2063
 9501TIP3    H252699   1.426   1.562  11.965  3.4420 -2.0394  0.6734
 9502TIP3   OH252700   2.350   4.664  12.357  0.7613  0.3571  0.3914
 9502TIP3    H152701   2.256   4.678  12.368  0.9061  1.1035  0.7832
 9502TIP3    H252702   2.358   4.572  12.331 -0.2795  0.9251 -2.3369
 9503TIP3   OH252703   0.335   7.346  13.314 -0.1139 -0.4945  0.1357
 9503TIP3    H152704   0.279   7.424  13.304  0.0588 -0.5875 -2.1782
 9503TIP3    H252705   0.420   7.380  13.341 -0.5180 -0.0820  0.9253
 9504TIP3   OH252706   6.761   3.340  10.713  0.9026 -0.1949 -0.2511
 9504TIP3    H152707   6.845   3.382  10.694  1.1575 -0.8791 -0.6538
 9504TIP3    H252708   6.785   3.257  10.755  0.4262 -0.4114 -0.4096
 9505TIP3   OH252709   2.751   3.077  12.639  0.3679 -0.3146  0.2167
 9505TIP3    H152710   2.700   3.063  12.719 -0.1795 -1.5466 -0.3169
 9505TIP3    H252711   2.712   3.155  12.599 -1.2261 -1.2897 -0.2373
 9506TIP3   OH252712   7.045   5.117  11.808  0.1069 -0.4702 -0.0250
 9506TIP3    H152713   6.994   5.157  11.878  1.3300  1.1963 -0.0319
 9506TIP3    H252714   7.115   5.070  11.853 -0.8257 -1.9393 -0.0535
 9507TIP3   OH252715   7.060   4.970  12.794 -0.1255  0.2727 -0.6952
 9507TIP3    H152716   7.055   5.066  12.795 -0.0831  0.2716 -0.2927
 9507TIP3    H252717   7.149   4.951  12.767 -0.3600  0.3405 -1.5389
 9508TIP3   OH252718   6.642   6.056  13.109  0.3451  0.0384 -0.1591
 9508TIP3    H152719   6.591   5.979  13.084 -0.0224 -0.2045  1.2654
 9508TIP3    H252720   6.733   6.029  13.096  0.1981 -0.4388 -0.2289
 9509TIP3   OH252721   6.272   3.475  10.599  0.5802  0.4459 -0.2288
 9509TIP3    H152722   6.273   3.464  10.504  1.7491 -0.7316 -0.1008
 9509TIP3    H252723   6.364   3.485  10.624  0.2329  1.6100  0.7052
 9510TIP3   OH252724   3.557   7.637  10.943  0.1161 -0.0987  0.2974
 9510TIP3    H152725   3.652   7.636  10.956  0.0861 -1.1092  0.4936
 9510TIP3    H252726   3.534   7.546  10.927 -0.9707 -0.0050  1.2577
 9511TIP3   OH252727   1.726   3.271  13.017 -0.7382  0.4719  0.1448
 9511TIP3    H152728   1.717   3.357  12.976 -0.5842  0.5739  0.3246
 9511TIP3    H252729   1.640   3.231  13.007 -1.2249  1.1908  1.2933
 9512TIP3   OH252730   4.800   2.550  12.123 -0.0436  0.0794  0.1556
 9512TIP3    H152731   4.771   2.583  12.039  0.8889 -1.3943 -0.7972
 9512TIP3    H252732   4.895   2.560  12.122  0.1372 -1.3438  0.3684
 9513TIP3   OH252733   3.605   6.675  10.418 -0.9424 -0.0341  0.3151
 9513TIP3    H152734   3.618   6.619  10.495 -0.8300  0.8126  0.9225
 9513TIP3    H252735   3.605   6.614  10.345 -1.7707 -0.9420  1.0405
 9514TIP3   OH252736   2.099   7.554  10.782  0.1476 -0.0765  0.4312
 9514TIP3    H152737   2.148   7.616  10.837  1.4862 -0.9493  0.2618
 9514TIP3    H252738   2.007   7.569  10.805  0.5637  0.7983  1.6185
 9515TIP3   OH252739   5.068   6.377  12.722  0.4429  0.2108  0.0653
 9515TIP3    H152740   5.009   6.449  12.703 -1.2082 -0.9898  0.4035
 9515TIP3    H252741   5.011   6.306  12.751  2.0673 -0.9937  0.4777
 9516TIP3   OH252742   7.646   7.527  11.459  0.1011 -0.5831 -0.0876
 9516TIP3    H152743   7.593   7.606  11.450  1.2888  0.0679 -1.9584
 9516TIP3    H252744   7.645   7.508  11.553 -3.6017 -0.7805 -0.0089
 9517TIP3   OH252745   0.733   6.667  11.902 -0.3690  0.2805  0.2800
 9517TIP3    H152746   0.693   6.580  11.894 -1.0160  0.4234  1.6559
 9517TIP3    H252747   0.709   6.712  11.821 -0.8013 -0.5223 -0.0496
 9518TIP3   OH252748   4.702   4.255  10.719  0.0108  0.4271  0.5125
 9518TIP3    H152749   4.710   4.347  10.696 -0.4022  0.3975  0.2223
 9518TIP3    H252750   4.614   4.231  10.688  0.4367 -0.2812 -0.2027
 9519TIP3   OH252751   0.627   5.740  10.358 -0.3648  0.3096 -0.2051
 9519TIP3    H152752   0.564   5.748  10.286  0.3019 -0.0513 -0.8380
 9519TIP3    H252753   0.575   5.708  10.431 -1.3732  2.1450 -0.0548
 9520TIP3   OH252754   1.678   7.370  12.615  0.2380 -0.9587  0.4991
 9520TIP3    H152755   1.728   7.368  12.533 -0.7228 -0.0550 -0.1413
 9520TIP3    H252756   1.718   7.442  12.665 -0.1666 -0.4735  0.1405
 9521TIP3   OH252757   2.240   0.844  11.374 -0.0089 -0.4249 -0.0787
 9521TIP3    H152758   2.210   0.897  11.448 -1.1390 -0.2349 -0.6544
 9521TIP3    H252759   2.328   0.877  11.356 -1.0532  2.1377 -1.1384
 9522TIP3   OH252760   7.669   4.592  12.606 -0.2091 -0.3141  0.0017
 9522TIP3    H152761   7.718   4.556  12.531 -0.1429  0.4133 -0.3086
 9522TIP3    H252762   7.694   4.535  12.679  0.2077 -0.6585 -0.3942
 9523TIP3   OH252763   6.275   4.627  13.135 -0.1378 -0.7688 -0.1526
 9523TIP3    H152764   6.251   4.692  13.069 -1.6786 -0.5679  0.5612
 9523TIP3    H252765   6.364   4.601  13.112 -0.2058  0.1701 -1.5930
 9524TIP3   OH252766   6.161   2.778  12.157  0.1829 -0.2801 -0.4519
 9524TIP3    H152767   6.090   2.838  12.178 -0.7398 -1.1367 -1.0438
 9524TIP3    H252768   6.176   2.790  12.063 -0.0340 -0.9817 -0.5843
 9525TIP3   OH252769   4.072   6.971  13.509 -0.2406  0.0344 -0.1404
 9525TIP3    H152770   4.031   7.050  13.544 -1.3332 -0.8407  0.6357
 9525TIP3    H252771   4.135   7.003  13.444 -1.7029  1.4609 -0.9121
 9526TIP3   OH252772   5.098   7.141  10.664  0.3152  0.0094  0.2876
 9526TIP3    H152773   5.127   7.228  10.637 -0.7334  0.7402  1.4511
 9526TIP3    H252774   5.092   7.145  10.759 -2.9387 -0.2476  0.2094
 9527TIP3   OH252775   3.470   0.847  11.510  0.2617  0.2500 -0.3127
 9527TIP3    H152776   3.491   0.854  11.603  1.8546 -0.4684 -0.5809
 9527TIP3    H252777   3.448   0.936  11.483  0.3538  0.5649  0.6252
 9528TIP3   OH252778   7.209   1.042  11.378  0.0912  0.0180 -1.2119
 9528TIP3    H152779   7.208   1.135  11.400 -2.2193 -0.5811  1.9753
 9528TIP3    H252780   7.117   1.019  11.365  0.4150 -2.0820 -0.3394
 9529TIP3   OH252781   6.910   0.046  10.708 -0.1683  0.4905 -0.3433
 9529TIP3    H152782   6.880   0.050  10.799 -0.1265  1.5877 -0.3548
 9529TIP3    H252783   6.993   0.094  10.709 -0.7130  1.4931 -1.1488
 9530TIP3   OH252784   4.467   6.931  12.107 -0.1435  0.7324  0.5475
 9530TIP3    H152785   4.385   6.970  12.078  0.6086  1.5157 -0.6279
 9530TIP3    H252786   4.509   7.000  12.159 -0.2843  0.2849  1.2701
 9531TIP3   OH252787   3.112   3.709  10.402 -0.2913  0.1358  0.1422
 9531TIP3    H152788   3.057   3.682  10.476  0.3131  0.2242  0.6371
 9531TIP3    H252789   3.063   3.779  10.359 -1.2211 -0.7530 -0.2933
 9532TIP3   OH252790   7.383   5.580  10.791  0.1374 -0.6229 -0.5315
 9532TIP3    H152791   7.411   5.671  10.804 -1.4668 -0.4064  1.8656
 9532TIP3    H252792   7.430   5.553  10.712  1.8101  1.7996 -0.5006
 9533TIP3   OH252793   4.626   7.520  12.670 -0.4092  0.3291 -0.0412
 9533TIP3    H152794   4.614   7.455  12.600  0.5257 -0.3203  0.3766
 9533TIP3    H252795   4.658   7.468  12.745  0.5795  1.3076  0.2316
 9534TIP3   OH252796   0.541   3.702  11.984 -0.3777 -0.0026 -0.4228
 9534TIP3    H152797   0.634   3.717  12.000 -0.2935  0.2688 -1.1107
 9534TIP3    H252798   0.497   3.736  12.062  0.0189  1.1063 -0.6563
 9535TIP3   OH252799   2.391   4.347  11.036  0.5737  0.5488 -0.1344
 9535TIP3    H152800   2.393   4.333  10.941 -1.2700 -2.2363  0.0970
 9535TIP3    H252801   2.306   4.389  11.052  0.7695  0.7860  0.2806
 9536TIP3   OH252802   6.984   0.790  12.446  0.4269 -0.5377 -0.6092
 9536TIP3    H152803   7.075   0.782  12.473  0.0190 -1.1465  0.6262
 9536TIP3    H252804   6.972   0.721  12.380  1.4451  1.0134 -2.5527
 9537TIP3   OH252805   5.298   7.017  11.773  0.5261  0.3681 -0.3253
 9537TIP3    H152806   5.224   7.040  11.716  0.7754  0.7965 -0.4751
 9537TIP3    H252807   5.277   6.928  11.803  1.0749 -0.4635 -2.2116
 9538TIP3   OH252808   6.497   4.564  11.780  0.2547  0.1057  0.2299
 9538TIP3    H152809   6.507   4.551  11.686  2.7582  1.1330  0.2780
 9538TIP3    H252810   6.530   4.484  11.820 -0.1035 -0.0313  0.2544
 9539TIP3   OH252811   2.924   0.453  10.600 -0.0204  0.1438  0.4802
 9539TIP3    H152812   2.865   0.506  10.653 -1.1672 -0.0739 -0.5350
 9539TIP3    H252813   2.938   0.374  10.653 -3.0269 -1.1336 -0.4098
 9540TIP3   OH252814   6.687   7.066  11.227  0.0151  0.6383 -0.9427
 9540TIP3    H152815   6.772   7.052  11.185  0.0431 -1.4923 -0.3030
 9540TIP3    H252816   6.709   7.085  11.318 -0.1838 -0.6135 -0.6175
 9541TIP3   OH252817   6.666   2.377  11.925  0.4212 -0.2401 -0.3226
 9541TIP3    H152818   6.747   2.429  11.925  0.2614  0.1437  2.1797
 9541TIP3    H252819   6.598   2.440  11.903  0.5133  0.0970  0.3116
 9542TIP3   OH252820   4.992   0.591  12.861 -0.0330 -0.2938  0.2325
 9542TIP3    H152821   5.070   0.543  12.890 -0.1699  0.8224  2.6934
 9542TIP3    H252822   5.008   0.681  12.889 -1.3341  0.3869 -1.0954
 9543TIP3   OH252823   1.804   6.813  12.984 -0.0427 -0.9452  0.0463
 9543TIP3    H152824   1.877   6.808  13.045 -0.4310  0.0861  0.6209
 9543TIP3    H252825   1.826   6.751  12.915  0.0464 -2.7271  1.5925
 9544TIP3   OH252826   6.157   1.622  11.543  0.5556  0.8207  0.0858
 9544TIP3    H152827   6.201   1.555  11.491  0.6291  3.3567 -3.4688
 9544TIP3    H252828   6.067   1.592  11.550  0.3712  0.6480 -2.2295
 9545TIP3   OH252829   1.652   3.169  12.172  0.6524 -0.3907 -0.2057
 9545TIP3    H152830   1.644   3.076  12.151 -2.5873 -0.3883  0.4615
 9545TIP3    H252831   1.695   3.171  12.258 -1.8772 -1.5505  1.1923
 9546TIP3   OH252832   6.702   3.542  12.922  0.1955  0.1125 -0.4620
 9546TIP3    H152833   6.666   3.615  12.872 -0.8490  0.1104  0.2604
 9546TIP3    H252834   6.701   3.572  13.013  0.9601 -0.3305 -0.2993
 9547TIP3   OH252835   1.028   2.698  11.569 -0.2934 -0.3782 -0.1726
 9547TIP3    H152836   1.024   2.709  11.664  0.0424  0.3898 -0.2389
 9547TIP3    H252837   1.021   2.787  11.534 -1.7216 -0.7462 -0.9184
 9548TIP3   OH252838   5.117   6.133  10.911 -0.4681  0.0949  0.3865
 9548TIP3    H152839   5.147   6.109  10.824  0.7418 -2.6870  1.4338
 9548TIP3    H252840   5.195   6.167  10.955 -0.9261  0.8980  0.6129
 9549TIP3   OH252841   1.846   0.425  10.235 -0.4414 -0.1861  0.2967
 9549TIP3    H152842   1.873   0.441  10.145 -1.6574 -0.5990 -0.1696
 9549TIP3    H252843   1.840   0.512  10.275 -0.6064  0.0512 -0.2420
 9550TIP3   OH252844   1.448   1.910  11.452  0.0573  0.3678  0.1982
 9550TIP3    H152845   1.539   1.903  11.423 -0.8182 -0.9689 -2.6384
 9550TIP3    H252846   1.419   1.820  11.463 -0.8271  0.7889  1.5888
 9551TIP3   OH252847   5.487   4.880  11.800  0.2923 -0.5216 -0.1614
 9551TIP3    H152848   5.501   4.825  11.722 -0.2700 -1.1616  0.1783
 9551TIP3    H252849   5.557   4.854  11.860  1.7616  1.1684 -1.0700
 9552TIP3   OH252850   6.164   2.675  12.464 -1.4361  0.2746 -0.1287
 9552TIP3    H152851   6.156   2.610  12.395 -0.5446 -0.5256  0.4954
 9552TIP3    H252852   6.245   2.721  12.445 -0.4901 -0.8175  1.0533
 9553TIP3   OH252853   2.199   0.281  11.251  0.2930  0.0643  0.1868
 9553TIP3    H152854   2.154   0.197  11.259 -0.4171  0.2603 -1.4293
 9553TIP3    H252855   2.257   0.284  11.327 -1.2613 -0.9001  1.4770
 9554TIP3   OH252856   5.219   6.571  10.856  0.4151  0.3367  0.6540
 9554TIP3    H152857   5.131   6.559  10.892  0.4195 -1.4823  0.1679
 9554TIP3    H252858   5.227   6.665  10.844 -2.4336  0.4535 -1.5878
 9555TIP3   OH252859   6.208   4.384  10.973 -0.2278 -0.5631 -0.2064
 9555TIP3    H152860   6.153   4.455  10.940 -1.3200 -0.9121  0.7833
 9555TIP3    H252861   6.283   4.429  11.013 -0.0188 -0.0601 -1.1367
 9556TIP3   OH252862   5.439   1.013  11.822  0.0880 -0.3697 -0.0446
 9556TIP3    H152863   5.384   1.083  11.787  1.4816  0.7043 -0.1853
 9556TIP3    H252864   5.420   1.012  11.916  2.0927  2.2569  0.5355
 9557TIP3   OH252865   6.900   4.300  10.780 -0.9786 -0.7853  0.2215
 9557TIP3    H152866   6.983   4.260  10.757 -1.7587 -1.6875 -1.2057
 9557TIP3    H252867   6.837   4.261  10.719 -2.4153 -0.0061  1.1451
 9558TIP3   OH252868   3.309   6.095  12.350 -0.6300  0.0590  0.5847
 9558TIP3    H152869   3.241   6.143  12.398  0.5187  1.3561  0.9964
 9558TIP3    H252870   3.383   6.091  12.411 -0.2540 -1.1622  0.0794
 9559TIP3   OH252871   3.274   6.694  12.464  0.0417 -0.0923  0.0250
 9559TIP3    H152872   3.275   6.619  12.405 -0.1733  0.3216 -0.5073
 9559TIP3    H252873   3.215   6.757  12.423  0.7518  0.6491  0.1118
 9560TIP3   OH252874   5.605   2.681  11.921  0.3852 -0.0419 -0.3806
 9560TIP3    H152875   5.663   2.756  11.925 -0.4879  0.5893  1.0663
 9560TIP3    H252876   5.529   2.711  11.871  0.3578 -0.2090 -0.4437
 9561TIP3   OH252877   5.745   7.189  13.216 -0.2107 -0.7232  0.0740
 9561TIP3    H152878   5.818   7.135  13.245 -0.7496 -1.3280  0.3538
 9561TIP3    H252879   5.673   7.126  13.203 -0.6664 -0.1523 -0.2330
 9562TIP3   OH252880   4.010   3.620  11.899 -0.5223 -0.0723  0.8616
 9562TIP3    H152881   3.983   3.672  11.823  1.8714  0.9690  0.6415
 9562TIP3    H252882   4.104   3.607  11.888 -0.0730  0.1286  3.6217
 9563TIP3   OH252883   6.976   5.548  11.837 -0.3904  0.5349 -0.3849
 9563TIP3    H152884   6.898   5.505  11.804 -1.5000  1.5624  0.7856
 9563TIP3    H252885   6.961   5.641  11.820  0.9339  0.6889 -0.8273
 9564TIP3   OH252886   1.355   2.011  12.009  0.2835  0.1773 -0.2761
 9564TIP3    H152887   1.325   1.967  11.930 -0.7721 -1.4054  0.9483
 9564TIP3    H252888   1.445   2.039  11.989  0.3204 -0.9145 -1.7363
 9565TIP3   OH252889   4.992   5.639  11.505  0.2206  0.1612  0.2152
 9565TIP3    H152890   4.997   5.620  11.599  0.6344  2.4016  0.7038
 9565TIP3    H252891   4.900   5.627  11.482 -0.1522  0.9207  1.2430
 9566TIP3   OH252892   0.723   6.482  10.491 -0.0993 -0.4748 -0.0820
 9566TIP3    H152893   0.719   6.412  10.425 -0.1216  3.0857 -4.2842
 9566TIP3    H252894   0.814   6.509  10.491 -0.0967 -0.4194  1.4843
 9567TIP3   OH252895   0.876   6.509  11.623 -0.2028 -0.6161  0.1208
 9567TIP3    H152896   0.815   6.462  11.680  0.2230 -1.4116 -0.0759
 9567TIP3    H252897   0.891   6.450  11.549  0.2345 -0.1165 -0.2019
 9568TIP3   OH252898   0.631   7.517  10.538  0.4810  0.1422  0.4339
 9568TIP3    H152899   0.674   7.435  10.515  3.2777  1.0766  1.8686
 9568TIP3    H252900   0.612   7.509  10.631 -0.5523  0.5992  0.2745
 9569TIP3   OH252901   1.241   3.416  10.989 -0.1938  0.2815  0.3178
 9569TIP3    H152902   1.229   3.500  11.032 -0.4581 -0.2208  1.2377
 9569TIP3    H252903   1.321   3.380  11.027 -1.2421 -0.8500  1.5734
 9570TIP3   OH252904   5.496   2.818  11.207 -0.1922  0.0392  0.4474
 9570TIP3    H152905   5.590   2.822  11.189 -0.2895  0.8739  0.0729
 9570TIP3    H252906   5.487   2.850  11.297 -0.0317 -1.0406  0.8731
 9571TIP3   OH252907   3.893   3.613  12.143 -0.9470 -0.7436 -0.2230
 9571TIP3    H152908   3.938   3.637  12.062  0.3058 -0.9370  0.3868
 9571TIP3    H252909   3.905   3.519  12.151  2.3109 -0.3130  2.0322
 9572TIP3   OH252910   4.652   2.841  12.160 -0.2104 -0.4051  0.3431
 9572TIP3    H152911   4.627   2.814  12.248  1.2445 -1.9966  0.3217
 9572TIP3    H252912   4.748   2.839  12.160 -0.1314  1.1328 -0.8299
 9573TIP3   OH252913   6.649   7.106  12.854  0.2996  0.5542  0.1291
 9573TIP3    H152914   6.609   7.177  12.804  0.1776  0.5596  0.2343
 9573TIP3    H252915   6.600   7.104  12.936 -0.5704 -0.5143 -0.3973
 9574TIP3   OH252916   1.474   7.597  10.841 -0.6092  0.2347 -0.2547
 9574TIP3    H152917   1.552   7.544  10.825 -0.7734 -1.0513  2.6671
 9574TIP3    H252918   1.507   7.681  10.872 -0.3331 -0.4367  1.3471
 9575TIP3   OH252919   4.565   6.334  11.589  0.0419 -0.9050 -0.0162
 9575TIP3    H152920   4.578   6.313  11.682 -1.1867 -1.1725  0.1165
 9575TIP3    H252921   4.484   6.385  11.587  0.6935  0.1431 -0.8252
 9576TIP3   OH252922   6.583   2.767  11.673  0.1339 -0.6847  0.2967
 9576TIP3    H152923   6.615   2.798  11.588  0.2885 -1.4472  0.0719
 9576TIP3    H252924   6.556   2.847  11.719 -1.0249 -0.3407 -0.9043
 9577TIP3   OH252925   1.816   7.613  10.715 -0.1916 -0.8184 -0.3844
 9577TIP3    H152926   1.877   7.582  10.647 -0.6425 -1.3803 -0.5436
 9577TIP3    H252927   1.848   7.700  10.738 -0.5322 -0.2313 -1.9586
 9578TIP3   OH252928   0.123   5.016  11.354  0.1033  0.1159  0.5177
 9578TIP3    H152929   0.121   5.018  11.258  2.0338 -2.3113  0.3079
 9578TIP3    H252930   0.051   4.958  11.379 -0.2063  0.5007  0.5248
 9579TIP3   OH252931   4.998   0.315  10.894  0.1049  0.5445 -0.2144
 9579TIP3    H152932   4.994   0.310  10.989  0.8320 -0.8698 -0.2326
 9579TIP3    H252933   5.002   0.409  10.874 -2.5766  1.0064  1.0025
 9580TIP3   OH252934   6.838   6.847  13.036  0.2866 -0.5395  0.2964
 9580TIP3    H152935   6.855   6.758  13.068  1.7470  0.0333  1.2337
 9580TIP3    H252936   6.770   6.881  13.095 -0.5107 -1.1083 -0.2622
 9581TIP3   OH252937   2.667   5.704  11.473 -0.1218  0.3166 -0.3059
 9581TIP3    H152938   2.682   5.799  11.473  0.5914  0.2167 -1.2472
 9581TIP3    H252939   2.742   5.668  11.522 -0.4364  0.2426  0.1241
 9582TIP3   OH252940   7.513   7.033  12.397 -0.1039 -0.3076 -0.0296
 9582TIP3    H152941   7.472   7.106  12.351 -0.1437 -0.3681 -0.0910
 9582TIP3    H252942   7.516   6.962  12.333  0.3752 -0.2090 -0.1175
 9583TIP3   OH252943   1.957   0.191  10.698  0.2143  0.1124  0.2990
 9583TIP3    H152944   1.896   0.237  10.640 -1.6993 -2.5997 -0.0303
 9583TIP3    H252945   2.028   0.161  10.640 -1.0751 -1.5298 -0.5210
 9584TIP3   OH252946   2.374   4.322  10.716 -0.3325 -0.4051  0.4426
 9584TIP3    H152947   2.347   4.289  10.630  1.1587  0.5427 -0.4299
 9584TIP3    H252948   2.439   4.259  10.747  0.8504  0.4555 -0.2086
 9585TIP3   OH252949   7.531   7.086  12.654 -0.3938  0.2462  0.2411
 9585TIP3    H152950   7.447   7.055  12.689  2.0107 -4.6439  2.6716
 9585TIP3    H252951   7.533   7.052  12.565 -0.9313  0.3599  0.1770
 9586TIP3   OH252952   5.754   2.888  11.317  0.1403  0.0560 -0.3378
 9586TIP3    H152953   5.843   2.870  11.287  0.0697  0.4986 -0.8523
 9586TIP3    H252954   5.760   2.893  11.412  0.5771 -0.3747 -0.3411
 9587TIP3   OH252955   5.509   4.800  11.153 -0.2179  0.1808 -0.5393
 9587TIP3    H152956   5.467   4.792  11.067  0.4602  0.8556 -0.9562
 9587TIP3    H252957   5.526   4.893  11.162  2.4180 -0.1633 -1.0469
 9588TIP3   OH252958   0.058   1.120  12.116  0.0936 -0.0486 -0.4794
 9588TIP3    H152959   0.108   1.199  12.134  0.4100 -0.1445 -0.9504
 9588TIP3    H252960  -0.008   1.117  12.186  0.1059  0.6061 -0.4385
 9589TIP3   OH252961   7.354   4.013  13.303  0.2117 -0.3033 -0.2250
 9589TIP3    H152962   7.378   4.061  13.382  2.0186  0.6116 -1.2496
 9589TIP3    H252963   7.294   4.071  13.257  1.0978  0.3038 -0.6638
 9590TIP3   OH252964   7.178   4.632  10.817 -0.1924  0.1695 -0.1292
 9590TIP3    H152965   7.219   4.548  10.838  1.5828  0.1499 -3.0836
 9590TIP3    H252966   7.088   4.609  10.793  0.6652 -1.2557 -2.3948
 9591TIP3   OH252967   3.875   2.096  12.702  0.3546 -0.1937  0.3814
 9591TIP3    H152968   3.959   2.056  12.723  0.3963 -0.0763  0.4427
 9591TIP3    H252969   3.823   2.026  12.664  0.6428 -0.1539 -0.0834
 9592TIP3   OH252970   3.972   7.225  13.552  0.0545  0.4571  0.3944
 9592TIP3    H152971   4.030   7.298  13.576 -0.3171  0.3552  1.6273
 9592TIP3    H252972   3.886   7.250  13.584 -0.0960 -0.4837  0.7688
 9593TIP3   OH252973   5.485   5.137  11.317  0.6270 -0.3440  0.0781
 9593TIP3    H152974   5.450   5.118  11.230  1.7923  0.5945 -0.6348
 9593TIP3    H252975   5.577   5.160  11.301  1.1351 -1.1457  1.6880
 9594TIP3   OH252976   6.707   5.797  12.485  0.0740  0.1263 -0.4190
 9594TIP3    H152977   6.793   5.779  12.448  1.0702  2.7949  0.3377
 9594TIP3    H252978   6.688   5.720  12.538  1.5670 -0.9313 -1.3324
 9595TIP3   OH252979   4.750   2.686  11.876 -0.2390 -0.0469  0.4807
 9595TIP3    H152980   4.748   2.780  11.892  1.9898  0.4650 -1.6788
 9595TIP3    H252981   4.670   2.669  11.827 -1.4576  0.3544  2.2142
 9596TIP3   OH252982   6.808   5.038  12.126  0.3476 -0.3481  0.3342
 9596TIP3    H152983   6.879   5.079  12.175  1.4406 -0.1301 -1.3526
 9596TIP3    H252984   6.773   5.108  12.072 -1.1051 -0.4877  1.0522
 9597TIP3   OH252985   2.507   7.320  10.600 -0.2758 -0.2688 -0.0301
 9597TIP3    H152986   2.473   7.318  10.690 -0.3405 -0.0377 -0.0485
 9597TIP3    H252987   2.595   7.358  10.609 -0.6316  0.5995 -0.1733
 9598TIP3   OH252988   5.099   0.936  10.124  0.2200  0.1993 -0.1460
 9598TIP3    H152989   5.077   0.966  10.212  0.8176 -0.5977  0.2878
 9598TIP3    H252990   5.027   0.967  10.069 -0.2408  0.5567  0.6508
 9599TIP3   OH252991   1.517   2.592  13.492  0.0203  0.0314 -0.5215
 9599TIP3    H152992   1.547   2.624  13.577 -0.0248 -1.7811  0.2315
 9599TIP3    H252993   1.430   2.556  13.509 -0.3130  0.3423 -1.5104
 9600TIP3   OH252994   0.240   6.402  13.597  0.0696  0.1588  0.5132
 9600TIP3    H152995   0.262   6.485  13.638  1.1266 -0.1497  0.5988
 9600TIP3    H252996   0.247   6.337  13.667  0.5127 -0.1732  0.1725
 9601TIP3   OH252997   0.024   1.883  11.318  0.2190  0.4928 -0.0071
 9601TIP3    H152998  -0.019   1.952  11.268  0.4528  0.0399 -0.8533
 9601TIP3    H252999   0.101   1.925  11.356  0.1871  0.7723 -0.2500
 9602TIP3   OH253000   2.242   2.884  12.213 -0.1987  0.0947 -0.2481
 9602TIP3    H153001   2.175   2.892  12.281 -0.7457  0.2899 -0.7888
 9602TIP3    H253002   2.217   2.805  12.164 -0.3144  0.4260 -0.7393
 9603TIP3   OH253003   6.651   3.551  12.034  0.1483  0.1840  0.0611
 9603TIP3    H153004   6.737   3.518  12.008  0.5694 -0.4201  1.9978
 9603TIP3    H253005   6.659   3.646  12.029 -0.5412  0.2049 -3.9726
 9604TIP3   OH253006   4.116   6.422  13.264 -0.2126  0.1715 -0.5345
 9604TIP3    H153007   4.117   6.464  13.350 -1.8170  0.2735 -0.5292
 9604TIP3    H253008   4.061   6.479  13.210 -0.0778 -0.4401 -1.3428
 9605TIP3   OH253009   4.924   2.510  11.129 -0.3624  0.1939  0.4494
 9605TIP3    H153010   4.946   2.441  11.191 -0.4876  1.1250  1.5769
 9605TIP3    H253011   4.916   2.466  11.045  1.2768 -0.8821  0.8176
 9606TIP3   OH253012   6.832   5.506  12.149 -0.2868  0.5692 -0.8708
 9606TIP3    H153013   6.743   5.540  12.141 -0.1310  1.0693 -0.4881
 9606TIP3    H253014   6.839   5.477  12.240  0.2965  1.5491 -0.5972
 9607TIP3   OH253015   1.280   6.471  10.721 -0.1378  0.1036 -0.1465
 9607TIP3    H153016   1.215   6.541  10.733 -0.1443 -0.0188  0.5682
 9607TIP3    H253017   1.359   6.503  10.764  0.5665  0.6269 -1.7779
 9608TIP3   OH253018   6.828   6.469  12.792 -0.0451 -0.5176 -0.5468
 9608TIP3    H153019   6.838   6.496  12.884  0.3030 -0.6638 -0.5394
 9608TIP3    H253020   6.771   6.536  12.754 -2.6890 -2.0085  0.4813
 9609TIP3   OH253021   1.879   3.720  12.762 -0.1536 -0.1478  0.2023
 9609TIP3    H153022   1.960   3.742  12.716 -0.0336 -1.8483 -0.4700
 9609TIP3    H253023   1.882   3.773  12.842  0.7592  1.1198 -0.6379
 9610TIP3   OH253024   5.492   6.466  13.227  0.3411  0.3555 -0.0537
 9610TIP3    H153025   5.403   6.460  13.262 -0.2616  1.0205 -1.4042
 9610TIP3    H253026   5.521   6.375  13.220 -1.1802 -0.0568 -1.8650
 9611TIP3   OH253027   3.417   1.785  11.294 -0.3947  0.4896 -0.0337
 9611TIP3    H153028   3.341   1.838  11.271 -0.1574 -0.0497 -2.2588
 9611TIP3    H253029   3.486   1.815  11.235 -0.1829 -2.0466 -1.2207
 9612TIP3   OH253030   3.021   0.611  11.136 -0.3848 -0.2313  0.1568
 9612TIP3    H153031   3.069   0.691  11.115  2.1516 -1.3748  1.0794
 9612TIP3    H253032   3.044   0.550  11.065 -0.6666 -0.7304  0.4840
 9613TIP3   OH253033   7.323   3.130  11.417 -0.4029  0.1041  0.3943
 9613TIP3    H153034   7.282   3.084  11.491 -0.5397 -0.0715  0.2079
 9613TIP3    H253035   7.286   3.089  11.339  0.4235 -0.3242  0.2168
 9614TIP3   OH253036   4.528   5.555  11.140  0.4373  0.4849 -0.1094
 9614TIP3    H153037   4.520   5.580  11.232  3.1318  3.5797 -0.5338
 9614TIP3    H253038   4.463   5.608  11.095 -0.0106 -0.0916 -0.1598
 9615TIP3   OH253039   2.592   0.090  12.638  0.2178 -0.4581 -0.6436
 9615TIP3    H153040   2.560   0.128  12.720 -2.0711 -0.9215 -1.2502
 9615TIP3    H253041   2.610  -0.002  12.660 -2.3476 -1.1271 -1.0358
 9616TIP3   OH253042   1.449   6.109  11.854  0.4071 -0.6865  0.9811
 9616TIP3    H153043   1.394   6.102  11.932  0.9465 -1.5206  1.2980
 9616TIP3    H253044   1.430   6.030  11.804  0.2912 -0.3032  0.4152
 9617TIP3   OH253045   7.578   3.380  11.358  0.7606 -0.0020 -0.4215
 9617TIP3    H153046   7.652   3.435  11.385  2.1357 -1.5555 -0.8808
 9617TIP3    H253047   7.591   3.298  11.406 -1.6015  0.2318  0.7425
 9618TIP3   OH253048   1.867   4.922  10.556 -0.3008  0.5652  0.1828
 9618TIP3    H153049   1.781   4.905  10.595 -0.1866  2.2261  1.2554
 9618TIP3    H253050   1.895   5.005  10.595  2.4954 -0.6690  1.0811
 9619TIP3   OH253051   3.519   5.238  13.436 -0.2504 -0.4078 -0.2056
 9619TIP3    H153052   3.559   5.286  13.363  0.7551 -1.3517 -0.3045
 9619TIP3    H253053   3.433   5.212  13.404 -0.9205  1.4839 -0.0728
 9620TIP3   OH253054   1.763   4.964  11.885  0.1160 -0.2099 -0.5066
 9620TIP3    H153055   1.717   4.906  11.946 -0.1344 -0.0920 -0.5842
 9620TIP3    H253056   1.843   4.916  11.863 -0.6859 -1.1092 -1.5734
 9621TIP3   OH253057   4.280   5.761  11.629 -0.8965  0.4874  0.1866
 9621TIP3    H153058   4.282   5.668  11.652 -1.4076  0.7015  1.1488
 9621TIP3    H253059   4.192   5.790  11.653 -1.5013  0.7341 -2.1285
 9622TIP3   OH253060   1.446   2.752  10.767  0.0785  0.0508 -0.2876
 9622TIP3    H153061   1.412   2.821  10.710 -1.9490 -0.3993  0.2803
 9622TIP3    H253062   1.393   2.759  10.846  1.7807 -0.3390  0.9388
 9623TIP3   OH253063   2.439   3.018  12.346 -0.3442  0.2248 -0.3334
 9623TIP3    H153064   2.400   2.959  12.281 -0.1364 -1.8715  1.3355
 9623TIP3    H253065   2.366   3.075  12.373 -1.5561 -1.6290  0.5415
 9624TIP3   OH253066   1.593   4.826  12.084 -0.0215 -0.2051  0.5386
 9624TIP3    H153067   1.616   4.737  12.110  0.1234 -0.6931 -1.1388
 9624TIP3    H253068   1.530   4.855  12.151 -0.4736 -1.7509  0.8228
 9625TIP3   OH253069   6.204   5.218  11.587  0.8422 -0.4722  0.5592
 9625TIP3    H153070   6.234   5.208  11.677 -1.7842  0.3654  1.6101
 9625TIP3    H253071   6.163   5.305  11.585  1.3050 -0.2376 -1.6141
 9626TIP3   OH253072   2.961   1.081  12.877 -0.6436  0.0813 -0.0973
 9626TIP3    H153073   2.932   1.007  12.929 -0.0023 -0.1917 -0.1196
 9626TIP3    H253074   2.981   1.149  12.941 -2.0132  0.5335 -0.1173
 9627TIP3   OH253075   0.958   2.177  11.261  0.0120 -0.3112 -0.1122
 9627TIP3    H153076   0.955   2.106  11.325 -1.5603 -0.6259 -0.4866
 9627TIP3    H253077   0.973   2.132  11.177 -0.4227 -0.1644 -0.2733
 9628TIP3   OH253078   1.662   4.697  10.592  0.4768 -0.4738 -0.7557
 9628TIP3    H153079   1.727   4.627  10.588  0.4959 -0.4184 -2.0225
 9628TIP3    H253080   1.662   4.725  10.683  1.3838 -1.2643 -0.4942
 9629TIP3   OH253081   4.522   5.441  10.806  0.4666  0.5164 -0.5375
 9629TIP3    H153082   4.484   5.526  10.828  1.8900  1.0232  0.0959
 9629TIP3    H253083   4.493   5.425  10.716 -0.7270  1.1380 -0.2912
 9630TIP3   OH253084   2.752   4.520  11.616 -0.2199 -0.4112  0.0321
 9630TIP3    H153085   2.760   4.429  11.590 -0.6654 -0.4545  0.0454
 9630TIP3    H253086   2.670   4.550  11.576 -0.9507 -0.5014  1.4054
 9631TIP3   OH253087   5.481   7.275  12.004  0.5511  0.0472 -0.2042
 9631TIP3    H153088   5.489   7.190  12.047  0.0978 -0.1074 -0.4119
 9631TIP3    H253089   5.542   7.332  12.051  0.3835 -0.2266  0.3582
 9632TIP3   OH253090   5.289   3.355  13.262  0.2749 -0.0985 -0.3180
 9632TIP3    H153091   5.206   3.317  13.233 -1.5425  3.2503 -0.0413
 9632TIP3    H253092   5.270   3.388  13.350  1.1164  2.7166 -1.1059
 9633TIP3   OH253093   1.131   7.046  12.782  0.3350  0.4826  0.0787
 9633TIP3    H153094   1.181   7.114  12.825  1.9794  0.2956 -1.4339
 9633TIP3    H253095   1.046   7.087  12.762 -0.0190  0.9326  2.2888
 9634TIP3   OH253096   5.280   5.143  12.935 -0.2392  0.0409  0.0092
 9634TIP3    H153097   5.281   5.155  12.840  2.7934  1.1320  0.0978
 9634TIP3    H253098   5.209   5.080  12.950 -2.0925  1.2958 -2.7347
 9635TIP3   OH253099   0.507   3.493  12.444  0.3158 -0.3208 -0.4311
 9635TIP3    H153100   0.413   3.494  12.462  0.4056 -1.7859  0.3319
 9635TIP3    H253101   0.519   3.418  12.385  1.2020 -1.3626  0.9917
 9636TIP3   OH253102   1.385   3.856  12.300  0.9404  0.8436 -0.4065
 9636TIP3    H153103   1.385   3.832  12.393  2.5173 -2.5926 -1.1052
 9636TIP3    H253104   1.293   3.872  12.279  0.0657 -1.5949  1.1129
 9637TIP3   OH253105   6.073   0.119  10.676  0.2899  0.5912  0.5059
 9637TIP3    H153106   6.088   0.165  10.759  0.6467  2.0664 -0.3446
 9637TIP3    H253107   5.999   0.165  10.636  0.5058  0.2764 -0.2647
 9638TIP3   OH253108   5.144   5.593  10.657  0.2791  0.2094  0.6024
 9638TIP3    H153109   5.070   5.590  10.596 -0.3119  0.7850  1.2718
 9638TIP3    H253110   5.122   5.526  10.723  0.9456 -0.4574  0.1595
 9639TIP3   OH253111   6.780   1.702  11.055 -0.3750 -0.3011 -0.1516
 9639TIP3    H153112   6.805   1.725  11.144 -1.4984 -3.5171  1.1302
 9639TIP3    H253113   6.830   1.762  11.000  0.3407  1.8143  2.5989
 9640TIP3   OH253114   1.544   7.437  12.151  0.2548 -0.2763  0.3496
 9640TIP3    H153115   1.500   7.369  12.202  2.2073 -1.1375  0.9599
 9640TIP3    H253116   1.600   7.389  12.090 -0.5151  0.7783 -1.2488
 9641TIP3   OH253117   0.571   4.506  11.846 -0.0626 -0.5141 -0.9464
 9641TIP3    H153118   0.515   4.563  11.898  0.0842 -1.1419 -0.0815
 9641TIP3    H253119   0.514   4.432  11.822  0.5573 -1.4865  0.5063
 9642TIP3   OH253120   1.554   3.622  10.871 -0.4982  0.1746 -0.2918
 9642TIP3    H153121   1.500   3.694  10.901 -1.1782 -0.2415 -0.4953
 9642TIP3    H253122   1.537   3.551  10.933 -0.8299 -0.2256 -0.8250
 9643TIP3   OH253123   4.380   7.072  13.594 -0.3212  0.3111 -0.0320
 9643TIP3    H153124   4.325   7.144  13.564 -1.2346 -1.0104 -1.7329
 9643TIP3    H253125   4.450   7.067  13.530  0.4250  0.4307  0.7589
 9644TIP3   OH253126   6.905   7.145  13.096 -0.4135 -0.5581  0.6170
 9644TIP3    H153127   6.853   7.125  13.174 -0.9292 -0.6478  0.2600
 9644TIP3    H253128   6.859   7.100  13.025  0.4041 -0.9987  0.3568
 9645TIP3   OH253129   0.122   7.095  12.418  0.2649  0.2225 -0.2587
 9645TIP3    H153130   0.035   7.060  12.437  0.3927  0.3726  0.6322
 9645TIP3    H253131   0.108   7.153  12.343 -0.4125  0.2986 -0.0814
 9646TIP3   OH253132   4.899   3.380  13.069 -0.2941 -0.1015 -0.0862
 9646TIP3    H153133   4.965   3.319  13.101 -1.2709 -1.2589 -0.1974
 9646TIP3    H253134   4.877   3.434  13.145  1.2705  0.7965 -0.2284
 9647TIP3   OH253135   4.948   0.691  10.241  0.0238  0.3791 -0.0273
 9647TIP3    H153136   4.986   0.729  10.320  2.0682 -0.1405 -0.6960
 9647TIP3    H253137   5.000   0.728  10.169 -0.2764 -0.9073 -0.9481
 9648TIP3   OH253138   0.372   2.536  10.418  0.3275  0.1019  0.5663
 9648TIP3    H153139   0.377   2.456  10.366  0.1234  0.0822  0.5766
 9648TIP3    H253140   0.436   2.595  10.377 -0.4287  0.3892 -0.2256
 9649TIP3   OH253141   4.689   6.876  10.418 -0.5061  0.2696  0.2907
 9649TIP3    H153142   4.775   6.918  10.410 -1.6805  2.6948 -0.7903
 9649TIP3    H253143   4.678   6.861  10.512  1.6040 -1.3493  0.3404
 9650TIP3   OH253144   3.469   0.785  12.290  0.1367  0.0887 -0.3065
 9650TIP3    H153145   3.406   0.740  12.234 -0.2121  0.0101  0.1408
 9650TIP3    H253146   3.422   0.862  12.322 -0.1378 -0.5720  0.9394
 9651TIP3   OH253147   6.017   1.773  13.167 -0.0384 -0.1056  0.0393
 9651TIP3    H153148   6.088   1.802  13.109 -0.0016  1.0850  0.6453
 9651TIP3    H253149   5.972   1.705  13.117  1.5697 -0.9432 -0.3208
 9652TIP3   OH253150   5.585   6.974  12.379  0.5997  0.8045  0.2676
 9652TIP3    H153151   5.532   6.995  12.456 -1.2199  0.0029 -0.6920
 9652TIP3    H253152   5.646   6.907  12.409 -1.1027 -0.6293  0.7120
 9653TIP3   OH253153   5.876   3.594  12.323  0.0540  0.0430 -0.2850
 9653TIP3    H153154   5.808   3.532  12.348  0.4753  0.3156  1.7595
 9653TIP3    H253155   5.950   3.540  12.296 -0.7935 -0.2559 -2.1627
 9654TIP3   OH253156   6.208   7.232  11.069 -0.0713  0.1586  0.0914
 9654TIP3    H153157   6.133   7.213  11.012  1.6025  0.3886 -2.3174
 9654TIP3    H253158   6.217   7.153  11.122 -2.0136  0.1449  0.4719
 9655TIP3   OH253159   4.666   0.880  10.857 -0.1605  0.4823 -0.1465
 9655TIP3    H153160   4.656   0.847  10.946 -1.3121 -2.0861 -1.1380
 9655TIP3    H253161   4.578   0.877  10.820  0.6895 -1.5458 -2.2740
 9656TIP3   OH253162   2.872   5.190  11.373  0.1064  0.0956 -0.2739
 9656TIP3    H153163   2.803   5.256  11.381  0.1940  0.1781 -0.1844
 9656TIP3    H253164   2.945   5.226  11.425  0.5411  0.4385 -1.1006
 9657TIP3   OH253165   0.733   7.552  10.910  0.0769 -0.1207 -0.1989
 9657TIP3    H153166   0.669   7.591  10.850  0.0659  0.3780  0.1308
 9657TIP3    H253167   0.770   7.627  10.957  2.4825 -0.1517 -1.8904
 9658TIP3   OH253168   0.880   0.264  12.398 -0.0699 -0.0396  0.1107
 9658TIP3    H153169   0.842   0.296  12.316  1.1083  3.4964  0.7638
 9658TIP3    H253170   0.832   0.311  12.466 -0.4639 -2.2825  1.4858
 9659TIP3   OH253171   1.796   1.087  12.935 -0.1273  0.1506 -0.2783
 9659TIP3    H153172   1.820   1.177  12.909  1.2305 -0.5697 -1.7357
 9659TIP3    H253173   1.862   1.032  12.892 -0.4582 -1.5071  1.2266
 9660TIP3   OH253174   1.141   6.033  10.761  0.1852  0.0226  0.0799
 9660TIP3    H153175   1.109   5.954  10.805 -1.2612  1.5226  1.9258
 9660TIP3    H253176   1.234   6.036  10.782  0.0985 -0.8066  0.6527
 9661TIP3   OH253177   0.115   6.419  11.606  0.2094 -0.1960 -0.3322
 9661TIP3    H153178   0.158   6.410  11.521 -0.1556  0.8978 -0.6510
 9661TIP3    H253179   0.104   6.329  11.637 -0.0263 -0.6361 -1.6282
 9662TIP3   OH253180   6.811   1.002  12.344  0.4850 -0.3006  0.2168
 9662TIP3    H153181   6.829   1.068  12.412  2.1033 -0.2565 -0.1990
 9662TIP3    H253182   6.872   0.931  12.364 -0.5703 -1.2567  0.0861
 9663TIP3   OH253183   3.883   7.262  11.258 -0.1274  0.8208  0.1088
 9663TIP3    H153184   3.976   7.270  11.235  0.1091 -0.0192  0.7139
 9663TIP3    H253185   3.881   7.192  11.323 -1.5025 -1.1468 -1.8763
 9664TIP3   OH253186   2.869   2.170  11.041 -1.0527 -0.2809 -0.1713
 9664TIP3    H153187   2.896   2.079  11.031  1.8000  0.4701 -0.1639
 9664TIP3    H253188   2.847   2.179  11.134 -2.0997 -1.1003 -0.3242
 9665TIP3   OH253189   1.111   1.706  12.187  0.5482 -0.0235 -0.0129
 9665TIP3    H153190   1.049   1.644  12.226  0.1105  0.2152 -0.3220
 9665TIP3    H253191   1.189   1.699  12.242  0.6806 -1.2094 -0.3198
 9666TIP3   OH253192   2.169   0.956  12.678 -0.0041 -0.3015 -0.3767
 9666TIP3    H153193   2.137   0.872  12.644 -3.3850 -0.3869  2.3540
 9666TIP3    H253194   2.234   0.932  12.745  0.1228 -0.6641 -0.6295
 9667TIP3   OH253195   2.639   3.627  10.414  0.1928  0.9644 -0.5141
 9667TIP3    H153196   2.701   3.558  10.389 -1.4319 -0.0800 -1.9033
 9667TIP3    H253197   2.590   3.589  10.487  1.1237  1.7850  0.5766
 9668TIP3   OH253198   0.539   3.421  11.961  0.5552 -0.0106 -0.5270
 9668TIP3    H153199   0.596   3.413  11.885  0.1704  1.5591 -1.0207
 9668TIP3    H253200   0.536   3.515  11.979  0.8975 -0.3549  1.6519
 9669TIP3   OH253201   3.457   1.383  13.281 -0.0592 -0.4655  0.1277
 9669TIP3    H153202   3.502   1.354  13.360 -2.0649 -0.6034  1.2886
 9669TIP3    H253203   3.376   1.333  13.279 -0.3625  0.0045 -1.6886
 9670TIP3   OH253204   2.445   6.491  11.786 -0.0078  0.0024 -0.1631
 9670TIP3    H153205   2.442   6.449  11.871  0.8352 -2.0376 -1.0780
 9670TIP3    H253206   2.424   6.583  11.803  1.4070 -0.0691  2.3997
 9671TIP3   OH253207   3.058   5.054  11.200 -0.5154 -0.3692  0.3215
 9671TIP3    H153208   3.026   5.009  11.122 -1.6816 -2.8635  2.1033
 9671TIP3    H253209   2.988   5.115  11.223 -0.3365  0.0939 -0.3299
 9672TIP3   OH253210   0.274   6.955  11.276  0.4451 -0.0698  0.2676
 9672TIP3    H153211   0.204   7.014  11.303  0.0622  0.1929 -1.1993
 9672TIP3    H253212   0.261   6.876  11.328 -0.8731  0.0277  0.1212
 9673TIP3   OH253213   4.512   6.531  12.181 -0.1577  0.2371  0.6835
 9673TIP3    H153214   4.451   6.461  12.156  0.2624 -0.5196  1.7372
 9673TIP3    H253215   4.572   6.490  12.243  0.3582  1.4336  0.9973
 9674TIP3   OH253216   5.507   3.319  13.564  0.0755 -0.5198 -0.2500
 9674TIP3    H153217   5.514   3.414  13.570 -1.1023 -0.4316  0.0067
 9674TIP3    H253218   5.414   3.303  13.548  0.0261 -1.6772  0.9850
 9675TIP3   OH253219   4.658   7.126  12.209 -0.0378  0.0247  0.1597
 9675TIP3    H153220   4.646   7.217  12.180 -0.8322 -0.3922 -0.8585
 9675TIP3    H253221   4.710   7.086  12.139 -0.9284 -0.6816 -0.1058
 9676TIP3   OH253222   0.129   0.312  10.669 -0.1043  0.4273  0.0019
 9676TIP3    H153223   0.197   0.349  10.612  0.2091 -0.0760  0.0397
 9676TIP3    H253224   0.178   0.280  10.745 -0.5315  1.1993  0.6175
 9677TIP3   OH253225   1.857   6.286  11.285 -0.4033  0.0804 -0.0809
 9677TIP3    H153226   1.832   6.370  11.247  2.9647  2.5439  2.4861
 9677TIP3    H253227   1.940   6.264  11.242  1.1046  0.6023  2.3420
 9678TIP3   OH253228   0.710   5.982  12.247  0.4084 -0.5038  0.2020
 9678TIP3    H153229   0.663   6.040  12.308  1.5878  1.7521 -0.8831
 9678TIP3    H253230   0.651   5.908  12.234 -1.6041  0.8393  1.0523
 9679TIP3   OH253231   2.054   6.532  10.514  0.0939 -0.4939  0.6017
 9679TIP3    H153232   1.962   6.517  10.536 -0.5458  1.9554 -0.1072
 9679TIP3    H253233   2.051   6.583  10.433  2.0836 -0.1406  0.6984
 9680TIP3   OH253234   3.330   2.904  10.607  1.0034 -0.5839 -0.2331
 9680TIP3    H153235   3.421   2.883  10.626  1.0871 -0.5304 -0.5790
 9680TIP3    H253236   3.281   2.863  10.679  1.1705 -1.8703 -0.8100
 9681TIP3   OH253237   0.377   6.562  10.506  0.6323 -0.2467  0.0810
 9681TIP3    H153238   0.465   6.601  10.512  0.3797  0.2466  0.6527
 9681TIP3    H253239   0.379   6.512  10.424  1.4797 -0.3254  0.1351
 9682TIP3   OH253240   0.028   3.295  12.745 -0.1698  0.2110  0.0073
 9682TIP3    H153241  -0.005   3.384  12.732 -3.6140 -0.8135  0.6224
 9682TIP3    H253242   0.011   3.251  12.662 -0.4098 -0.3618  0.3506
 9683TIP3   OH253243   1.368   2.586  11.251  0.1178 -0.0555 -0.0569
 9683TIP3    H153244   1.312   2.571  11.327 -0.7091  1.8540 -0.2508
 9683TIP3    H253245   1.437   2.643  11.284 -0.0828  0.5479 -0.6762
 9684TIP3   OH253246   4.305   1.369  12.159 -0.1951 -0.0423  0.4539
 9684TIP3    H153247   4.298   1.437  12.227  0.3333  0.8329 -0.3440
 9684TIP3    H253248   4.352   1.411  12.088 -1.4954 -0.6567 -0.8237
 9685TIP3   OH253249   3.445   4.305  12.327  0.0607 -0.9498 -0.2390
 9685TIP3    H153250   3.420   4.216  12.352 -0.5705 -0.5605  0.5730
 9685TIP3    H253251   3.369   4.359  12.351  1.2621  0.1267  1.3822
 9686TIP3   OH253252   5.189   7.022  12.272 -0.5621  0.0764 -0.3964
 9686TIP3    H153253   5.124   7.004  12.340 -0.4234  2.8525  0.6002
 9686TIP3    H253254   5.240   7.096  12.306  0.6466  0.4594 -2.7940
 9687TIP3   OH253255   7.045   7.467  11.854  0.0990  0.0445  0.0457
 9687TIP3    H153256   6.984   7.503  11.919 -1.6611 -0.1487 -1.3908
 9687TIP3    H253257   7.025   7.517  11.774  2.2469  0.3278 -0.3544
 9688TIP3   OH253258   5.959   3.793  12.051 -0.9542  0.1382  0.2885
 9688TIP3    H153259   6.052   3.773  12.041 -0.2377  3.4915 -1.0883
 9688TIP3    H253260   5.947   3.804  12.146 -0.7524 -3.1058  0.8097
 9689TIP3   OH253261   0.162   6.492  12.020  0.0073 -0.1447 -0.4657
 9689TIP3    H153262   0.122   6.564  12.070 -0.5225  0.8538 -2.2604
 9689TIP3    H253263   0.088   6.437  11.995  0.3720 -1.1501  0.5612
 9690TIP3   OH253264   6.421   1.964  12.019  0.4269 -0.2612  0.5347
 9690TIP3    H153265   6.436   2.003  11.933  1.4806 -0.6068  0.5482
 9690TIP3    H253266   6.349   1.902  12.005  0.6741 -0.4059 -0.1353
 9691TIP3   OH253267   4.861   4.372  11.799 -0.0024 -0.3669 -0.6057
 9691TIP3    H153268   4.925   4.384  11.728  1.4682  0.7278  0.8463
 9691TIP3    H253269   4.889   4.291  11.842 -0.0434 -0.2700 -0.3985
 9692TIP3   OH253270   5.008   5.267  11.751 -0.0036 -0.0273 -0.2297
 9692TIP3    H153271   4.950   5.314  11.692  1.1852 -1.1368 -2.4205
 9692TIP3    H253272   4.951   5.206  11.798 -0.8283  0.0510 -1.1054
 9693TIP3   OH253273   0.274   0.218  10.893 -0.3974  0.2896  0.6748
 9693TIP3    H153274   0.275   0.126  10.868  0.6380  0.5449 -0.2807
 9693TIP3    H253275   0.364   0.248  10.882 -0.7582  1.4772  0.7447
 9694TIP3   OH253276   0.853   0.194  12.975 -0.2764  0.0607  0.4908
 9694TIP3    H153277   0.867   0.117  12.920 -0.0292 -0.2252  0.9455
 9694TIP3    H253278   0.861   0.161  13.065  1.2319  0.8670  0.6859
 9695TIP3   OH253279   0.506   7.308  12.072 -0.7068  0.0108 -0.1901
 9695TIP3    H153280   0.561   7.290  11.996 -1.3417  1.0834 -0.9468
 9695TIP3    H253281   0.497   7.404  12.072 -0.7092  0.0360  1.2568
 9696TIP3   OH253282   3.156   3.107  11.987 -0.4603 -0.0714 -0.0214
 9696TIP3    H153283   3.068   3.130  12.017 -0.1525  0.9862  0.1201
 9696TIP3    H253284   3.196   3.062  12.061 -0.7766 -0.2839  0.0213
 9697TIP3   OH253285   2.231   3.435  12.184  0.1158  0.3445  0.2554
 9697TIP3    H153286   2.273   3.470  12.105  0.2397  0.2189  0.2662
 9697TIP3    H253287   2.252   3.499  12.252 -1.2077  1.2307 -0.1118
 9698TIP3   OH253288   2.715   2.716  10.663  0.1147  0.1094 -0.3977
 9698TIP3    H153289   2.621   2.736  10.668  0.3362  1.1679 -0.1840
 9698TIP3    H253290   2.757   2.801  10.650  0.9575 -0.5021 -1.8858
 9699TIP3   OH253291   2.515   4.034  11.563 -0.1663  0.5645 -0.3214
 9699TIP3    H153292   2.468   4.034  11.479  1.0736 -1.3464 -1.1098
 9699TIP3    H253293   2.571   4.111  11.559 -0.5725  0.8322 -0.9964
 9700TIP3   OH253294   6.803   4.553  12.420 -0.2332  0.1678 -0.1974
 9700TIP3    H153295   6.795   4.640  12.380 -2.2238  0.3980  0.5896
 9700TIP3    H253296   6.755   4.495  12.362  2.2453 -0.7565 -1.4743
 9701TIP3   OH253297   3.971   3.408  12.417  0.2793 -0.7408 -0.8936
 9701TIP3    H153298   3.931   3.394  12.331  1.2117  0.2819 -1.5235
 9701TIP3    H253299   3.994   3.501  12.417  0.9536 -0.8976  0.1718
 9702TIP3   OH253300   0.301   2.935  12.152 -0.8615 -0.4186 -0.7105
 9702TIP3    H153301   0.380   2.963  12.106 -0.0546 -1.0796  0.2356
 9702TIP3    H253302   0.245   3.013  12.153 -0.3542 -0.0181 -1.6288
 9703TIP3   OH253303   4.826   1.110  11.402  0.4134 -0.5750  0.0356
 9703TIP3    H153304   4.845   1.062  11.483  0.4005  0.9042  0.9654
 9703TIP3    H253305   4.821   1.201  11.430 -1.7973 -0.2326 -1.2499
 9704TIP3   OH253306   6.741   6.324  12.023  0.3739  0.4797 -0.4190
 9704TIP3    H153307   6.812   6.385  12.045  0.3568  0.7698 -1.1293
 9704TIP3    H253308   6.773   6.239  12.051  1.0106  0.6093 -0.7426
 9705TIP3   OH253309   0.714   6.015  12.878 -0.6040  0.2557 -0.1860
 9705TIP3    H153310   0.711   6.053  12.966 -2.0517 -0.6279  0.1833
 9705TIP3    H253311   0.801   5.976  12.872 -0.1071  1.2245  0.4441
 9706TIP3   OH253312   0.443   1.219  12.472 -0.1419  0.5961  0.1935
 9706TIP3    H153313   0.367   1.270  12.499 -0.0759  0.8517 -0.1012
 9706TIP3    H253314   0.499   1.281  12.426  0.2642  0.4153  0.4366
 9707TIP3   OH253315   3.122   0.587  12.389  0.0611  0.4114  0.5295
 9707TIP3    H153316   3.125   0.562  12.297  1.5043  0.5103  0.5328
 9707TIP3    H253317   3.048   0.648  12.394 -0.7100 -0.4242 -0.3332
 9708TIP3   OH253318   4.360   4.809  12.818  0.9087  0.6026  0.5186
 9708TIP3    H153319   4.444   4.780  12.855 -0.3354 -0.6576  2.5631
 9708TIP3    H253320   4.352   4.760  12.737  1.8599  0.2397  0.6275
 9709TIP3   OH253321   6.143   2.199  13.025  0.0469  0.2359  0.6640
 9709TIP3    H153322   6.134   2.206  12.930 -0.5624  1.8042  0.7940
 9709TIP3    H253323   6.061   2.160  13.055  0.4880 -0.8340  0.5119
 9710TIP3   OH253324   1.215   5.089  13.003  0.2389  0.3502  0.9995
 9710TIP3    H153325   1.270   5.055  12.933 -1.4723  2.8783 -1.8255
 9710TIP3    H253326   1.141   5.028  13.008 -0.1927  0.7370 -0.2827
 9711TIP3   OH253327   4.740   0.282  11.678  0.4583  0.0790  0.2549
 9711TIP3    H153328   4.787   0.252  11.756 -0.0339  0.7673  0.8322
 9711TIP3    H253329   4.771   0.224  11.608 -0.0415 -1.4087  1.2064
 9712TIP3   OH253330   2.946   5.575  12.738 -0.4056 -0.1435  0.2555
 9712TIP3    H153331   2.961   5.580  12.644  1.2504  2.6554  0.5689
 9712TIP3    H253332   2.852   5.586  12.749 -0.4278  1.1163 -1.0248
 9713TIP3   OH253333   3.725   7.451  10.669 -0.2148 -0.3707  0.3285
 9713TIP3    H153334   3.698   7.379  10.612  1.7942 -1.4247  0.6483
 9713TIP3    H253335   3.676   7.436  10.751  0.6670 -1.8057  0.6354
 9714TIP3   OH253336   6.101   0.390  12.404  0.0691  0.1980 -0.2432
 9714TIP3    H153337   6.048   0.364  12.329  0.9951 -0.2839 -0.7434
 9714TIP3    H253338   6.074   0.480  12.423 -1.3368 -0.2340 -0.1055
 9715TIP3   OH253339   0.270   6.665  13.647  0.4186  0.4381 -0.2283
 9715TIP3    H153340   0.215   6.743  13.647  0.7320  0.6803  0.7069
 9715TIP3    H253341   0.356   6.697  13.620  0.8578  0.6911  1.3260
 9716TIP3   OH253342   7.253   1.135  13.522 -0.3840  0.5887  0.7567
 9716TIP3    H153343   7.230   1.093  13.604  1.9649 -0.5189  0.9486
 9716TIP3    H253344   7.271   1.063  13.462  0.2269  1.3510 -0.0150
 9717TIP3   OH253345   5.486   7.514  11.759  0.4199 -0.4996  0.1008
 9717TIP3    H153346   5.493   7.528  11.664  0.1135 -2.6294 -0.2748
 9717TIP3    H253347   5.462   7.422  11.768 -2.5636  0.3436  2.1398
 9718TIP3   OH253348   5.086   0.865  13.239  0.3987 -0.5946  0.1438
 9718TIP3    H153349   5.181   0.876  13.236  0.4342 -0.4287  1.3988
 9718TIP3    H253350   5.073   0.770  13.246  0.4319 -0.6790 -0.8079
 9719TIP3   OH253351   2.989   4.316  11.091 -0.3064  0.0173 -0.7026
 9719TIP3    H153352   3.068   4.334  11.041  0.8951 -0.1221  1.0836
 9719TIP3    H253353   3.008   4.347  11.179 -1.2556 -2.3093  0.4100
 9720TIP3   OH253354   5.396   5.431  10.809 -0.4636 -0.0937  0.0416
 9720TIP3    H153355   5.360   5.476  10.886 -1.7773  0.5709 -0.9186
 9720TIP3    H253356   5.428   5.502  10.754  0.5168 -0.5722 -0.0222
 9721TIP3   OH253357   7.391   3.106  12.525  0.2380 -0.7753  0.0387
 9721TIP3    H153358   7.473   3.156  12.523  0.2417 -0.5945  2.0513
 9721TIP3    H253359   7.371   3.098  12.619 -2.4558 -0.1643 -0.4156
 9722TIP3   OH253360   0.172   2.432  11.971 -0.4343 -0.1274 -0.5079
 9722TIP3    H153361   0.243   2.492  11.993 -0.6011  0.4392 -1.4488
 9722TIP3    H253362   0.094   2.470  12.012 -0.0842 -1.1789  1.2110
 9723TIP3   OH253363   0.057   0.149  12.263  0.0574  0.2077 -0.2389
 9723TIP3    H153364   0.069   0.138  12.357  1.5613  0.3308 -0.3853
 9723TIP3    H253365  -0.037   0.148  12.250 -0.1648  0.0007  1.2452
 9724TIP3   OH253366   2.740   4.215  11.650 -0.0591 -0.9044  0.2967
 9724TIP3    H153367   2.825   4.175  11.671  0.4347 -1.7599 -2.8767
 9724TIP3    H253368   2.734   4.210  11.555 -1.9122  2.8230  0.0564
 9725TIP3   OH253369   3.637   6.781  10.769  0.1253 -0.1481 -0.3830
 9725TIP3    H153370   3.730   6.763  10.758 -0.0939 -1.8253  0.2868
 9725TIP3    H253371   3.610   6.725  10.842 -1.1965  1.0813  0.1217
 9726TIP3   OH253372   2.234   7.247  11.013 -0.5958  0.0511 -0.0111
 9726TIP3    H153373   2.226   7.168  11.067 -0.7861 -0.6255 -0.9937
 9726TIP3    H253374   2.148   7.256  10.972 -0.7096  1.0265  0.4077
 9727TIP3   OH253375   0.274   6.824  11.015  0.2204  0.1062 -0.2080
 9727TIP3    H153376   0.266   6.778  10.932 -1.6564  2.2820 -1.3532
 9727TIP3    H253377   0.186   6.822  11.053  0.0321  2.6141 -0.3225
 9728TIP3   OH253378   3.508   6.012  12.528 -0.1118  0.2700  0.2400
 9728TIP3    H153379   3.595   6.036  12.557 -0.8142  0.9174  1.9601
 9728TIP3    H253380   3.521   5.968  12.444  1.7842  0.9087  0.1710
 9729TIP3   OH253381   0.562   1.536  12.744 -0.0606 -0.1079 -0.5630
 9729TIP3    H153382   0.650   1.505  12.722  0.4555  0.8962  0.0200
 9729TIP3    H253383   0.538   1.593  12.671 -0.4838 -0.8350 -1.0082
 9730TIP3   OH253384   3.415   0.445  11.724  0.5431  0.6021  0.0771
 9730TIP3    H153385   3.436   0.351  11.727  1.1398  0.6985 -0.8189
 9730TIP3    H253386   3.378   0.458  11.637  0.8213  1.2769  0.0576
 9731TIP3   OH253387   2.110   0.371  11.688  0.4967  0.0808  0.2643
 9731TIP3    H153388   2.079   0.343  11.774  0.1413 -1.7618 -0.4358
 9731TIP3    H253389   2.051   0.442  11.663 -0.6236 -0.6723  0.7033
 9732TIP3   OH253390   2.700   5.667  12.734 -0.0935  0.1953  0.0520
 9732TIP3    H153391   2.655   5.683  12.816 -0.9933 -1.8628  0.0371
 9732TIP3    H253392   2.635   5.623  12.679  1.7285 -2.5624 -0.1151
 9733TIP3   OH253393   3.094   7.272  11.388 -0.1147  0.3234  0.6566
 9733TIP3    H153394   3.189   7.282  11.385  0.1482 -1.5406  1.5499
 9733TIP3    H253395   3.067   7.324  11.463  0.3044  0.2360  0.8715
 9734TIP3   OH253396   4.972   3.640  12.729  0.1999 -0.0664  0.2426
 9734TIP3    H153397   5.019   3.664  12.809  0.8544  0.4405 -0.2881
 9734TIP3    H253398   4.918   3.716  12.709  1.6804  0.7155 -0.9991
 9735TIP3   OH253399   6.693   4.891  11.211  0.1825 -0.2171 -0.2466
 9735TIP3    H153400   6.637   4.962  11.179  0.2938 -1.0739 -2.5525
 9735TIP3    H253401   6.659   4.872  11.299 -1.0874  1.3786 -0.3325
 9736TIP3   OH253402   2.944   3.296  11.030 -0.1835  0.3752 -0.0281
 9736TIP3    H153403   2.976   3.354  11.099  1.8555 -0.0262 -0.5585
 9736TIP3    H253404   2.850   3.288  11.047 -0.3176  2.7998  0.7842
 9737TIP3   OH253405   1.741   6.783  12.145 -0.2448  0.5024  0.2970
 9737TIP3    H153406   1.820   6.832  12.169 -0.6407  0.7195  1.1954
 9737TIP3    H253407   1.772   6.695  12.126  0.1050  0.3349  1.5640
 9738TIP3   OH253408   0.769   2.741  12.380 -0.4631  0.5289 -0.0108
 9738TIP3    H153409   0.746   2.812  12.320 -1.3668 -0.1217 -0.4556
 9738TIP3    H253410   0.708   2.751  12.453 -0.0803  0.6668  0.2961
 9739TIP3   OH253411   6.857   1.193  12.569 -0.2936 -0.0213  0.1440
 9739TIP3    H153412   6.815   1.280  12.566 -0.3235  0.1450  2.9258
 9739TIP3    H253413   6.950   1.212  12.562 -0.3435  0.1768 -0.0093
 9740TIP3   OH253414   1.648   6.071  12.145  0.4866 -0.0595  0.8997
 9740TIP3    H153415   1.723   6.128  12.133  0.2703  0.0832  0.2244
 9740TIP3    H253416   1.686   5.986  12.169  0.9601 -0.4442 -1.0459
 9741TIP3   OH253417   1.888   1.416  12.366 -0.0850 -0.2961  0.0290
 9741TIP3    H153418   1.975   1.456  12.366  0.0334 -0.5260 -1.2180
 9741TIP3    H253419   1.865   1.410  12.459  0.7778  0.7326  0.3292
 9742TIP3   OH253420   4.366   0.168  11.907 -0.5764  0.0871  0.2172
 9742TIP3    H153421   4.442   0.225  11.915 -0.3399 -0.1451 -0.3243
 9742TIP3    H253422   4.317   0.204  11.833 -0.2869 -0.5680 -0.2982
 9743TIP3   OH253423   3.831   5.534  11.048  0.2893 -0.6906 -0.0420
 9743TIP3    H153424   3.855   5.500  11.134 -1.2379 -0.3371  0.5553
 9743TIP3    H253425   3.808   5.457  10.996 -0.1681 -0.8011  0.3246
 9744TIP3   OH253426   0.786   2.606  11.017  0.0144  0.1235  0.6623
 9744TIP3    H153427   0.804   2.535  10.955  0.4679  1.2473 -0.5421
 9744TIP3    H253428   0.831   2.580  11.097  1.4544 -0.2353 -0.2335
 9745TIP3   OH253429   5.476   0.606  10.849 -0.0876  0.3186 -0.1629
 9745TIP3    H153430   5.404   0.547  10.873 -1.4557  1.6164 -0.9089
 9745TIP3    H253431   5.550   0.575  10.901 -1.6481  0.0618  2.1005
 9746TIP3   OH253432   1.423   3.220  13.066  0.1749 -0.2631 -0.7309
 9746TIP3    H153433   1.452   3.193  13.153 -0.6053 -3.3813 -1.3114
 9746TIP3    H253434   1.349   3.278  13.083  0.7699  0.1543  0.6560
 9747TIP3   OH253435   3.568   2.696  12.679 -0.4453 -0.0931  0.0141
 9747TIP3    H153436   3.526   2.707  12.593 -1.7384 -0.3536  0.5944
 9747TIP3    H253437   3.498   2.665  12.736  0.5181 -0.3854  1.0614
 9748TIP3   OH253438   5.545   4.475  12.389 -0.0553  0.7265 -0.5012
 9748TIP3    H153439   5.598   4.395  12.386 -1.9165 -0.5547 -2.5448
 9748TIP3    H253440   5.465   4.449  12.433 -0.7511  1.3834 -1.3302
 9749TIP3   OH253441   3.677   4.526  11.066 -0.0762 -0.1008  0.3614
 9749TIP3    H153442   3.589   4.540  11.031  0.5296  0.6871 -0.9216
 9749TIP3    H253443   3.735   4.550  10.995  1.1961 -0.1344  1.3539
 9750TIP3   OH253444   0.342   0.376  12.945 -0.1898  0.3957 -0.1590
 9750TIP3    H153445   0.309   0.294  12.909 -0.1656  0.1832  0.3097
 9750TIP3    H253446   0.436   0.364  12.950 -0.3040 -0.0488  1.1644
 9751TIP3   OH253447   4.212   1.055  12.498 -0.4427  0.2486 -0.1412
 9751TIP3    H153448   4.242   1.146  12.497 -1.1866  0.5018 -0.3082
 9751TIP3    H253449   4.289   1.004  12.475 -0.1784  0.8913 -0.7192
 9752TIP3   OH253450   5.485   6.642  12.796  0.0185  0.2520 -0.1951
 9752TIP3    H153451   5.517   6.582  12.863 -0.6844  1.2225  1.0366
 9752TIP3    H253452   5.438   6.586  12.734 -0.7795 -0.4645  1.0252
 9753TIP3   OH253453   0.031   0.086  11.155  0.0651  0.5311 -0.2228
 9753TIP3    H153454  -0.031   0.064  11.086 -0.7057  1.7174  0.0498
 9753TIP3    H253455  -0.023   0.114  11.228  0.9007  0.4491  0.4459
 9754TIP3   OH253456   5.589   2.448  11.474 -0.1017  0.7368 -0.2999
 9754TIP3    H153457   5.651   2.484  11.410  0.3833 -0.1816 -0.3694
 9754TIP3    H253458   5.637   2.448  11.557 -0.7109  1.8760  0.0702
 9755TIP3   OH253459   6.490   5.403  11.743  0.1121 -0.1950  0.4874
 9755TIP3    H153460   6.497   5.309  11.725  0.8827  0.1508 -1.3056
 9755TIP3    H253461   6.402   5.427  11.712  0.9850  0.1630 -1.9520
 9756TIP3   OH253462   2.375   7.208  11.951  0.5483 -0.2555  0.0650
 9756TIP3    H153463   2.392   7.115  11.939  0.3308 -0.2983  0.0917
 9756TIP3    H253464   2.460   7.244  11.979  1.0291 -0.1766 -1.4196
 9757TIP3   OH253465   6.385   4.905  11.258 -0.1545  0.3509  0.2265
 9757TIP3    H153466   6.359   4.996  11.275 -1.6779  0.0711 -0.4847
 9757TIP3    H253467   6.330   4.877  11.186  0.6749 -0.9912  0.0822
 9758TIP3   OH253468   6.291   6.050  12.341  0.0025  0.5963 -0.3889
 9758TIP3    H153469   6.279   6.141  12.312 -0.9167  0.5732 -0.1232
 9758TIP3    H253470   6.241   6.045  12.423  1.6494  0.3700  0.6513
 9759TIP3   OH253471   7.289   1.063  12.391  0.8373  0.1647 -0.1597
 9759TIP3    H153472   7.251   1.073  12.304  0.9925 -0.2524 -0.2791
 9759TIP3    H253473   7.371   1.016  12.376  1.4877  1.1912  0.0700
 9760TIP3   OH253474   3.890   0.732  10.744  0.1678  0.4259 -0.3323
 9760TIP3    H153475   3.846   0.809  10.707  1.6778  0.9313 -1.1635
 9760TIP3    H253476   3.863   0.659  10.688 -2.4635 -0.0062  1.3418
 9761TIP3   OH253477   6.095   6.897  11.939  0.3520  0.2801  0.4521
 9761TIP3    H153478   6.021   6.887  11.878  0.7728  2.4435 -0.5048
 9761TIP3    H253479   6.056   6.885  12.026 -1.3912  2.2365  0.0361
 9762TIP3   OH253480   0.144   2.770  11.678  0.6614 -0.1352 -0.1234
 9762TIP3    H153481   0.175   2.690  11.721 -0.0188 -0.7531 -0.7478
 9762TIP3    H253482   0.125   2.830  11.751  1.7049 -0.3383  0.3269
 9763TIP3   OH253483   7.656   5.908  12.558 -0.2401 -0.0053  0.1740
 9763TIP3    H153484   7.587   5.947  12.611  0.1490  0.0956  0.6092
 9763TIP3    H253485   7.675   5.975  12.491  0.3700  0.5289  0.8703
 9764TIP3   OH253486   7.065   6.152  11.556 -0.4039  0.0770  0.7466
 9764TIP3    H153487   7.035   6.072  11.514  2.3495 -0.8664  0.3468
 9764TIP3    H253488   7.022   6.152  11.641 -2.3224 -0.5204 -0.1669
 9765TIP3   OH253489   1.527   2.893  12.626 -0.3873  0.3674  0.1054
 9765TIP3    H153490   1.526   2.957  12.697  0.4017 -0.8653  1.2776
 9765TIP3    H253491   1.435   2.867  12.616 -0.4692  0.3398  0.8763
 9766TIP3   OH253492   7.020   1.231  11.153 -0.9081 -0.0323  0.5262
 9766TIP3    H153493   7.037   1.270  11.239 -0.0231  0.8652 -0.0345
 9766TIP3    H253494   6.950   1.286  11.116  0.5087  1.2343 -0.3637
 9767TIP3   OH253495   2.569   1.653  13.227 -0.2297  0.4571 -0.3375
 9767TIP3    H153496   2.563   1.738  13.271  0.6151  2.0506 -3.0483
 9767TIP3    H253497   2.479   1.632  13.202 -0.4243  0.6330  0.2130
 9768TIP3   OH253498   5.777   5.364  10.740 -0.0120  0.0943 -0.0767
 9768TIP3    H153499   5.761   5.382  10.648  2.8321 -0.8060 -0.8443
 9768TIP3    H253500   5.760   5.447  10.784 -1.4134  0.5417 -1.3863
 9769TIP3   OH253501   3.282   4.934  13.373  0.2569 -0.5235 -0.6007
 9769TIP3    H153502   3.371   4.901  13.359  0.6332  0.6747 -1.1631
 9769TIP3    H253503   3.285   5.024  13.342 -1.0623 -0.3434 -0.2544
 9770TIP3   OH253504   2.449   2.485  10.888  0.2026  0.0279 -0.1460
 9770TIP3    H153505   2.436   2.501  10.982 -0.6791  0.1329 -0.2811
 9770TIP3    H253506   2.378   2.533  10.845  0.1974 -0.5726 -0.8223
 9771TIP3   OH253507   7.648   3.591  10.949 -0.0553 -0.2549 -0.5605
 9771TIP3    H153508   7.686   3.522  11.002  0.2495  0.9588  0.8873
 9771TIP3    H253509   7.554   3.572  10.949 -0.0305 -0.4210  0.2268
 9772TIP3   OH253510   4.493   3.102  11.898  0.1516 -0.4557  0.0556
 9772TIP3    H153511   4.458   3.082  11.812 -0.2350  2.1165 -0.4636
 9772TIP3    H253512   4.435   3.170  11.933  0.6871 -0.9602  2.0749
 9773TIP3   OH253513   0.819   6.230  11.689  0.0879  0.2001 -0.2209
 9773TIP3    H153514   0.881   6.162  11.661 -0.6457 -1.4069  1.8335
 9773TIP3    H253515   0.737   6.207  11.644  0.1099  0.3552 -0.3410
 9774TIP3   OH253516   7.428   5.726  12.786 -0.1058  0.3603 -0.6818
 9774TIP3    H153517   7.378   5.738  12.867  1.3462  1.0649  0.1554
 9774TIP3    H253518   7.464   5.637  12.793  0.8283  0.7713 -0.0528
 9775TIP3   OH253519   5.800   6.293  10.731 -0.0650  0.0045  0.4424
 9775TIP3    H153520   5.716   6.248  10.731  0.6341 -1.3665  0.3972
 9775TIP3    H253521   5.864   6.223  10.743  1.0336  1.0954  1.1325
 9776TIP3   OH253522   5.334   6.273  12.897  0.5469 -0.1322  0.8981
 9776TIP3    H153523   5.264   6.211  12.919  0.1422  0.2793  0.7846
 9776TIP3    H253524   5.310   6.354  12.942  1.1615 -0.1040  1.1838
 9777TIP3   OH253525   3.830   4.209  11.554 -0.4180 -0.0054 -0.0077
 9777TIP3    H153526   3.883   4.229  11.630 -0.9068  0.2865  0.2556
 9777TIP3    H253527   3.876   4.251  11.481 -0.7726  1.0232  0.3496
 9778TIP3   OH253528   3.629   7.120  10.882  0.0176 -0.3379 -0.5115
 9778TIP3    H153529   3.697   7.129  10.949  1.4501 -1.3871 -1.7890
 9778TIP3    H253530   3.605   7.028  10.884  0.2750 -0.4387 -1.6330
 9779TIP3   OH253531   6.506   1.194  12.541 -0.0846  0.2618 -0.0487
 9779TIP3    H153532   6.447   1.178  12.614 -1.3731  0.2556 -1.0501
 9779TIP3    H253533   6.584   1.142  12.561  1.1958  3.0099  3.0694
 9780TIP3   OH253534   6.937   0.532  11.646  0.2234  0.1944  0.5155
 9780TIP3    H153535   6.883   0.542  11.568 -0.6096 -0.2728  1.0157
 9780TIP3    H253536   6.984   0.615  11.655  0.6236  0.1195 -0.6840
 9781TIP3   OH253537   6.496   7.048  11.512  0.1586 -0.3476 -0.1428
 9781TIP3    H153538   6.413   7.002  11.506  0.2970 -0.4232 -2.0320
 9781TIP3    H253539   6.483   7.129  11.462  1.0508 -0.0962  0.0088
 9782TIP3   OH253540   6.704   3.184  10.984 -0.2849  0.3927 -0.1558
 9782TIP3    H153541   6.752   3.114  11.027  0.3702  0.7002 -0.3801
 9782TIP3    H253542   6.613   3.154  10.985 -0.0906 -0.2053  0.2435
 9783TIP3   OH253543   5.806   1.558  12.534 -0.1271 -0.7094  0.4884
 9783TIP3    H153544   5.783   1.623  12.467  0.7551 -1.0949 -0.2120
 9783TIP3    H253545   5.723   1.514  12.554 -0.4649 -0.3604 -0.0984
 9784TIP3   OH253546   3.730   5.712  10.553 -0.0371  0.1631 -0.2846
 9784TIP3    H153547   3.664   5.680  10.492  0.6195  1.3752 -1.6716
 9784TIP3    H253548   3.704   5.801  10.574 -0.2672 -0.2293  1.2757
 9785TIP3   OH253549   7.443   7.575  10.624 -0.4424  0.4394 -0.1110
 9785TIP3    H153550   7.486   7.545  10.544  0.9565 -0.6220  0.9949
 9785TIP3    H253551   7.514   7.592  10.685 -1.5076  0.6355  1.1209
 9786TIP3   OH253552   3.670   2.452  11.976 -0.0899  0.2958  0.1437
 9786TIP3    H153553   3.724   2.531  11.978 -1.5037  1.3078 -0.2715
 9786TIP3    H253554   3.594   2.473  12.030 -0.0528 -1.1332  0.7953
 9787TIP3   OH253555   3.845   1.063  12.247 -0.2076 -0.2539 -0.0656
 9787TIP3    H153556   3.939   1.061  12.229  0.0859 -1.9767  1.3358
 9787TIP3    H253557   3.825   0.974  12.276 -1.7001  0.8127  2.4331
 9788TIP3   OH253558   0.240   7.620  12.206  0.1153  0.2635 -0.3656
 9788TIP3    H153559   0.176   7.691  12.210  0.0449  0.1563  1.4324
 9788TIP3    H253560   0.222   7.568  12.284  0.1213 -1.8046 -1.6738
 9789TIP3   OH253561   0.908   2.891  13.538 -0.4710  0.3105  0.0951
 9789TIP3    H153562   0.989   2.920  13.579 -0.4408  1.3864 -0.6760
 9789TIP3    H253563   0.850   2.869  13.611 -0.9978  3.7028  0.8553
 9790TIP3   OH253564   2.658   5.374  11.500 -0.0038  0.7492 -0.3294
 9790TIP3    H153565   2.655   5.320  11.579 -2.6159  0.6550 -0.3963
 9790TIP3    H253566   2.643   5.463  11.531  1.4139  1.0832 -0.5196
 9791TIP3   OH253567   5.401   6.248  11.371 -0.0159 -0.3847 -0.4757
 9791TIP3    H153568   5.375   6.336  11.342  0.8682 -0.3797 -1.2935
 9791TIP3    H253569   5.477   6.263  11.427  1.0451 -0.7020 -1.7767
 9792TIP3   OH253570   0.186   3.745  13.312 -0.1702  0.0765 -0.6249
 9792TIP3    H153571   0.131   3.762  13.389  1.5976 -1.2546  1.0154
 9792TIP3    H253572   0.145   3.669  13.270 -1.2255  0.8973 -1.1477
 9793TIP3   OH253573   2.486   0.006  10.814 -0.9996  0.5260 -0.1995
 9793TIP3    H153574   2.412   0.065  10.821 -1.5337 -0.2741  1.3403
 9793TIP3    H253575   2.512   0.011  10.722 -2.3544  1.5256 -0.5604
 9794TIP3   OH253576   3.221   1.772  11.542  0.3616 -0.0022 -0.2388
 9794TIP3    H153577   3.185   1.808  11.623  1.1869 -0.9445  0.5740
 9794TIP3    H253578   3.144   1.742  11.493 -0.1594  0.7591  0.0918
 9795TIP3   OH253579   2.312   6.211  12.179  0.0117 -0.5184 -0.4720
 9795TIP3    H153580   2.263   6.287  12.211 -3.2680 -1.8396 -1.9599
 9795TIP3    H253581   2.347   6.240  12.095  2.4001  0.5778  0.7949
 9796TIP3   OH253582   7.495   0.366  12.480 -0.9388 -0.8427  0.2449
 9796TIP3    H153583   7.403   0.361  12.506 -0.7434  0.2680  1.2105
 9796TIP3    H253584   7.539   0.407  12.554 -0.3008  2.2599 -1.6727
 9797TIP3   OH253585   6.082   4.789  12.687  0.4157 -0.2670 -0.6358
 9797TIP3    H153586   6.020   4.843  12.736  1.4452 -1.1795  1.8159
 9797TIP3    H253587   6.051   4.699  12.701  1.7851 -0.6739 -0.0676
 9798TIP3   OH253588   0.696   3.996  10.416 -0.1422  0.9959  0.0496
 9798TIP3    H153589   0.789   3.995  10.438 -0.4928  0.6058  1.6946
 9798TIP3    H253590   0.679   3.910  10.377  0.2183  1.1263 -0.3932
 9799TIP3   OH253591   5.921   6.071  11.313  0.6220 -0.0233  0.2735
 9799TIP3    H153592   5.896   6.052  11.404  1.3172 -1.6587  0.1569
 9799TIP3    H253593   5.931   6.166  11.310 -2.3602  0.4138  1.1369
 9800TIP3   OH253594   4.931   1.536  12.092  0.3117  0.0502 -0.3844
 9800TIP3    H153595   5.006   1.586  12.124 -0.2601  0.6908 -0.0195
 9800TIP3    H253596   4.951   1.520  12.000  0.3076  1.3613 -0.6347
 9801TIP3   OH253597   5.996   1.408  11.825 -0.4477 -0.4943  0.3765
 9801TIP3    H153598   6.012   1.378  11.735 -1.0228  0.8094 -0.1881
 9801TIP3    H253599   6.084   1.415  11.864 -0.1607 -0.6426 -0.2286
 9802TIP3   OH253600   0.036   6.691  12.235  0.0162 -0.2228 -0.1452
 9802TIP3    H153601  -0.041   6.747  12.229  0.4367  0.1807 -2.7242
 9802TIP3    H253602   0.110   6.751  12.236  0.3659 -0.6550  0.5639
 9803TIP3   OH253603   3.164   1.349  12.143 -0.2435 -0.3084  0.4901
 9803TIP3    H153604   3.174   1.269  12.092  1.4044 -0.1793  0.5820
 9803TIP3    H253605   3.236   1.405  12.115 -1.1782  1.0230  0.6692
 9804TIP3   OH253606   5.266   2.263  11.803  0.1746 -0.6374 -0.0772
 9804TIP3    H153607   5.212   2.283  11.880 -0.3985  0.8634 -0.8182
 9804TIP3    H253608   5.340   2.323  11.810  0.0907 -0.4516 -0.7082
 9805TIP3   OH253609   1.351   3.693  12.546  0.3126 -0.3585  0.4358
 9805TIP3    H153610   1.423   3.632  12.564  1.6718  0.1224 -2.6567
 9805TIP3    H253611   1.276   3.637  12.528  0.9917 -1.0817 -0.2538
 9806TIP3   OH253612   0.572   4.203  11.085 -0.6655  0.0116 -0.1077
 9806TIP3    H153613   0.655   4.238  11.051  0.1664 -1.4261  0.3460
 9806TIP3    H253614   0.506   4.263  11.053  0.7176  2.3239  1.1258
 9807TIP3   OH253615   1.479   0.020  13.216  0.5365  0.7958  0.5958
 9807TIP3    H153616   1.429  -0.058  13.238 -1.0126  1.7965  0.7643
 9807TIP3    H253617   1.533  -0.006  13.141 -0.4135 -0.2588  0.2504
 9808TIP3   OH253618   2.030   5.492  10.333 -0.0009  0.0641  0.3573
 9808TIP3    H153619   2.051   5.459  10.420 -0.2798  0.1913  0.4728
 9808TIP3    H253620   1.949   5.541  10.344 -1.1329 -1.5722 -0.3318
 9809TIP3   OH253621   5.798   6.732  12.164  0.2817  0.3320 -0.2331
 9809TIP3    H153622   5.770   6.723  12.255  0.3851  0.4047 -0.1930
 9809TIP3    H253623   5.887   6.767  12.170  0.6748 -0.6247 -0.3407
 9810TIP3   OH253624   5.995   6.580  11.468  0.1736  0.0887  0.4447
 9810TIP3    H153625   6.069   6.628  11.430  2.0296 -2.2603  0.8699
 9810TIP3    H253626   5.922   6.596  11.408  2.1191 -0.8229 -2.3553
 9811TIP3   OH253627   6.874   3.388  11.314 -0.1300 -0.2992  0.3608
 9811TIP3    H153628   6.870   3.474  11.356 -0.1782  0.3077 -0.8553
 9811TIP3    H253629   6.967   3.376  11.294  0.0226 -0.9757  1.3838
 9812TIP3   OH253630   4.167   2.591  11.755 -0.3446 -0.3789  0.5010
 9812TIP3    H153631   4.123   2.509  11.732  0.4108 -0.8788  0.8351
 9812TIP3    H253632   4.149   2.649  11.681 -0.6813 -0.9179  0.1551
 9813TIP3   OH253633   5.146   3.544  11.875 -0.6440  0.3053  0.5937
 9813TIP3    H153634   5.187   3.607  11.815  0.1873 -0.7547  0.0195
 9813TIP3    H253635   5.219   3.495  11.912 -1.2553 -0.0412  1.3709
 9814TIP3   OH253636   0.697   7.354  12.693  0.0941 -0.4046  0.5184
 9814TIP3    H153637   0.637   7.372  12.766 -2.3506  1.0320 -1.6356
 9814TIP3    H253638   0.730   7.441  12.668  1.3657 -0.9445  0.2549
 9815TIP3   OH253639   3.686   1.537  12.354  0.0021 -0.4703  0.6099
 9815TIP3    H153640   3.704   1.461  12.298  0.2251  1.0076 -1.4444
 9815TIP3    H253641   3.751   1.532  12.423 -0.3339 -2.4198  0.8403
 9816TIP3   OH253642   4.362   6.327  12.763 -0.5617  0.1612 -0.0264
 9816TIP3    H153643   4.428   6.277  12.810 -0.4777  0.3354  0.0407
 9816TIP3    H253644   4.279   6.298  12.800 -0.5275 -0.1011 -0.1519
 9817TIP3   OH253645   2.150   3.082  11.338  0.0864 -0.2836 -0.5471
 9817TIP3    H153646   2.176   3.000  11.380  2.4262  0.0241 -1.2457
 9817TIP3    H253647   2.229   3.113  11.295 -1.1509  1.5627 -1.6366
 9818TIP3   OH253648   6.858   6.027  12.373  0.4959 -0.2885  0.2203
 9818TIP3    H153649   6.867   5.943  12.418  1.7393  0.7614  2.0108
 9818TIP3    H253650   6.765   6.047  12.379  0.8224  0.6794  4.0787
 9819TIP3   OH253651   0.878   7.665  12.810  0.5519 -0.2567  0.0633
 9819TIP3    H153652   0.930   7.690  12.734  1.1007 -0.9077  0.2114
 9819TIP3    H253653   0.788   7.666  12.779  0.8797 -2.4183 -1.1876
 9820TIP3   OH253654   5.909   2.947  10.711  0.2646 -0.0299 -0.2385
 9820TIP3    H153655   5.999   2.977  10.700 -0.3561  1.5589 -1.2807
 9820TIP3    H253656   5.917   2.855  10.738  2.1756  0.0461 -0.4545
 9821TIP3   OH253657   0.860   2.776  13.038 -0.2465  0.0901  0.2099
 9821TIP3    H153658   0.912   2.842  13.084  1.7468 -0.7217 -0.7131
 9821TIP3    H253659   0.865   2.801  12.946 -0.3730 -0.7417 -0.0342
 9822TIP3   OH253660   3.386   2.578  10.668  0.6403  0.6442  0.4988
 9822TIP3    H153661   3.434   2.574  10.751 -2.0884  1.2355  2.2478
 9822TIP3    H253662   3.398   2.668  10.637  1.9446  0.3281  0.0011
 9823TIP3   OH253663   0.542   2.779  10.765 -0.1539 -0.8529 -0.3881
 9823TIP3    H153664   0.535   2.703  10.707 -0.3500  0.3757 -2.0402
 9823TIP3    H253665   0.459   2.825  10.755  0.0878 -0.2408  0.3379
 9824TIP3   OH253666   6.922   1.998  11.506 -0.9556  0.4004 -0.0906
 9824TIP3    H153667   6.838   2.004  11.552 -0.6212  2.0708  0.3662
 9824TIP3    H253668   6.948   2.089  11.491  1.2376 -0.0427  0.6632
 9825TIP3   OH253669   6.660   2.033  11.152  0.3773 -0.1653 -0.1277
 9825TIP3    H153670   6.725   2.090  11.194 -2.2242  2.5637  0.5417
 9825TIP3    H253671   6.623   1.982  11.224 -0.2701  0.4980  0.0222
 9826TIP3   OH253672   2.102   5.171  10.620 -0.2246 -0.1216 -0.5511
 9826TIP3    H153673   2.160   5.129  10.557 -1.1289 -0.1242 -1.4118
 9826TIP3    H253674   2.090   5.106  10.690 -2.9526 -2.1443 -2.6452
 9827TIP3   OH253675   1.096   5.350  10.900  0.3047  0.1105  0.2061
 9827TIP3    H153676   1.023   5.292  10.876 -1.3987  1.8893  0.7911
 9827TIP3    H253677   1.127   5.315  10.984  0.3211 -0.8208 -0.1747
 9828TIP3   OH253678   4.858   4.941  11.255  0.1385 -0.4123  0.1908
 9828TIP3    H153679   4.913   4.987  11.318  0.6907 -1.2222  0.3243
 9828TIP3    H253680   4.815   5.010  11.204  2.9487  0.3283 -1.4126
 9829TIP3   OH253681   2.085   4.939  10.742  0.5439  0.5605 -0.0556
 9829TIP3    H153682   2.042   4.887  10.675  0.8901  0.3606 -0.1256
 9829TIP3    H253683   2.149   4.879  10.781  0.5995  0.7851  0.2008
 9830TIP3   OH253684   5.565   5.413  11.754  0.1415  0.2879 -0.1984
 9830TIP3    H153685   5.528   5.325  11.758 -0.1139  0.4120  0.1722
 9830TIP3    H253686   5.594   5.423  11.663 -0.1479 -0.0475 -0.3272
 9831TIP3   OH253687   2.389   4.588  10.697 -0.3540  0.0728  0.0654
 9831TIP3    H153688   2.418   4.621  10.612  1.4010 -0.0944  0.5556
 9831TIP3    H253689   2.411   4.495  10.696  0.5877  0.2711  1.0457
 9832TIP3   OH253690   6.682   6.684  12.030 -0.5033 -0.2615  0.3466
 9832TIP3    H153691   6.637   6.617  11.980 -0.0087 -1.3222  1.2819
 9832TIP3    H253692   6.614   6.725  12.084 -0.6852 -0.5165  0.3106
 9833TIP3   OH253693   3.346   4.867  11.183  0.8232  0.3618 -0.3576
 9833TIP3    H153694   3.379   4.888  11.270  0.9283  1.8715 -0.7368
 9833TIP3    H253695   3.377   4.939  11.127 -1.6021  0.9251 -1.0814
 9834TIP3   OH253696   1.337   0.187  11.303 -0.1392  0.2229  0.1281
 9834TIP3    H153697   1.422   0.154  11.332  1.3116  1.6749 -2.2026
 9834TIP3    H253698   1.319   0.261  11.361 -0.3540 -0.6903  1.2722
 9835TIP3   OH253699   1.672   6.399  11.086  0.2243 -0.3756 -0.6566
 9835TIP3    H153700   1.674   6.442  11.001 -2.8796 -0.1743 -0.7357
 9835TIP3    H253701   1.627   6.461  11.143  3.0795 -0.0739  1.4908
 9836TIP3   OH253702   0.926   6.126  12.150  0.1287 -0.2963  0.3570
 9836TIP3    H153703   0.840   6.087  12.168 -0.2361  0.7180  0.8615
 9836TIP3    H253704   0.909   6.193  12.084  0.4343  0.2756  0.8480
 9837TIP3   OH253705   7.340   1.308  11.722 -0.1679 -0.4601 -0.4559
 9837TIP3    H153706   7.320   1.325  11.630 -1.6684 -1.4089 -0.3442
 9837TIP3    H253707   7.257   1.276  11.759  0.3472  0.0935  1.2739
 9838TIP3   OH253708   0.105   5.188  12.344  0.0702  0.9604 -0.8863
 9838TIP3    H153709   0.186   5.146  12.372 -1.0962 -2.3697 -1.9436
 9838TIP3    H253710   0.110   5.191  12.249 -1.7079 -1.1338 -1.1366
 9839TIP3   OH253711   6.068   7.068  10.703 -0.6991  0.5737  0.0581
 9839TIP3    H153712   6.023   7.091  10.622 -0.5462  1.9052  0.3279
 9839TIP3    H253713   6.033   7.129  10.768 -0.1861  0.1028  0.7914
 9840TIP3   OH253714   4.650   4.311  11.396  0.0559  0.4597  0.3707
 9840TIP3    H153715   4.724   4.252  11.386  0.8544  1.4607  0.1312
 9840TIP3    H253716   4.689   4.399  11.395 -1.1700  1.0272 -0.2157
 9841TIP3   OH253717   2.869   6.543  12.926  0.3373  0.2406 -0.2874
 9841TIP3    H153718   2.818   6.477  12.974 -1.5868  0.4061 -1.9900
 9841TIP3    H253719   2.828   6.548  12.840  3.4198  0.2440 -1.8964
 9842TIP3   OH253720   3.081   4.716  12.585 -0.6967  0.1193  0.0694
 9842TIP3    H153721   3.124   4.683  12.664 -0.3411  0.0403 -0.1509
 9842TIP3    H253722   2.999   4.667  12.579  0.9823 -2.7949 -1.7192
 9843TIP3   OH253723   6.232   7.127  11.910  0.3003  0.0742 -0.3396
 9843TIP3    H153724   6.327   7.122  11.917  0.1916 -2.0702  0.3224
 9843TIP3    H253725   6.202   7.037  11.920 -2.0059  0.9869  2.5587
 9844TIP3   OH253726   2.397   2.731  10.629  0.1011 -0.1838 -0.2485
 9844TIP3    H153727   2.323   2.791  10.632  0.2114 -0.0155 -0.8159
 9844TIP3    H253728   2.358   2.643  10.629 -0.1755 -0.0922 -2.2012
 9845TIP3   OH253729   0.036   3.762  12.530  0.2768  0.5118  0.0471
 9845TIP3    H153730   0.068   3.832  12.473  1.2108  0.6473  0.7289
 9845TIP3    H253731   0.107   3.747  12.593  0.3611 -1.4551 -0.4488
 9846TIP3   OH253732   0.020   1.867  11.853  0.2527 -0.3927 -0.4845
 9846TIP3    H153733   0.002   1.953  11.814  0.6410 -0.4471 -0.7943
 9846TIP3    H253734  -0.055   1.813  11.827 -1.5473  0.6055  2.1944
 9847TIP3   OH253735   6.955   7.321  10.955  0.3313  0.0917  0.2245
 9847TIP3    H153736   6.962   7.365  10.871  2.6491  2.7014  1.6114
 9847TIP3    H253737   6.870   7.348  10.990 -0.8352 -1.3569 -1.3457
 9848TIP3   OH253738   3.520   5.479  11.118 -0.0919 -0.1108 -0.7591
 9848TIP3    H153739   3.564   5.519  11.193  0.4645 -0.6794 -0.7703
 9848TIP3    H253740   3.460   5.546  11.086  0.7044  0.6500 -0.6820
 9849TIP3   OH253741   7.373   1.796  13.167  0.5402  0.4445 -0.0662
 9849TIP3    H153742   7.296   1.751  13.202  0.6777 -0.7386 -1.1841
 9849TIP3    H253743   7.388   1.868  13.227  0.4532 -1.1604  1.9898
 9850TIP3   OH253744   5.016   3.391  13.327  0.2673 -0.2916  0.3130
 9850TIP3    H153745   5.024   3.317  13.268  0.3690  0.2455 -0.3597
 9850TIP3    H253746   4.954   3.362  13.394  0.8901 -1.2533  0.5026
 9851TIP3   OH253747   3.536   5.924  13.503  0.1675  0.1978  0.2367
 9851TIP3    H153748   3.613   5.885  13.461 -0.9509 -2.3233  0.3127
 9851TIP3    H253749   3.483   5.956  13.430  0.6130  0.6457  0.0996
 9852TIP3   OH253750   5.924   1.293  11.591  0.2112  0.0137  0.1679
 9852TIP3    H153751   5.846   1.246  11.621 -0.4073  0.0650 -1.2832
 9852TIP3    H253752   5.931   1.272  11.498  0.8139  1.5660 -0.1775
 9853TIP3   OH253753   3.063   3.481  13.313  0.3786  0.0230 -0.6990
 9853TIP3    H153754   2.994   3.450  13.255  0.5623  0.3847 -1.1147
 9853TIP3    H253755   3.031   3.564  13.347 -0.6752 -1.1760  1.4127
 9854TIP3   OH253756   6.754   4.326  11.423  0.0088 -0.1659  0.2100
 9854TIP3    H153757   6.845   4.354  11.423  0.0290 -0.2229  0.4140
 9854TIP3    H253758   6.709   4.386  11.363 -0.1736  1.0582  1.5146
 9855TIP3   OH253759   4.571   4.588  10.998 -0.7185 -0.2919  0.0636
 9855TIP3    H153760   4.546   4.633  11.079  0.1376 -1.4518  1.0221
 9855TIP3    H253761   4.577   4.496  11.023 -0.5664 -0.6945 -1.3685
 9856TIP3   OH253762   7.340   0.570  12.763 -0.6714  0.3266  0.7987
 9856TIP3    H153763   7.352   0.647  12.819  0.0615  0.7440  0.0884
 9856TIP3    H253764   7.427   0.549  12.732 -1.0171 -0.1343  0.1233
 9857TIP3   OH253765   0.994   3.112  11.867  0.4778 -0.0147  0.6003
 9857TIP3    H153766   1.019   3.105  11.959 -0.5632  1.7575  1.0593
 9857TIP3    H253767   1.017   3.201  11.842 -0.1748 -0.1502 -0.5546
 9858TIP3   OH253768   7.659   0.294  11.368 -0.0227 -0.1140 -0.0064
 9858TIP3    H153769   7.661   0.206  11.405 -1.3753  0.7415  2.2924
 9858TIP3    H253770   7.567   0.318  11.370  0.4113  1.6294  0.0653
 9859TIP3   OH253771   2.251   2.533  12.735  0.0125  0.1908  0.4043
 9859TIP3    H153772   2.332   2.555  12.780  0.5136 -0.1109 -0.3444
 9859TIP3    H253773   2.278   2.481  12.660 -0.7640  1.1894 -0.6010
 9860TIP3   OH253774   4.106   1.602  11.528 -0.3495  0.3407  0.1555
 9860TIP3    H153775   4.016   1.591  11.557  0.0217  0.9145  1.5825
 9860TIP3    H253776   4.117   1.537  11.459 -1.9637  0.5338 -0.3255
 9861TIP3   OH253777   2.805   4.127  10.962 -0.0017 -0.1130  0.5439
 9861TIP3    H153778   2.860   4.169  11.028  0.4655  0.3477 -0.1279
 9861TIP3    H253779   2.865   4.106  10.890 -1.0892  2.9735 -1.4763
 9862TIP3   OH253780   0.213   4.432  12.128  0.2621 -0.1155 -0.3450
 9862TIP3    H153781   0.142   4.393  12.079  0.1415  0.1479 -0.3812
 9862TIP3    H253782   0.170   4.488  12.193  0.4256 -0.2370 -0.1261
 9863TIP3   OH253783   6.165   0.178  10.953  0.1952 -0.0544  0.8484
 9863TIP3    H153784   6.203   0.211  11.034 -1.9253  0.1810  1.8119
 9863TIP3    H253785   6.235   0.188  10.888  2.5153 -1.6806  2.9029
 9864TIP3   OH253786   1.227   0.144  10.843 -0.3070  0.0381 -0.2387
 9864TIP3    H153787   1.238   0.186  10.928  1.5924 -0.9993  0.0734
 9864TIP3    H253788   1.230   0.217  10.780  0.7570  0.5953  0.4278
 9865TIP3   OH253789   6.570   5.833  10.413  0.1982  0.1249 -0.3194
 9865TIP3    H153790   6.518   5.752  10.412  0.8915 -0.3969  1.6363
 9865TIP3    H253791   6.612   5.834  10.499  1.2084  1.9545 -0.7743
 9866TIP3   OH253792   1.296   7.191  11.165 -0.1861 -0.1136 -0.1902
 9866TIP3    H153793   1.216   7.154  11.202 -1.1890  0.9394 -1.2020
 9866TIP3    H253794   1.265   7.266  11.113  1.4612  0.2944 -0.6289
 9867TIP3   OH253795   5.477   3.465  11.410  0.2677  0.2012  0.1627
 9867TIP3    H153796   5.419   3.541  11.407  0.4082  0.3153  0.3049
 9867TIP3    H253797   5.561   3.497  11.377 -0.1674 -0.3614 -1.6317
 9868TIP3   OH253798   1.826   1.992  12.087  0.1658 -0.0472  0.0017
 9868TIP3    H153799   1.733   1.993  12.110 -0.0464 -0.3255 -0.8168
 9868TIP3    H253800   1.865   2.060  12.143 -0.7393  0.9150 -0.4947
 9869TIP3   OH253801   6.957   0.620  10.643  0.3035 -0.2090 -0.0981
 9869TIP3    H153802   7.032   0.677  10.659  2.1330 -2.9941  2.1790
 9869TIP3    H253803   6.883   0.665  10.683  1.2307  1.4769 -0.1929
 9870TIP3   OH253804   0.353   7.555  10.968  0.4379 -0.7690  0.0060
 9870TIP3    H153805   0.379   7.593  11.052  0.4678 -1.6016  0.3862
 9870TIP3    H253806   0.284   7.493  10.990  0.9070 -1.4877 -0.4860
 9871TIP3   OH253807   4.769   7.635  11.472 -0.6823  0.1272  0.3962
 9871TIP3    H153808   4.827   7.583  11.417  0.6521  1.2766  0.6599
 9871TIP3    H253809   4.824   7.662  11.546 -1.3941  1.6399  0.4144
 9872TIP3   OH253810   4.600   5.122  12.778 -0.5967  0.0606  0.4846
 9872TIP3    H153811   4.510   5.091  12.773 -0.8940  0.9697 -0.0229
 9872TIP3    H253812   4.593   5.217  12.780  0.3344  0.1350  0.9379
 9873TIP3   OH253813   1.240   4.962  12.345 -0.3493 -0.1405 -0.5830
 9873TIP3    H153814   1.189   4.963  12.426  0.5102  2.1654  0.0235
 9873TIP3    H253815   1.198   4.896  12.290 -2.6216  0.1551  0.7044
 9874TIP3   OH253816   7.662   0.575  10.672 -0.4578  0.0451 -0.8306
 9874TIP3    H153817   7.592   0.545  10.729  0.2708  0.3981  0.2767
 9874TIP3    H253818   7.710   0.496  10.649 -2.0590 -0.4388 -2.8535
 9875TIP3   OH253819   5.702   3.825  11.984 -0.3070 -0.3155 -0.1525
 9875TIP3    H153820   5.691   3.845  11.891  0.3792 -0.8472 -0.3480
 9875TIP3    H253821   5.795   3.838  12.001 -0.9355  3.9519  1.4511
 9876TIP3   OH253822   3.683   4.137  11.188 -0.4062  0.3348 -0.5848
 9876TIP3    H153823   3.720   4.151  11.101  0.6202 -1.9254 -0.5688
 9876TIP3    H253824   3.682   4.225  11.227 -2.5343  1.7458 -3.3960
 9877TIP3   OH253825   3.708   0.146  12.663  0.3661  0.2476 -0.4615
 9877TIP3    H153826   3.781   0.130  12.723  0.1345  0.0719 -0.2234
 9877TIP3    H253827   3.658   0.217  12.703  1.0982  1.2390 -1.2559
 9878TIP3   OH253828   4.895   7.630  12.283 -0.1914  0.1561  0.4494
 9878TIP3    H153829   4.969   7.647  12.224  1.1145  1.4369  2.3217
 9878TIP3    H253830   4.836   7.576  12.232  1.5742 -0.0938 -1.4916
 9879TIP3   OH253831   1.431   1.410  10.561 -0.0075 -0.1450 -0.0556
 9879TIP3    H153832   1.516   1.421  10.605  0.2758 -1.5828 -0.2111
 9879TIP3    H253833   1.450   1.353  10.486 -0.7520  1.1393 -1.2731
 9880TIP3   OH253834   2.491   5.908  12.232 -0.3077 -0.1813  0.4178
 9880TIP3    H153835   2.579   5.873  12.215  0.4474  1.3356  0.9980
 9880TIP3    H253836   2.469   5.876  12.320  0.0511  0.1590  0.6353
 9881TIP3   OH253837   3.317   5.123  10.825 -0.1857  0.3360 -0.3844
 9881TIP3    H153838   3.347   5.213  10.807 -1.0349  0.7210  0.0560
 9881TIP3    H253839   3.228   5.120  10.791  0.8612 -1.3366 -3.3125
 9882TIP3   OH253840   3.779   1.104  12.594  0.0530 -0.2243 -0.2510
 9882TIP3    H153841   3.834   1.120  12.518  1.1673 -0.6155  0.4415
 9882TIP3    H253842   3.807   1.018  12.626 -0.4602 -0.1121  0.5294
 9883TIP3   OH253843   6.433   6.773  11.864 -0.4357  0.2846 -0.0250
 9883TIP3    H153844   6.476   6.701  11.819 -1.2635 -0.4949  0.4144
 9883TIP3    H253845   6.485   6.850  11.840  0.2979 -0.4046 -0.7118
 9884TIP3   OH253846   4.573   5.411  12.882 -0.0407 -0.1462  0.1389
 9884TIP3    H153847   4.490   5.398  12.927  0.7492 -1.6847  1.2803
 9884TIP3    H253848   4.615   5.484  12.928  0.1867 -0.8457  1.0758
 9885TIP3   OH253849   4.434   1.707  10.876  0.2332 -0.0550 -0.1468
 9885TIP3    H153850   4.344   1.676  10.871  0.2370  0.1490 -2.5953
 9885TIP3    H253851   4.487   1.627  10.871  0.2233 -0.1768  1.3156
 9886TIP3   OH253852   3.657   7.651  11.959  0.2709  0.2111 -0.1635
 9886TIP3    H153853   3.676   7.667  11.866  0.3687  0.4171 -0.1096
 9886TIP3    H253854   3.607   7.570  11.960 -0.4567  0.6501 -0.4743
 9887TIP3   OH253855   5.317   4.062  12.233  0.2258  0.0734  0.4440
 9887TIP3    H153856   5.339   4.147  12.195 -1.9291  0.0019 -1.1224
 9887TIP3    H253857   5.384   4.003  12.199  0.2018  0.6429 -0.6250
 9888TIP3   OH253858   7.326   7.486  12.311  0.1208 -0.2815 -0.3711
 9888TIP3    H153859   7.337   7.574  12.345  3.1487 -0.0457 -1.6501
 9888TIP3    H253860   7.232   7.474  12.305 -0.4287  2.0477  1.7712
 9889TIP3   OH253861   0.549   5.070  12.060  0.5431 -0.2836  0.6465
 9889TIP3    H153862   0.606   5.112  12.124  0.7489 -0.1910  0.4035
 9889TIP3    H253863   0.582   5.100  11.975 -1.5950  2.0403  0.5299
 9890TIP3   OH253864   6.049   0.657  12.445  0.0754 -0.0900  0.3497
 9890TIP3    H153865   6.066   0.723  12.512  1.3422 -2.6561  2.7568
 9890TIP3    H253866   5.959   0.673  12.418  0.0166  1.9747  1.5272
 9891TIP3   OH253867   4.842   0.623  11.920  0.0524 -0.1622 -0.1760
 9891TIP3    H153868   4.760   0.587  11.954 -0.0961 -0.9131 -1.2811
 9891TIP3    H253869   4.860   0.699  11.976 -2.0553  0.7731 -0.6809
 9892TIP3   OH253870   0.013   7.041  11.393 -0.1721 -0.0500  0.3474
 9892TIP3    H153871  -0.013   7.132  11.375 -1.2110 -0.3040  0.4846
 9892TIP3    H253872  -0.066   7.001  11.430  0.1746 -1.0989 -0.0147
 9893TIP3   OH253873   2.719   6.119  10.617 -0.2118  0.0210  0.3780
 9893TIP3    H153874   2.707   6.080  10.704  0.4055 -0.9141  0.0682
 9893TIP3    H253875   2.797   6.075  10.583  0.9120  2.0148  0.2454
 9894TIP3   OH253876   1.225   5.370  11.737 -0.5440 -0.3419 -0.4166
 9894TIP3    H153877   1.314   5.402  11.722 -0.2455 -0.7627  0.3898
 9894TIP3    H253878   1.228   5.278  11.711 -1.3856  0.2043 -2.6882
 9895TIP3   OH253879   1.133   2.355  12.903  0.1818 -0.0318 -0.3562
 9895TIP3    H153880   1.110   2.444  12.930  0.1191 -0.4394  1.0413
 9895TIP3    H253881   1.140   2.306  12.985  0.2894 -1.3056 -1.0888
 9896TIP3   OH253882   1.015   1.929  12.027 -0.0015  0.0145 -0.1617
 9896TIP3    H153883   1.070   1.864  12.072  0.6109  0.7927  0.2424
 9896TIP3    H253884   1.072   1.965  11.959 -0.3599  0.0689 -0.4306
 9897TIP3   OH253885   5.668   5.892  12.300  0.0006  0.5223  0.4445
 9897TIP3    H153886   5.741   5.948  12.274  0.6832 -0.7850 -0.5898
 9897TIP3    H253887   5.613   5.886  12.221 -0.5172  0.4251  0.8075
 9898TIP3   OH253888   5.783   0.768  12.378 -0.2702  0.2097  0.0649
 9898TIP3    H153889   5.835   0.840  12.341  0.3221 -0.3168 -0.1537
 9898TIP3    H253890   5.693   0.799  12.375 -0.1934  0.3809 -1.3964
 9899TIP3   OH253891   0.569   3.691  10.846  0.9968  0.5373  0.2936
 9899TIP3    H153892   0.510   3.625  10.882  2.8226 -0.4017  1.8065
 9899TIP3    H253893   0.561   3.682  10.751  0.9933 -1.7444  0.4550
 9900TIP3   OH253894   1.965   0.260  12.701  0.0218 -0.1336  0.6157
 9900TIP3    H153895   2.023   0.327  12.664 -0.1753 -0.9914 -1.3191
 9900TIP3    H253896   1.954   0.287  12.793  0.7158  1.9325  0.1465
 9901TIP3   OH253897   6.292   4.738  11.743 -0.2887  0.3729 -0.0949
 9901TIP3    H153898   6.312   4.768  11.654 -0.1262 -1.0290 -0.5470
 9901TIP3    H253899   6.343   4.658  11.754 -1.7494 -0.5062  0.5612
 9902TIP3   OH253900   7.383   4.900  12.342  0.6281  0.1227  0.1523
 9902TIP3    H153901   7.306   4.951  12.364 -0.7155 -1.4267 -0.7150
 9902TIP3    H253902   7.419   4.942  12.264  0.7919  0.9782  0.6855
 9903TIP3   OH253903   7.401   5.862  13.043  0.1892 -0.1532  0.4179
 9903TIP3    H153904   7.377   5.953  13.027 -0.5574 -0.1060  1.7050
 9903TIP3    H253905   7.496   5.861  13.036  0.0753 -0.0171 -3.1782
 9904TIP3   OH253906   7.141   7.130  11.201  0.0942 -0.1937 -0.1813
 9904TIP3    H153907   7.080   7.198  11.230 -1.6053 -1.2491 -1.0837
 9904TIP3    H253908   7.181   7.166  11.122 -1.2622 -0.4333 -1.0115
 9905TIP3   OH253909   2.884   0.803  12.492 -0.0706  0.6666 -0.3215
 9905TIP3    H153910   2.830   0.724  12.498  0.5170  0.3401  1.5816
 9905TIP3    H253911   2.888   0.823  12.399  0.4843 -2.0717 -0.9881
 9906TIP3   OH253912   3.202   0.299  10.738  0.3312  0.3861  0.1569
 9906TIP3    H153913   3.276   0.270  10.792  0.2472  1.1821  0.7168
 9906TIP3    H253914   3.205   0.243  10.661  0.6146 -0.5953  0.8689
 9907TIP3   OH253915   7.410   1.865  11.021 -0.1114  0.4130  0.4215
 9907TIP3    H153916   7.465   1.896  11.092  1.4451  0.0368 -0.5767
 9907TIP3    H253917   7.369   1.785  11.056  1.3620 -0.2909  0.6001
 9908TIP3   OH253918   1.493   0.296  12.475  0.5196 -0.1220  0.0906
 9908TIP3    H153919   1.587   0.293  12.457  1.0030 -1.0477  2.4942
 9908TIP3    H253920   1.486   0.330  12.564 -1.3454 -1.4659  0.5064
 9909TIP3   OH253921   1.022   7.323  11.631 -0.7304  0.0192 -0.2971
 9909TIP3    H153922   1.039   7.235  11.666 -1.1171 -1.2024 -2.9442
 9909TIP3    H253923   1.092   7.337  11.567 -1.7347  0.8123 -1.2599
 9910TIP3   OH253924   4.079   1.655  12.330 -0.4350 -0.5372  0.0126
 9910TIP3    H153925   3.989   1.687  12.342 -0.6745 -0.7638 -1.0543
 9910TIP3    H253926   4.114   1.648  12.419 -0.4393  2.4164  0.3248
 9911TIP3   OH253927   2.656   0.784  12.680 -0.0265  0.0661  0.2841
 9911TIP3    H153928   2.634   0.858  12.623 -1.5650 -0.7350 -0.2136
 9911TIP3    H253929   2.639   0.817  12.769  1.8103  1.1219  0.3025
 9912TIP3   OH253930   2.897   4.759  12.214 -0.2759 -0.6790 -0.4399
 9912TIP3    H153931   2.857   4.736  12.298  0.4763  0.5898  0.2922
 9912TIP3    H253932   2.955   4.833  12.234  3.1462 -2.9016 -1.2525
 9913TIP3   OH253933   3.583   2.698  11.242  0.3720 -0.0710  0.1459
 9913TIP3    H153934   3.605   2.682  11.334  0.7890  2.4541  0.5591
 9913TIP3    H253935   3.488   2.695  11.239  0.3881 -3.0460  0.0019
 9914TIP3   OH253936   2.547   2.263  13.146 -0.1489 -0.5090  0.3645
 9914TIP3    H153937   2.628   2.218  13.169 -1.5368 -2.7667  1.0933
 9914TIP3    H253938   2.477   2.202  13.170 -2.0532  0.8301 -1.4095
 9915TIP3   OH253939   4.855   3.025  11.093 -0.4882 -0.1732  0.0930
 9915TIP3    H153940   4.870   2.943  11.045 -2.3074  0.1758 -1.1777
 9915TIP3    H253941   4.935   3.076  11.077  0.2839 -1.3146  0.1319
 9916TIP3   OH253942   3.770   3.203  11.366 -0.0308 -0.1281  0.0340
 9916TIP3    H153943   3.803   3.181  11.278  1.4824  0.4017  0.4483
 9916TIP3    H253944   3.793   3.295  11.378 -0.9451  0.0261  0.6847
 9917TIP3   OH253945   6.038   2.932  12.881 -0.0758  0.4525  0.2289
 9917TIP3    H153946   6.048   2.990  12.957 -0.3040 -0.4880  0.9966
 9917TIP3    H253947   6.084   2.852  12.906 -1.3892 -0.4127 -0.0269
 9918TIP3   OH253948   7.267   6.337  10.833  0.2060  0.4168  0.0214
 9918TIP3    H153949   7.209   6.368  10.763  0.6648  0.2620 -0.4331
 9918TIP3    H253950   7.215   6.270  10.878 -0.1072  0.5391 -0.1506
 9919TIP3   OH253951   1.451   7.430  11.113  0.2885 -0.3896 -0.3303
 9919TIP3    H153952   1.463   7.396  11.024  0.2362 -0.1561 -0.4292
 9919TIP3    H253953   1.373   7.485  11.107  0.5568  0.0034 -0.2500
 9920TIP3   OH253954   6.141   4.678  11.334 -0.2075  0.0107 -0.2053
 9920TIP3    H153955   6.216   4.706  11.387 -1.3013 -0.5831  1.7842
 9920TIP3    H253956   6.136   4.584  11.348 -2.7415  0.3331  1.7935
 9921TIP3   OH253957   6.690   1.711  12.509  0.2292 -0.0322  0.2864
 9921TIP3    H153958   6.747   1.786  12.497  2.3451 -1.3355  1.5749
 9921TIP3    H253959   6.609   1.735  12.463  0.3522  3.4697  1.6043
 9922TIP3   OH253960   1.465   4.033  12.678 -0.4351 -0.1220 -0.2009
 9922TIP3    H153961   1.383   3.996  12.647 -0.9097 -1.0405  2.0178
 9922TIP3    H253962   1.530   3.966  12.661 -0.3322  0.1526 -0.9245
 9923TIP3   OH253963   1.029   2.717  12.513  0.0614 -0.4637 -0.0640
 9923TIP3    H153964   0.951   2.736  12.462  0.1418 -0.4181 -0.1707
 9923TIP3    H253965   0.998   2.709  12.603  0.0584  0.3417  0.0081
 9924TIP3   OH253966   2.835   0.664  11.429  0.0930 -0.4555  0.2627
 9924TIP3    H153967   2.843   0.718  11.507 -0.0788 -0.5562  0.3500
 9924TIP3    H253968   2.876   0.715  11.359 -2.5331  1.0754 -0.3055
 9925TIP3   OH253969   4.120   3.896  11.252 -0.1581  0.2030 -0.4105
 9925TIP3    H153970   4.119   3.801  11.239  0.2336  0.2065 -0.4654
 9925TIP3    H253971   4.036   3.914  11.295 -0.0019 -0.2423  0.1022
 9926TIP3   OH253972   0.254   5.577  10.816  0.2725  0.0282 -0.7237
 9926TIP3    H153973   0.251   5.492  10.862  0.7505  0.9886  1.1917
 9926TIP3    H253974   0.182   5.573  10.754 -0.9254 -1.0882  0.6462
 9927TIP3   OH253975   5.756   2.424  12.542 -0.1863 -0.0339  0.1697
 9927TIP3    H153976   5.827   2.488  12.553  0.4578 -0.6285 -0.5143
 9927TIP3    H253977   5.701   2.438  12.619 -1.1156  2.6440 -0.8427
 9928TIP3   OH253978   0.177   2.571  12.739  0.1169  0.8104  0.0003
 9928TIP3    H153979   0.216   2.601  12.821 -0.4549  1.1754  0.1449
 9928TIP3    H253980   0.086   2.602  12.742  0.4645  2.1025 -1.4150
 9929TIP3   OH253981   4.785   5.950  11.310  0.0661 -0.7671  0.5015
 9929TIP3    H153982   4.868   5.965  11.355  0.4238 -2.9778  0.7230
 9929TIP3    H253983   4.806   5.959  11.217  0.6679 -1.6591  0.5375
 9930TIP3   OH253984   0.322   2.920  11.517 -0.4853 -0.1256 -0.1693
 9930TIP3    H153985   0.349   2.892  11.429  0.5410  2.0644 -0.6139
 9930TIP3    H253986   0.239   2.876  11.532  0.4740 -2.4845 -1.2055
 9931TIP3   OH253987   4.135   2.805  11.575  0.5899 -0.0979  0.4543
 9931TIP3    H153988   4.221   2.787  11.538  0.2881 -1.8660  0.5220
 9931TIP3    H253989   4.074   2.780  11.506  0.0223 -3.1581  1.9203
 9932TIP3   OH253990   1.830   0.354  11.421  0.3485  0.3554  0.7871
 9932TIP3    H153991   1.886   0.372  11.497  0.4768  0.0171  0.7741
 9932TIP3    H253992   1.880   0.385  11.346  0.1943  0.7502  0.8423
 9933TIP3   OH253993   1.326   4.342  12.537 -0.3948  0.3025  0.2011
 9933TIP3    H153994   1.406   4.301  12.504 -0.6993  0.3063 -0.5700
 9933TIP3    H253995   1.282   4.273  12.586 -1.8168 -0.9660 -2.6102
 9934TIP3   OH253996   1.948   7.251  11.256  0.3027 -0.1533 -0.1358
 9934TIP3    H153997   1.912   7.236  11.168 -0.1119 -0.7806  0.1343
 9934TIP3    H253998   1.872   7.275  11.309  0.5829  0.4196  0.0125
 9935TIP3   OH253999   1.445   3.237  10.457  0.3217  0.1521 -0.2146
 9935TIP3    H154000   1.534   3.220  10.426  0.6867  0.8172  0.4321
 9935TIP3    H254001   1.455   3.309  10.519 -0.6347  0.0425  0.0787
 9936TIP3   OH254002   0.777   3.484  11.431 -0.2637  0.3439  0.6037
 9936TIP3    H154003   0.682   3.486  11.439 -0.4628  2.2286 -1.1488
 9936TIP3    H254004   0.806   3.421  11.496 -2.6968 -0.1812  1.2749
 9937TIP3   OH254005   0.916   3.581  11.231  0.0933  0.5358  0.1992
 9937TIP3    H154006   0.863   3.534  11.295 -1.8770  0.8356 -1.1306
 9937TIP3    H254007   0.968   3.512  11.189 -2.3001 -0.5188 -1.2876
 9938TIP3   OH254008   2.227   4.980  11.708 -0.8737  0.3263 -0.3883
 9938TIP3    H154009   2.298   5.023  11.754 -1.4343 -0.4050  1.2172
 9938TIP3    H254010   2.158   5.046  11.703 -1.4895 -0.1210  1.4866
 9939TIP3   OH254011   5.241   3.481  11.169 -0.2755  0.0790 -0.4199
 9939TIP3    H154012   5.221   3.417  11.237 -0.6028  0.0610 -0.5317
 9939TIP3    H254013   5.276   3.556  11.216  0.7216 -0.4277 -0.3409
 9940TIP3   OH254014   1.706   3.260  11.678  0.9742  0.6378 -0.1477
 9940TIP3    H154015   1.766   3.186  11.681 -2.7309 -2.7147 -0.0654
 9940TIP3    H254016   1.668   3.256  11.590  1.0290  2.8454 -0.3212
 9941TIP3   OH254017   0.254   2.842  11.265 -0.5339 -0.2829  0.6805
 9941TIP3    H154018   0.164   2.812  11.276 -1.2991  0.7331 -1.8195
 9941TIP3    H254019   0.249   2.937  11.278 -0.1143 -0.0606 -0.5646
 9942TIP3   OH254020   1.046   2.698  11.163 -0.2372 -0.6459  0.5720
 9942TIP3    H154021   1.020   2.770  11.221 -1.1616 -1.1233  0.7581
 9942TIP3    H254022   1.048   2.621  11.219 -0.2583 -0.9510  0.1558
 9943TIP3   OH254023   5.684   4.084  11.424 -0.4001 -0.0258 -0.0263
 9943TIP3    H154024   5.765   4.105  11.470  0.1799  0.3258 -1.1876
 9943TIP3    H254025   5.699   4.112  11.334 -3.2131  4.0679  0.4615
 9944TIP3   OH254026   6.899   3.141  11.924 -0.0840 -0.0941  0.6333
 9944TIP3    H154027   6.815   3.160  11.965 -0.3131 -0.9261  0.5493
 9944TIP3    H254028   6.927   3.058  11.963  0.3674 -0.1733  0.1523
 9945TIP3   OH254029   4.439   6.525  10.686  0.0035 -0.3755 -0.0981
 9945TIP3    H154030   4.466   6.613  10.662  3.0756 -0.9349  0.7654
 9945TIP3    H254031   4.369   6.537  10.749  0.5005  1.4724  0.1501
 9946TIP3   OH254032   0.691   3.096  11.806 -0.5998  0.4465  0.5323
 9946TIP3    H154033   0.766   3.147  11.836  1.4369 -0.2388 -2.9332
 9946TIP3    H254034   0.710   3.006  11.832 -0.7815  0.4236  0.5898
 9947TIP3   OH254035   3.987   5.951  12.989 -0.1290 -0.3632 -0.2098
 9947TIP3    H154036   4.022   6.022  13.043  0.3813 -1.1315  0.4939
 9947TIP3    H254037   3.948   5.890  13.052 -2.0396  0.0489 -0.8974
 9948TIP3   OH254038   3.344   4.965  11.799 -0.7596  0.0704 -0.1869
 9948TIP3    H154039   3.424   4.931  11.838 -0.3916 -0.4532 -1.3396
 9948TIP3    H254040   3.276   4.905  11.827 -1.3042  1.9499  2.9614
 9949TIP3   OH254041   0.363   0.901  11.632  0.5881  0.8166  0.3028
 9949TIP3    H154042   0.386   0.973  11.690 -2.2542  0.4989  2.0452
 9949TIP3    H254043   0.296   0.937  11.574  1.1204  0.2819 -0.6703
 9950TIP3   OH254044   3.471   5.834  11.914 -0.1537  0.2229  0.3079
 9950TIP3    H154045   3.553   5.815  11.959 -1.5728 -1.3260  2.4171
 9950TIP3    H254046   3.426   5.897  11.970 -0.5362  0.8825 -0.7053
 9951TIP3   OH254047   2.656   5.363  13.056 -0.2261  0.0328 -0.0613
 9951TIP3    H154048   2.650   5.333  12.965 -0.7726 -0.4292  0.1245
 9951TIP3    H254049   2.746   5.340  13.082 -0.3338 -0.5878 -0.2233
 9952TIP3   OH254050   6.653   1.145  11.206  0.4497  0.0914  0.1546
 9952TIP3    H154051   6.576   1.184  11.246 -0.9787 -1.6417 -0.7486
 9952TIP3    H254052   6.689   1.213  11.149 -1.7617  0.2660 -1.1396
 9953TIP3   OH254053   4.517   5.679  12.837  0.8367 -0.4402 -0.0275
 9953TIP3    H154054   4.516   5.632  12.754 -0.1444 -0.8253  0.1895
 9953TIP3    H254055   4.432   5.659  12.877  0.7254  0.8785  0.4325
 9954TIP3   OH254056   2.952   2.856  12.292  0.1964  0.1541 -0.0776
 9954TIP3    H154057   2.879   2.875  12.351 -0.8272 -1.0601 -0.8922
 9954TIP3    H254058   2.910   2.829  12.210  1.5368 -1.0796 -0.4006
 9955TIP3   OH254059   2.832   0.610  11.932  0.2112  0.1529 -1.0862
 9955TIP3    H154060   2.815   0.536  11.991  1.4134 -0.4279 -1.4146
 9955TIP3    H254061   2.761   0.607  11.868 -0.1354 -0.2937 -0.6884
 9956TIP3   OH254062   0.728   6.895  12.217 -0.0424  0.4941 -0.2162
 9956TIP3    H154063   0.665   6.828  12.191  0.0338  0.8554 -1.3957
 9956TIP3    H254064   0.683   6.946  12.285 -0.0858 -0.7458  0.7264
 9957TIP3   OH254065   3.977   4.882  11.983 -0.2176  0.1058 -0.0404
 9957TIP3    H154066   4.060   4.905  12.025  0.1614 -0.0098 -0.7200
 9957TIP3    H254067   3.950   4.802  12.028  0.4919 -0.3574 -0.4132
 9958TIP3   OH254068   7.031   5.253  12.820  0.2909  0.4952 -0.2555
 9958TIP3    H154069   6.954   5.252  12.876  0.4626  1.0323 -0.0044
 9958TIP3    H254070   7.012   5.320  12.754  0.0527 -0.1925 -0.8999
 9959TIP3   OH254071   0.266   4.020  12.635 -0.1917  0.2467  0.4038
 9959TIP3    H154072   0.338   4.074  12.602 -0.9785 -0.1189 -2.0851
 9959TIP3    H254073   0.190   4.077  12.634 -0.1328  0.4568  2.4750
 9960TIP3   OH254074   5.541   1.269  12.796  0.3667  0.4276  0.3690
 9960TIP3    H154075   5.519   1.245  12.886  0.1356 -0.7604  0.0158
 9960TIP3    H254076   5.469   1.325  12.767 -1.9837 -2.7532 -0.5135
 9961TIP3   OH254077   6.765   5.289  12.884  0.2186 -0.3040 -0.6868
 9961TIP3    H154078   6.694   5.315  12.943  0.5100  0.4147 -0.6419
 9961TIP3    H254079   6.721   5.245  12.811 -0.1230 -1.5775  0.2394
 9962TIP3   OH254080   7.369   2.143  10.921  0.2280  0.9464 -0.0247
 9962TIP3    H154081   7.449   2.191  10.900  0.7234  0.5487  0.8742
 9962TIP3    H254082   7.396   2.052  10.925 -0.6018  0.6281 -1.2217
 9963TIP3   OH254083   6.277   3.755  12.061 -0.5064  0.0356 -0.3745
 9963TIP3    H154084   6.262   3.773  12.154 -1.2608 -1.4953 -0.1520
 9963TIP3    H254085   6.326   3.672  12.061  0.3132  0.4983 -1.3354
 9964TIP3   OH254086   4.724   5.566  11.499 -0.0180 -0.0606  0.5129
 9964TIP3    H154087   4.670   5.512  11.441  1.2305 -0.1265 -0.6384
 9964TIP3    H254088   4.702   5.536  11.587 -2.3343  0.3841  0.1610
 9965TIP3   OH254089   6.257   3.958  12.542 -0.2692 -0.3447 -0.4133
 9965TIP3    H154090   6.288   3.967  12.452  0.7593 -1.3536 -0.1914
 9965TIP3    H254091   6.195   4.030  12.554  1.2703  1.1914 -1.2165
 9966TIP3   OH254092   2.406   5.399  11.273 -0.0669  0.1847 -0.6642
 9966TIP3    H154093   2.460   5.385  11.350 -0.4346  2.5115  0.1108
 9966TIP3    H254094   2.454   5.464  11.222 -1.0212  0.5515 -1.1200
 9967TIP3   OH254095   3.224   1.639  10.923  0.5752  0.4204 -0.5077
 9967TIP3    H154096   3.191   1.670  11.007  1.2332 -1.0225  0.2985
 9967TIP3    H254097   3.145   1.626  10.870 -0.0213 -0.7510  0.6140
 9968TIP3   OH254098   6.197   6.644  10.482  0.2382 -0.4676  0.3817
 9968TIP3    H154099   6.202   6.669  10.574 -0.2513  0.9607  0.0411
 9968TIP3    H254100   6.157   6.557  10.483 -1.0534  0.1022  1.4644
 9969TIP3   OH254101   3.687   2.385  11.706  0.3727  0.0040  0.6146
 9969TIP3    H154102   3.690   2.407  11.799  0.9705 -1.2221  0.9037
 9969TIP3    H254103   3.651   2.297  11.703  1.1625 -0.3043 -0.2522
 9970TIP3   OH254104   6.042   0.031  12.135 -0.0590 -0.0375  0.3488
 9970TIP3    H154105   6.084  -0.005  12.057  0.3358  2.5285 -0.7330
 9970TIP3    H254106   5.956   0.061  12.104  0.4290  1.7757  0.6228
 9971TIP3   OH254107   5.649   5.755  13.031 -0.0965  0.6510 -0.1527
 9971TIP3    H154108   5.603   5.832  13.064 -0.2887  0.3575  0.2788
 9971TIP3    H254109   5.608   5.736  12.947 -0.6969  0.4536  0.1829
 9972TIP3   OH254110   3.773   4.233  10.901  0.3154  0.5758  0.4698
 9972TIP3    H154111   3.713   4.302  10.871  0.7073  0.2963 -1.0508
 9972TIP3    H254112   3.832   4.277  10.962  0.8708  1.7119 -0.8418
 9973TIP3   OH254113   1.454   7.256  11.383 -0.2848  0.0703  0.4438
 9973TIP3    H154114   1.412   7.220  11.304 -2.2758 -0.4212  1.6597
 9973TIP3    H254115   1.509   7.327  11.350 -0.9828 -0.1807 -1.3997
 9974TIP3   OH254116   7.026   2.060  12.227  0.5944 -0.2328  0.1033
 9974TIP3    H154117   7.114   2.074  12.261  0.7811 -1.2400  0.0466
 9974TIP3    H254118   7.039   2.042  12.134  0.1886  1.2222 -0.2607
 9975TIP3   OH254119   1.180   5.783  11.242  0.2107  0.2416  0.1854
 9975TIP3    H154120   1.191   5.875  11.218 -1.9701  0.1817 -1.4213
 9975TIP3    H254121   1.242   5.736  11.186  0.0301  0.6224 -0.3432
 9976TIP3   OH254122   2.107   1.870  11.423  0.7594 -0.0727 -0.3904
 9976TIP3    H154123   2.114   1.963  11.404 -0.6670 -0.3084 -2.3809
 9976TIP3    H254124   2.015   1.858  11.449  0.5977 -1.0849 -1.3705
 9977TIP3   OH254125   2.344   7.106  12.237  0.1355 -0.5164 -0.5146
 9977TIP3    H154126   2.293   7.178  12.275  0.8104 -0.8747  1.1420
 9977TIP3    H254127   2.406   7.149  12.177  0.6606  0.3135  0.5997
 9978TIP3   OH254128   0.198   5.686  12.162 -0.1665 -0.1379 -0.3497
 9978TIP3    H154129   0.187   5.685  12.067 -0.7880  2.0396 -0.3572
 9978TIP3    H254130   0.128   5.630  12.195 -1.4514  0.9579 -1.1174
 9979TIP3   OH254131   2.392   3.821  10.513  0.0902  0.1260  0.0845
 9979TIP3    H154132   2.440   3.844  10.592  2.1927 -2.1263 -0.4109
 9979TIP3    H254133   2.437   3.869  10.443  0.0910 -0.1338 -0.0926
 9980TIP3   OH254134   2.250   6.720  13.167 -0.3622  1.0598 -0.3276
 9980TIP3    H154135   2.333   6.731  13.121 -0.3136  3.3792  0.1755
 9980TIP3    H254136   2.275   6.707  13.259 -0.4332 -4.0496 -0.7354
 9981TIP3   OH254137   1.650   7.073  10.362  0.6179 -0.8529 -0.3230
 9981TIP3    H154138   1.646   6.982  10.391  0.0686 -0.4736  0.8350
 9981TIP3    H254139   1.592   7.120  10.422  0.1510  0.1174 -1.4880
 9982TIP3   OH254140   3.928   1.792  11.228  0.0650 -0.2253 -0.3184
 9982TIP3    H154141   3.835   1.792  11.251  0.5597  0.1319  1.9801
 9982TIP3    H254142   3.971   1.832  11.304  1.8674  2.3233 -2.4753
 9983TIP3   OH254143   1.193   6.709  12.318 -0.4091 -0.1094  0.6077
 9983TIP3    H154144   1.160   6.711  12.408  0.9897  0.7542  1.1401
 9983TIP3    H254145   1.216   6.800  12.300 -0.0382 -0.3911 -0.3752
 9984TIP3   OH254146   1.307   0.422  10.586 -0.0492 -0.2023 -0.9270
 9984TIP3    H154147   1.283   0.471  10.666  3.7801  2.1312 -0.9536
 9984TIP3    H254148   1.223   0.395  10.549 -2.0663 -1.0171  3.5657
 9985TIP3   OH254149   5.937   0.595  11.149 -0.1993  0.3982 -0.1038
 9985TIP3    H154150   5.972   0.517  11.105  1.6607 -0.4175  2.5870
 9985TIP3    H254151   5.850   0.568  11.178 -0.1841 -0.1405 -0.5375
 9986TIP3   OH254152   1.332   0.409  11.482  0.1439 -0.2019 -0.1820
 9986TIP3    H154153   1.423   0.436  11.467  0.8971 -2.3225  0.2898
 9986TIP3    H254154   1.316   0.427  11.574 -0.6504  2.0495 -0.6888
 9987TIP3   OH254155   0.484   3.139  10.705  0.4526 -0.0128  0.1709
 9987TIP3    H154156   0.521   3.181  10.782 -0.0115  1.1350 -0.2115
 9987TIP3    H254157   0.432   3.208  10.662 -1.6683 -1.3797  0.3782
 9988TIP3   OH254158   7.503   1.901  12.670 -0.2955 -0.9395 -0.1025
 9988TIP3    H154159   7.474   1.987  12.701 -0.6279 -0.6404 -1.1668
 9988TIP3    H254160   7.517   1.850  12.749 -0.9116 -0.1631  0.5302
 9989TIP3   OH254161   2.622   1.522  11.138  0.4192  0.2455  0.0964
 9989TIP3    H154162   2.673   1.588  11.090 -0.4531  1.1611  0.3973
 9989TIP3    H254163   2.532   1.552  11.132  0.3156  0.6817  2.7247
 9990TIP3   OH254164   3.191   6.003  11.260  0.2648 -0.2511 -0.5144
 9990TIP3    H154165   3.132   6.049  11.320 -0.1351 -0.3613 -0.8211
 9990TIP3    H254166   3.212   5.921  11.307  0.6049  0.0262 -0.1757
 9991TIP3   OH254167   7.509   2.858  11.503  0.2417  0.0047 -0.1300
 9991TIP3    H154168   7.536   2.920  11.570  1.5983 -0.3956 -0.2623
 9991TIP3    H254169   7.414   2.865  11.499  0.3112  1.4748  0.4192
 9992TIP3   OH254170   2.118   1.274  11.398 -0.6717 -0.2721 -0.3910
 9992TIP3    H154171   2.089   1.187  11.426  0.9965 -0.7848 -0.1977
 9992TIP3    H254172   2.155   1.260  11.311  1.2041 -0.1116  0.3344
 9993TIP3   OH254173   6.843   4.089  11.042  0.4132  0.1570 -0.4988
 9993TIP3    H154174   6.774   4.023  11.033 -0.3826  0.9217 -0.1295
 9993TIP3    H254175   6.831   4.147  10.967  0.7714  0.1913 -0.5331
 9994TIP3   OH254176   1.246   4.983  11.267  0.1770  0.0257 -0.2589
 9994TIP3    H154177   1.283   4.897  11.250 -0.2015 -0.3842  0.8776
 9994TIP3    H254178   1.282   5.008  11.352 -0.1833  0.7234 -0.3083
 9995TIP3   OH254179   1.536   3.078  10.731  0.1564  0.1266 -0.6515
 9995TIP3    H154180   1.477   3.071  10.807  0.7545 -0.0839 -0.1991
 9995TIP3    H254181   1.490   3.137  10.671 -0.7226 -0.3778 -0.5041
 9996TIP3   OH254182   3.370   1.658  11.755  0.1326 -0.3743  0.3333
 9996TIP3    H154183   3.452   1.619  11.725 -0.0632 -0.3683 -0.2116
 9996TIP3    H254184   3.330   1.695  11.676 -0.5509 -0.6669  0.5356
 9997TIP3   OH254185   0.374   2.317  13.048 -0.1716 -0.1095  0.3907
 9997TIP3    H154186   0.278   2.312  13.045 -0.3167  1.9625  0.0547
 9997TIP3    H254187   0.403   2.246  12.992 -1.5894  0.3685 -1.0455
 9998TIP3   OH254188   3.134   2.446  11.730  0.0563  0.4874  0.2148
 9998TIP3    H154189   3.156   2.512  11.664  1.7102 -1.3584 -1.2010
 9998TIP3    H254190   3.215   2.433  11.779 -0.9852  1.3724  2.2511
 9999TIP3   OH254191   0.699   6.623  10.732  0.0046  0.0973  0.7105
 9999TIP3    H154192   0.679   6.540  10.776 -0.1402  0.4714  1.3667
 9999TIP3    H254193   0.705   6.600  10.640 -0.0986 -0.6356  0.8782
10000TIP3   OH254194   6.448   2.206  11.038 -0.1271 -0.8525  0.1255
10000TIP3    H154195   6.532   2.232  10.999  0.0756 -0.4918  0.7897
10000TIP3    H254196   6.470   2.129  11.092 -0.1032 -0.4102  0.7603
10001TIP3   OH254197   5.935   4.146  11.496  0.4212  0.2099 -0.2501
10001TIP3    H154198   5.991   4.182  11.565 -0.5784 -0.2421  0.8437
10001TIP3    H254199   5.990   4.081  11.452  1.1193  0.5889  0.0477
10002TIP3   OH254200   1.611   2.506  12.016  0.4620  0.5704  0.4908
10002TIP3    H154201   1.545   2.438  12.000 -0.8307  1.0267  3.3487
10002TIP3    H254202   1.639   2.533  11.928 -2.1089 -0.6644 -0.8162
10003TIP3   OH254203   0.459   1.096  11.802 -0.0028 -0.4163  0.7794
10003TIP3    H154204   0.416   1.180  11.821 -3.1301 -1.4217 -0.9486
10003TIP3    H254205   0.456   1.048  11.885  0.0718  0.5017  1.3252
10004TIP3   OH254206   4.631   4.537  10.670  0.3333 -0.4240  0.3024
10004TIP3    H154207   4.570   4.524  10.743  2.1639 -1.1059  1.7870
10004TIP3    H254208   4.631   4.632  10.656  0.9501 -0.1089  2.1413
10005TIP3   OH254209   0.731   4.969  11.246 -0.0306  0.7356  0.0455
10005TIP3    H154210   0.804   4.993  11.190  1.0050 -0.9332  0.6270
10005TIP3    H254211   0.717   5.047  11.301  2.3570  0.5790  0.9999
10006TIP3   OH254212   1.931   3.537  11.589  0.0764 -0.0954 -0.3347
10006TIP3    H154213   1.906   3.552  11.681  0.5963  1.9343 -0.4933
10006TIP3    H254214   1.950   3.443  11.585 -0.8938 -0.4033  1.4013
10007TIP3   OH254215   3.195   4.380  12.078 -0.6320 -0.3046 -0.0205
10007TIP3    H154216   3.110   4.346  12.050 -1.0336  1.5542 -1.2473
10007TIP3    H254217   3.206   4.460  12.027  0.5661  1.0182  2.1887
10008TIP3   OH254218   0.415   1.615  12.957  0.0937  0.0935  0.6653
10008TIP3    H154219   0.344   1.669  12.924  0.8838  1.5376  1.2158
10008TIP3    H254220   0.461   1.584  12.879  0.4603  1.4116  0.3280
10009TIP3   OH254221   7.376   3.535  10.962 -0.0041 -0.1238  0.3747
10009TIP3    H154222   7.398   3.442  10.962  1.4545  0.2039  0.0958
10009TIP3    H254223   7.372   3.559  11.054  0.3319 -0.2979  0.4344
10010TIP3   OH254224   0.561   5.594  13.152 -0.1054 -0.3028 -0.0169
10010TIP3    H154225   0.563   5.525  13.218  2.3810  0.0504  0.3827
10010TIP3    H254226   0.553   5.675  13.202  0.4432 -0.1219 -0.2084
10011TIP3   OH254227   6.715   4.078  11.306  0.0551 -0.1568  0.0304
10011TIP3    H154228   6.755   4.086  11.220  1.2491  0.6602  0.6335
10011TIP3    H254229   6.701   4.168  11.335  0.8128 -0.3819  1.1800
10012TIP3   OH254230   0.824   5.074  12.672 -0.3298  0.0659  0.0894
10012TIP3    H154231   0.788   5.031  12.748  0.1765  0.9385  0.8458
10012TIP3    H254232   0.848   5.162  12.702  0.1586  0.3312 -0.9866
10013TIP3   OH254233   3.181   7.065  11.158 -0.4498  0.3722  0.1399
10013TIP3    H154234   3.162   7.139  11.215 -0.7354 -0.2603  0.8747
10013TIP3    H254235   3.185   6.990  11.216 -0.9780 -0.3256 -0.6976
10014TIP3   OH254236   0.705   4.960  10.455  0.3245  0.1504  0.4654
10014TIP3    H154237   0.743   5.003  10.532  0.0673  1.3308 -0.0429
10014TIP3    H254238   0.757   4.880  10.444  1.5721  0.8746  0.7929
10015TIP3   OH254239   5.921   0.362  10.658 -0.2337  0.2862 -0.0000
10015TIP3    H154240   5.872   0.435  10.620  0.7053  0.0441 -1.7686
10015TIP3    H254241   6.012   0.391  10.658 -0.2061  0.5319  2.7907
10016TIP3   OH254242   4.400   6.790  12.870  0.3247 -0.1511 -1.0306
10016TIP3    H154243   4.438   6.826  12.950  0.8703 -3.4352  0.3608
10016TIP3    H254244   4.306   6.792  12.885  0.4181 -0.5989 -0.3464
10017TIP3   OH254245   0.343   3.256  12.291  0.0038 -0.4163  0.0531
10017TIP3    H154246   0.275   3.199  12.327  0.0345  0.3654  1.4067
10017TIP3    H254247   0.307   3.344  12.299  1.8767  0.2223  2.6103
10018TIP3   OH254248   2.038   3.268  11.520 -0.1300  0.4780 -0.0875
10018TIP3    H154249   1.993   3.199  11.570 -2.7444  1.8463 -0.3358
10018TIP3    H254250   2.096   3.222  11.460 -0.5164 -1.4058  0.9243
10019TIP3   OH254251   3.052   6.221  12.474 -0.7117 -0.3966 -0.3116
10019TIP3    H154252   2.966   6.185  12.453 -2.0294  0.9310  2.2985
10019TIP3    H254253   3.035   6.313  12.495  1.4415  0.0470 -0.2698
10020TIP3   OH254254   2.236   5.249  11.496  0.1120 -0.1849 -0.5534
10020TIP3    H154255   2.316   5.197  11.487  1.0256  0.9252  0.7079
10020TIP3    H254256   2.171   5.201  11.445  0.9655 -2.4010  0.2803
10021TIP3   OH254257   0.904   2.947  13.256 -0.2047 -0.3158 -0.2644
10021TIP3    H154258   0.862   3.033  13.246  2.0264  0.8996  0.3357
10021TIP3    H254259   0.928   2.942  13.348  0.1013 -1.3965 -0.3909
10022TIP3   OH254260   0.669   0.462  12.544  0.7274 -0.0752 -0.5786
10022TIP3    H154261   0.684   0.524  12.472  1.1142  1.2342  0.5878
10022TIP3    H254262   0.748   0.469  12.598 -2.0910  4.1311  3.6698
10023TIP3   OH254263   1.735   5.221  12.022  0.3907 -0.2605 -0.0952
10023TIP3    H154264   1.680   5.244  12.097  1.2608 -0.8593  0.7594
10023TIP3    H254265   1.680   5.166  11.967 -0.2702  0.2048  0.0944
10024TIP3   OH254266   5.507   0.768  12.350  0.0953  0.6294 -0.5718
10024TIP3    H154267   5.497   0.766  12.445  0.2902  0.7154 -0.5475
10024TIP3    H254268   5.450   0.698  12.318 -0.7565  1.2578 -0.4632
10025TIP3   OH254269   0.115   5.403  11.190 -0.3413 -0.7419 -0.3835
10025TIP3    H154270   0.128   5.335  11.123 -2.3440 -1.2469 -0.3184
10025TIP3    H254271   0.058   5.467  11.148 -1.8444 -1.1952  0.8824
10026TIP3   OH254272   3.588   7.166  12.607  0.1524 -1.0936  0.1722
10026TIP3    H154273   3.521   7.228  12.637  0.9423 -1.0137  1.8620
10026TIP3    H254274   3.637   7.214  12.540 -1.6890 -1.2974 -1.4114
10027TIP3   OH254275   5.802   4.436  12.607  0.9119 -0.2671  0.2908
10027TIP3    H154276   5.743   4.389  12.665  0.5572  0.5999  0.6545
10027TIP3    H254277   5.808   4.382  12.529  0.1601 -0.6878  0.5177
10028TIP3   OH254278   2.449   1.318  11.634  0.0800 -0.2864 -1.0644
10028TIP3    H154279   2.419   1.390  11.579 -0.9414 -0.5248 -0.8499
10028TIP3    H254280   2.382   1.250  11.624  0.4200 -0.7469 -0.3509
10029TIP3   OH254281   2.619   5.619  10.318  0.0543  0.3496  0.0902
10029TIP3    H154282   2.599   5.555  10.249  0.3282 -0.1183  0.4351
10029TIP3    H254283   2.534   5.650  10.347 -0.0828  0.1584 -0.1021
10030TIP3   OH254284   6.370   1.214  12.056  0.7869  0.2881 -0.6096
10030TIP3    H154285   6.398   1.177  11.972  1.5317 -0.0422 -0.2254
10030TIP3    H254286   6.445   1.199  12.115 -0.0918 -0.3702  0.3737
10031TIP3   OH254287   5.343   5.467  10.342 -0.4270  0.3953 -0.2856
10031TIP3    H154288   5.320   5.390  10.393 -0.5811 -0.2881 -1.3599
10031TIP3    H254289   5.261   5.515  10.333 -0.4815  0.3063 -0.2568
10032TIP3   OH254290   1.386   7.248  12.304  0.0775  0.4614 -0.4834
10032TIP3    H154291   1.296   7.217  12.289  0.0409 -0.0881  0.7646
10032TIP3    H254292   1.392   7.257  12.399  0.6242  2.7522 -0.6937
10033TIP3   OH254293   3.213   3.394  11.944  0.0113  0.7780 -0.1232
10033TIP3    H154294   3.220   3.438  12.029 -2.1598 -0.1286  0.5905
10033TIP3    H254295   3.213   3.300  11.966 -0.2169  0.5247 -1.1658
10034TIP3   OH254296   2.835   1.992  12.503 -0.1021 -0.4844 -0.1524
10034TIP3    H154297   2.824   1.992  12.408 -0.2926  0.8187 -0.1567
10034TIP3    H254298   2.747   2.011  12.536  0.2439  0.4983  0.2199
10035TIP3   OH254299   6.563   4.208  11.741  0.1363  0.3140  0.3307
10035TIP3    H154300   6.645   4.250  11.715  0.1898  0.6520  1.0312
10035TIP3    H254301   6.515   4.197  11.659  0.7705  0.3513 -0.0497
10036TIP3   OH254302   3.028   0.818  13.132  0.1790 -0.7137  0.1551
10036TIP3    H154303   3.000   0.737  13.174 -0.6521  0.5896  2.2913
10036TIP3    H254304   2.947   0.861  13.105  0.3848  0.5839  1.4505
10037TIP3   OH254305   2.153   4.007  11.966 -0.4170  0.3237 -0.3187
10037TIP3    H154306   2.193   4.004  12.053 -0.8813 -2.7864 -0.0776
10037TIP3    H254307   2.227   4.019  11.906  0.0091  1.5901  0.4271
10038TIP3   OH254308   4.478   5.295  11.038  0.0956 -0.5922  0.8646
10038TIP3    H154309   4.517   5.300  10.951  0.4869 -2.3043  0.9008
10038TIP3    H254310   4.503   5.377  11.080 -1.9021  1.2613 -1.3133
10039TIP3   OH254311   3.023   3.454  11.233  0.0296  0.2544 -0.6619
10039TIP3    H154312   3.116   3.468  11.214  0.7394 -1.3817  1.2843
10039TIP3    H254313   3.002   3.521  11.299  0.5490 -0.9101  0.7390
10040TIP3   OH254314   4.453   7.256  11.658  0.0266 -0.0982 -0.1241
10040TIP3    H154315   4.484   7.172  11.626 -2.2962 -1.2431  0.3941
10040TIP3    H254316   4.432   7.241  11.750 -0.7614  0.9465 -0.1071
10041TIP3   OH254317   3.880   6.285  12.941 -0.1488  0.5138  0.0479
10041TIP3    H154318   3.807   6.224  12.952 -0.1256  0.2052 -1.2617
10041TIP3    H254319   3.839   6.370  12.926 -0.2549  0.3652 -0.5475
10042TIP3   OH254320   4.694   2.022  11.530  0.9314  0.2572  0.4012
10042TIP3    H154321   4.635   2.014  11.604 -1.8840  0.9488 -1.6215
10042TIP3    H254322   4.638   2.017  11.453  3.6889 -0.3713 -1.7473
10043TIP3   OH254323   4.702   4.742  11.359  0.2141  0.0990  0.4107
10043TIP3    H154324   4.761   4.808  11.324  2.9281 -1.1725  2.2573
10043TIP3    H254325   4.724   4.662  11.310  0.5642 -0.5431  1.5697
10044TIP3   OH254326   5.832   5.209  13.250  0.4960 -0.1758  0.0318
10044TIP3    H154327   5.750   5.258  13.261  1.2509  0.8307  1.5595
10044TIP3    H254328   5.813   5.145  13.182 -0.8162  1.6784 -1.4335
10045TIP3   OH254329   7.616   1.674  11.500 -0.6513  0.4042 -0.0883
10045TIP3    H154330   7.656   1.737  11.441 -0.3380  1.3788  1.1262
10045TIP3    H254331   7.548   1.632  11.447  1.0244 -0.3311 -1.7846
10046TIP3   OH254332   1.743   3.836  12.206  0.1536 -0.6124 -0.0017
10046TIP3    H154333   1.831   3.822  12.172  0.0254  1.5324 -1.3869
10046TIP3    H254334   1.686   3.835  12.128 -0.8132 -0.3207  0.6759
10047TIP3   OH254335   6.439   5.630  10.673 -0.3750 -0.3241 -0.6089
10047TIP3    H154336   6.358   5.666  10.709 -0.7792 -1.1855 -0.6267
10047TIP3    H254337   6.431   5.535  10.686  1.5992 -0.2837  1.3685
10048TIP3   OH254338   6.307   3.976  11.888 -0.4559  0.3714  0.4333
10048TIP3    H154339   6.399   4.001  11.902 -0.5191 -0.0099  1.5839
10048TIP3    H254340   6.289   3.911  11.956 -1.6235  0.5448  0.3045
10049TIP3   OH254341   0.287   5.044  12.067  0.5172  0.1772  0.6064
10049TIP3    H154342   0.376   5.019  12.042  1.0815  2.9203 -0.5443
10049TIP3    H254343   0.297   5.092  12.149  0.2512  1.1253  0.1078
10050TIP3   OH254344   5.300   6.468  11.233  0.6707  0.0849  0.5142
10050TIP3    H154345   5.223   6.506  11.189  1.9621  1.1227 -1.0024
10050TIP3    H254346   5.374   6.516  11.196  2.3203 -2.8257 -0.2866
10051TIP3   OH254347   5.013   5.313  11.351 -0.3848 -1.1182  0.0997
10051TIP3    H154348   4.982   5.391  11.304  0.8850 -0.0949  0.9177
10051TIP3    H254349   4.945   5.247  11.333 -0.1547 -0.7085 -2.8879
10052TIP3   OH254350   0.287   7.089  12.050 -0.3598 -0.1634 -0.0891
10052TIP3    H154351   0.359   7.147  12.072  0.2274 -0.8180 -0.2409
10052TIP3    H254352   0.214   7.147  12.032  0.0861  0.5052  0.2151
10053TIP3   OH254353   2.808   1.348  10.648 -0.3716  0.4793 -0.1776
10053TIP3    H154354   2.796   1.416  10.714  0.3834  0.1158  0.3610
10053TIP3    H254355   2.751   1.373  10.576 -1.4893  0.7058  0.7573
10054TIP3   OH254356   1.335   1.620  11.613 -0.7043  0.4354 -0.1651
10054TIP3    H154357   1.378   1.632  11.528  0.7711 -0.9011  0.3482
10054TIP3    H254358   1.372   1.690  11.668 -0.1522  0.0892 -0.0883
10055TIP3   OH254359   6.907   4.572  10.832 -0.3743  0.1195  0.4470
10055TIP3    H154360   6.896   4.480  10.808 -1.3330  0.4588 -0.4718
10055TIP3    H254361   6.867   4.579  10.919 -2.6842  0.1879 -0.5650
10056TIP3   OH254362   6.459   7.525  12.650  0.0357  0.3793  0.1077
10056TIP3    H154363   6.412   7.455  12.695 -1.1281 -0.2979 -2.0671
10056TIP3    H254364   6.551   7.511  12.674 -0.0589 -2.3938 -0.8487
10057TIP3   OH254365   7.078   3.716  10.699 -0.1296 -1.1308 -0.0111
10057TIP3    H154366   7.103   3.629  10.666 -0.8790 -2.4883  2.6579
10057TIP3    H254367   6.987   3.726  10.670 -0.1148 -1.3561 -0.1446
10058TIP3   OH254368   4.802   0.181  10.226 -0.0768  0.4385 -0.8183
10058TIP3    H154369   4.890   0.215  10.206 -0.1360  0.8375 -0.4151
10058TIP3    H254370   4.744   0.256  10.214 -0.3681  0.1740 -1.0882
10059TIP3   OH254371   5.758   1.547  11.799 -0.0299  0.5405  0.6483
10059TIP3    H154372   5.696   1.485  11.837  0.4112  0.9393  2.0917
10059TIP3    H254373   5.843   1.505  11.809 -0.0783 -0.3811 -2.0912
10060TIP3   OH254374   1.489   5.116  11.427  0.4352 -0.0935 -0.0199
10060TIP3    H154375   1.552   5.068  11.374  1.2094  1.2767 -0.4019
10060TIP3    H254376   1.528   5.118  11.515  0.3941 -0.1696 -0.0001
10061TIP3   OH254377   1.699   2.894  12.367 -0.2710  0.4231  0.5729
10061TIP3    H154378   1.648   2.828  12.321  0.5398  0.4810 -0.4664
10061TIP3    H254379   1.668   2.891  12.457 -0.2308 -1.3844  0.5624
10062TIP3   OH254380   6.501   3.824  11.455 -0.3604  0.3490  0.3603
10062TIP3    H154381   6.591   3.842  11.483  0.1268  1.8397 -1.8830
10062TIP3    H254382   6.456   3.797  11.535  1.3247  2.5768  2.2014
10063TIP3   OH254383   5.785   1.381  12.850  0.1507 -0.2584  0.0337
10063TIP3    H154384   5.838   1.330  12.911  0.3370  0.2457  0.3006
10063TIP3    H254385   5.709   1.325  12.832  0.4332 -0.6959  0.1891
10064TIP3   OH254386   0.920   0.408  12.725  0.4278  0.2342  0.4094
10064TIP3    H154387   0.925   0.316  12.698  0.0381  0.8745 -2.1149
10064TIP3    H254388   1.009   0.430  12.752  0.5662 -0.8315  0.8595
10065TIP3   OH254389   6.211   6.181  10.617  0.0561  1.5050  0.3038
10065TIP3    H154390   6.262   6.115  10.664  1.8890  3.2785  0.9746
10065TIP3    H254391   6.268   6.211  10.547 -1.1056  1.7243 -0.5809
10066TIP3   OH254392   3.884   7.116  13.298 -0.2488 -0.0273  0.1364
10066TIP3    H154393   3.916   7.143  13.384 -0.1199  1.1303 -0.2545
10066TIP3    H254394   3.793   7.145  13.296 -0.7098 -1.3711  0.4207
10067TIP3   OH254395   7.359   0.522  13.233 -0.0585 -0.7846  0.0822
10067TIP3    H154396   7.377   0.534  13.326 -1.2983 -0.7182  0.3337
10067TIP3    H254397   7.348   0.611  13.199 -2.6697 -0.8543  0.5537
10068TIP3   OH254398   1.533   5.890  10.729 -0.3534  0.0755  0.0864
10068TIP3    H154399   1.584   5.840  10.665  0.5253  1.0750 -0.0251
10068TIP3    H254400   1.486   5.955  10.677 -2.2209 -1.1721  0.1273
10069TIP3   OH254401   1.338   7.537  11.624  0.1359 -0.7140  0.2428
10069TIP3    H154402   1.381   7.533  11.538 -1.6463  2.3807 -0.9746
10069TIP3    H254403   1.410   7.545  11.686  1.4855  1.0598 -1.4091
10070TIP3   OH254404   6.379   0.653  10.810  0.5857 -0.5955 -0.3119
10070TIP3    H154405   6.401   0.730  10.862  1.0732 -0.7739 -0.2486
10070TIP3    H254406   6.374   0.581  10.873 -0.9777 -0.4260 -0.2106
10071TIP3   OH254407   4.354   7.446  10.827  0.5494 -0.3859  0.0448
10071TIP3    H154408   4.407   7.366  10.835 -0.0321 -0.6896  0.9365
10071TIP3    H254409   4.352   7.463  10.732  0.9424 -1.2416 -0.1336
10072TIP3   OH254410   6.597   2.087  11.580  0.2592 -0.2853  0.3278
10072TIP3    H154411   6.560   2.156  11.526 -1.4547 -0.4241  1.2568
10072TIP3    H254412   6.586   2.007  11.528 -1.1351 -0.3783  0.7128
10073TIP3   OH254413   2.062   7.579  12.469 -0.6533  0.3336 -0.2081
10073TIP3    H154414   2.118   7.632  12.526 -0.5765  0.6882 -0.6089
10073TIP3    H254415   2.009   7.527  12.530 -0.5982  0.7321  0.1918
10074TIP3   OH254416   4.059   2.769  11.281 -0.4403 -0.1170  0.4833
10074TIP3    H154417   3.981   2.805  11.239  0.1410 -0.8293 -1.2765
10074TIP3    H254418   4.043   2.675  11.286 -0.4758 -0.0696  1.8919
10075TIP3   OH254419   7.659   2.947  12.792 -0.3493  0.2906  0.0772
10075TIP3    H154420   7.648   2.888  12.867 -1.2033 -0.0792 -0.3386
10075TIP3    H254421   7.575   2.990  12.782 -0.2621  0.2898 -0.7157
10076TIP3   OH254422   6.183   6.392  12.677 -0.3556  0.3123 -0.3101
10076TIP3    H154423   6.264   6.387  12.627 -0.3061 -0.2865 -0.1778
10076TIP3    H254424   6.148   6.303  12.676  0.0922  0.0705  1.4318
10077TIP3   OH254425   5.931   2.656  10.772  0.3591 -0.1616 -0.1489
10077TIP3    H154426   5.953   2.566  10.749  1.6158  0.0039  0.3172
10077TIP3    H254427   5.848   2.649  10.820  1.2410 -1.2890  1.3229
10078TIP3   OH254428   3.520   7.418  11.916 -0.2938  0.1822 -0.7686
10078TIP3    H154429   3.455   7.352  11.943  1.3499 -2.0620 -1.9281
10078TIP3    H254430   3.563   7.378  11.840  0.8241  2.6483 -1.5188
10079TIP3   OH254431   5.807   2.224  11.625 -0.4718 -0.0074  0.5698
10079TIP3    H154432   5.855   2.143  11.644  1.0069  0.7836  0.3928
10079TIP3    H254433   5.752   2.201  11.549 -0.7131 -1.0575  1.0370
10080TIP3   OH254434   5.105   1.870  12.030 -0.6963  0.6935 -0.5385
10080TIP3    H154435   5.186   1.901  12.069 -0.8263 -0.5578  0.8191
10080TIP3    H254436   5.060   1.949  12.001  0.6454  1.4529 -0.6064
10081TIP3   OH254437   5.512   1.443  11.883 -0.4304 -0.0089  0.3525
10081TIP3    H154438   5.456   1.515  11.913 -1.6852 -1.0417  0.5792
10081TIP3    H254439   5.527   1.389  11.961  0.5488  0.0272  0.1993
10082TIP3   OH254440   4.620   6.255  13.372 -0.2241  0.1594 -0.1878
10082TIP3    H154441   4.647   6.330  13.425  0.4798  0.4115 -0.8992
10082TIP3    H254442   4.547   6.288  13.319  1.7727  1.1492 -2.4488
10083TIP3   OH254443   4.070   5.931  11.797 -0.0598  0.0330 -0.0552
10083TIP3    H154444   3.996   5.921  11.737 -0.5006 -0.9188  0.6130
10083TIP3    H254445   4.086   6.025  11.801 -0.5019  0.1683 -1.0766
10084TIP3   OH254446   4.312   2.409  11.563  0.4831 -0.1927  0.0158
10084TIP3    H154447   4.360   2.492  11.567  0.1628  0.0066 -0.2961
10084TIP3    H254448   4.376   2.344  11.593  1.1805 -0.0258 -1.0330
10085TIP3   OH254449   4.169   7.071  11.915  0.4830  0.1855 -0.0944
10085TIP3    H154450   4.241   7.135  11.910  0.0164  0.7163 -0.1523
10085TIP3    H254451   4.114   7.104  11.986 -0.1989  0.3043 -0.6766
10086TIP3   OH254452   2.653   1.113  10.837 -0.0212 -0.3083  0.1179
10086TIP3    H154453   2.608   1.036  10.871 -0.1789  0.3685  1.5546
10086TIP3    H254454   2.612   1.187  10.883 -0.4628  0.7207 -1.8523
10087TIP3   OH254455   0.016   6.820  11.107 -0.1331  0.1988  0.3936
10087TIP3    H154456  -0.015   6.874  11.179  0.2686 -1.1548  1.6190
10087TIP3    H254457   0.018   6.731  11.142  1.1885 -0.3287 -0.9131
10088TIP3   OH254458   6.960   1.717  13.456 -0.6381 -0.4298  0.6808
10088TIP3    H154459   6.921   1.631  13.444  0.7362 -0.8023 -1.9473
10088TIP3    H254460   6.901   1.777  13.411 -0.3473 -0.3816  0.3577
10089TIP3   OH254461   1.784   5.020  12.573 -0.3409 -0.1057  0.0790
10089TIP3    H154462   1.865   4.995  12.528 -0.9335  0.8073 -1.6035
10089TIP3    H254463   1.725   4.947  12.560 -0.8712  0.5823 -1.6650
10090TIP3   OH254464   4.224   3.413  11.489 -0.1329 -0.2867 -0.3987
10090TIP3    H154465   4.311   3.444  11.513  1.1488 -2.3123 -2.0998
10090TIP3    H254466   4.202   3.348  11.555  0.5424 -1.1906 -1.0445
10091TIP3   OH254467   2.053   7.135  12.105  0.7599  0.3790 -0.3448
10091TIP3    H154468   2.095   7.200  12.162 -0.4987 -0.1575  1.2909
10091TIP3    H254469   1.997   7.084  12.165  1.0416 -1.6389 -1.7172
10092TIP3   OH254470   6.477   2.785  10.690 -0.1136  0.1603  1.0492
10092TIP3    H154471   6.535   2.860  10.679 -0.3751  0.0546 -1.7769
10092TIP3    H254472   6.396   2.822  10.724  0.3702  0.8405  1.4951
10093TIP3   OH254473   2.532   0.961  12.515 -0.3651  0.2045 -0.2317
10093TIP3    H154474   2.564   1.042  12.475  0.1905  0.4456  0.6842
10093TIP3    H254475   2.561   0.892  12.455 -0.8466  0.6611 -1.0219
10094TIP3   OH254476   5.354   5.099  12.365 -0.2686 -0.0798  0.0891
10094TIP3    H154477   5.320   5.188  12.371 -0.1503 -0.0829  0.9997
10094TIP3    H254478   5.428   5.106  12.305  0.3559  0.6449  0.9194
10095TIP3   OH254479   2.336   0.112  12.499  0.5416 -0.0854 -0.6766
10095TIP3    H154480   2.417   0.097  12.548  0.6131  2.2428  0.0414
10095TIP3    H254481   2.268   0.072  12.554  0.9105  0.2584  0.0431
10096TIP3   OH254482   1.637   5.507  11.872 -0.0619 -0.2522  0.4494
10096TIP3    H154483   1.665   5.435  11.928  0.1059 -1.2198 -0.8448
10096TIP3    H254484   1.574   5.468  11.812  1.1776  0.2901 -1.2940
10097TIP3   OH254485   5.261   2.414  10.956 -0.1476 -0.0797 -0.3212
10097TIP3    H154486   5.248   2.487  10.895  0.4398  0.0977 -0.2427
10097TIP3    H254487   5.252   2.453  11.043 -1.1388 -0.3638 -0.2877
10098TIP3   OH254488   6.567   6.277  12.307  0.0385 -0.3625 -0.6627
10098TIP3    H154489   6.508   6.345  12.341  1.1094 -0.3098  1.1978
10098TIP3    H254490   6.592   6.309  12.220  0.4376  1.6189  0.1149
10099TIP3   OH254491   6.411   1.299  10.954 -0.1647  0.3947  0.1667
10099TIP3    H154492   6.391   1.316  10.862 -0.2490  0.4545  0.1956
10099TIP3    H254493   6.465   1.372  10.981 -0.0004  0.2916  0.1198
10100TIP3   OH254494   5.643   6.649  11.945  0.0323  0.0678 -0.4472
10100TIP3    H154495   5.590   6.728  11.939 -0.7393 -0.3160  0.8748
10100TIP3    H254496   5.691   6.658  12.027  0.9264 -0.2567 -0.9174
10101TIP3   OH254497   1.897   2.565  10.962 -0.2283  0.0042  0.2277
10101TIP3    H154498   1.914   2.508  10.887 -0.1710 -0.4253  0.5587
10101TIP3    H254499   1.865   2.647  10.924  0.7476  0.1511 -0.3165
10102TIP3   OH254500   3.026   3.773  11.245 -0.4371  0.0473 -0.6618
10102TIP3    H154501   3.033   3.729  11.160  0.4137  0.4709 -0.8116
10102TIP3    H254502   2.935   3.803  11.248 -0.2333  0.8353 -1.8211
10103TIP3   OH254503   5.648   2.035  11.980  0.5974 -0.0533 -0.0204
10103TIP3    H154504   5.616   2.059  12.067  0.2597 -0.9689  0.1190
10103TIP3    H254505   5.702   1.957  11.994 -1.0108 -1.3847 -0.8437
10104TIP3   OH254506   3.531   0.275  12.825 -0.2069  0.0967 -0.0277
10104TIP3    H154507   3.561   0.362  12.851  2.1997 -0.1285 -1.7545
10104TIP3    H254508   3.455   0.292  12.768 -1.5298  0.8485  1.8458
10105TIP3   OH254509   2.203   1.220  11.150 -0.2760 -0.1458  0.3270
10105TIP3    H154510   2.269   1.159  11.183  0.6098  0.1426 -0.8342
10105TIP3    H254511   2.249   1.272  11.085 -1.0829  1.5923  1.0947
10106TIP3   OH254512   1.573   0.741  11.248 -0.4931 -0.0458  0.1899
10106TIP3    H154513   1.591   0.651  11.273 -4.3078 -1.0986 -0.3522
10106TIP3    H254514   1.614   0.751  11.162 -0.3957 -1.4040  0.0593
10107TIP3   OH254515   6.963   2.366  11.658  0.4874  0.1213  0.1604
10107TIP3    H154516   6.975   2.458  11.682  0.2082  0.0752  0.4849
10107TIP3    H254517   6.871   2.349  11.675  1.2546 -1.2472  3.7730
10108TIP3   OH254518   3.634   3.262  12.205  0.8015 -0.2193 -0.4313
10108TIP3    H154519   3.589   3.184  12.239  0.6199 -0.3040 -0.8566
10108TIP3    H254520   3.612   3.331  12.267  1.5989 -0.6766  0.3883
10109TIP3   OH254521   1.967   3.017  11.003 -0.1233 -0.0680 -0.7409
10109TIP3    H154522   2.037   3.079  11.023 -0.9709  0.6266  0.1677
10109TIP3    H254523   2.012   2.942  10.964  1.1152  0.3968 -0.2626
10110TIP3   OH254524   5.485   4.850  12.907  0.2340  0.0332 -0.1818
10110TIP3    H154525   5.560   4.887  12.859 -0.9014  2.9459  0.0537
10110TIP3    H254526   5.516   4.842  12.997  0.0557  2.2219  0.1344
10111TIP3   OH254527   5.744   1.597  10.853 -0.2340  0.6429 -0.2060
10111TIP3    H154528   5.665   1.633  10.892 -0.7683 -0.2615 -0.4373
10111TIP3    H254529   5.789   1.554  10.925  0.3855  1.6973  0.0624
10112TIP3   OH254530   1.619   5.836  10.426  0.4202 -0.0644 -0.0400
10112TIP3    H154531   1.608   5.889  10.347  0.5650  1.1564  0.7183
10112TIP3    H254532   1.537   5.788  10.435  0.5948 -0.5938 -1.1932
10113TIP3   OH254533   0.079   1.520  11.683 -0.0351 -0.0291 -0.1317
10113TIP3    H154534   0.074   1.494  11.774 -2.1344 -1.0974 -0.4868
10113TIP3    H254535  -0.011   1.547  11.660  1.1460  4.0302 -0.8650
10114TIP3   OH254536   6.976   4.471  12.103  0.2553 -0.8611  0.2448
10114TIP3    H154537   7.014   4.416  12.034 -0.3612 -2.8663  1.4278
10114TIP3    H254538   6.904   4.419  12.138  0.2711  0.3010  2.1261
10115TIP3   OH254539   4.937   6.999  11.402  0.1798 -0.0074  0.5082
10115TIP3    H154540   4.934   7.032  11.313  2.7372 -1.2989 -0.1376
10115TIP3    H254541   4.898   6.911  11.397 -2.0871  0.8913  1.2466
10116TIP3   OH254542   0.725   7.283  11.579 -0.3307  0.5887 -0.0091
10116TIP3    H154543   0.779   7.330  11.516 -0.8231 -0.8459 -1.5887
10116TIP3    H254544   0.784   7.219  11.619 -0.7962 -0.9955 -1.7521
10117TIP3   OH254545   4.182   6.453  10.572 -0.3186 -0.6511 -0.2828
10117TIP3    H154546   4.094   6.442  10.609 -0.5241  0.4031 -0.4282
10117TIP3    H254547   4.187   6.546  10.551  0.2278 -0.9965 -1.8075
10118TIP3   OH254548   5.434   4.510  10.890  0.4041 -0.0365  0.0930
10118TIP3    H154549   5.454   4.597  10.856 -0.6416  0.5092  0.8476
10118TIP3    H254550   5.348   4.519  10.931  0.2825 -1.4241  0.1899
10119TIP3   OH254551   3.754   2.398  12.522 -0.0615 -0.2453  0.5736
10119TIP3    H154552   3.717   2.398  12.610 -0.0293 -0.9564  0.5929
10119TIP3    H254553   3.715   2.322  12.479  0.2994 -0.1929  0.1381
10120TIP3   OH254554   2.466   0.597  12.904 -0.3325  0.5682  0.2715
10120TIP3    H154555   2.503   0.567  12.988 -0.9342  0.4669  0.5069
10120TIP3    H254556   2.507   0.682  12.889 -1.5942  1.4705  1.6133
10121TIP3   OH254557   6.575   4.545  12.641 -0.3521  0.1953  0.0636
10121TIP3    H154558   6.658   4.537  12.595 -0.8055 -2.5932 -0.4461
10121TIP3    H254559   6.575   4.473  12.704 -3.0517 -1.0353 -1.1834
10122TIP3   OH254560   3.070   0.387  12.667 -0.1224 -0.3153  0.4412
10122TIP3    H154561   2.989   0.436  12.680  0.7268  1.0146  0.9172
10122TIP3    H254562   3.045   0.313  12.612 -1.5031  0.5245 -0.1121
10123TIP3   OH254563   7.582   6.395  11.133 -0.0232  0.0996  0.3138
10123TIP3    H154564   7.499   6.371  11.175 -0.2062 -0.0802 -0.1334
10123TIP3    H254565   7.556   6.422  11.044  0.2880  0.9995  0.4807
10124TIP3   OH254566   2.509   4.827  12.223 -0.4713  0.0634  0.2872
10124TIP3    H154567   2.598   4.792  12.235 -1.1123 -1.6668  0.1459
10124TIP3    H254568   2.452   4.763  12.264 -1.8784 -0.2743 -2.0388
10125TIP3   OH254569   0.418   4.678  12.009  0.4582  0.0269  0.3163
10125TIP3    H154570   0.345   4.713  12.060  0.0188  1.2795 -1.0861
10125TIP3    H254571   0.458   4.612  12.066 -2.3627 -1.4378  0.7997
10126TIP3   OH254572   6.120   0.831  10.926 -0.6517 -0.4898  0.6536
10126TIP3    H154573   6.188   0.766  10.909 -0.3415  0.0585 -0.2288
10126TIP3    H254574   6.168   0.912  10.942 -1.0690 -0.2811  0.8530
10127TIP3   OH254575   1.838   2.213  11.820 -0.9588 -0.4289  0.4831
10127TIP3    H154576   1.850   2.122  11.794 -1.7873 -0.2590 -0.5821
10127TIP3    H254577   1.855   2.214  11.914  2.1421 -1.1085  0.0521
10128TIP3   OH254578   0.362   6.979  12.678  0.1295 -0.0942  0.2753
10128TIP3    H154579   0.310   6.956  12.755 -1.3006  0.7015 -0.4092
10128TIP3    H254580   0.328   6.923  12.609  0.7820 -0.1659  0.0068
10129TIP3   OH254581   3.941   0.363  10.420  0.5449  0.6457 -0.1396
10129TIP3    H154582   3.903   0.286  10.378  2.2046 -0.6749  0.6415
10129TIP3    H254583   3.983   0.411  10.348 -1.6290  1.6092 -0.8482
10130TIP3   OH254584   3.130   5.480  12.080  0.3691 -0.1511 -0.2847
10130TIP3    H154585   3.219   5.456  12.053  0.1198 -1.6766  0.1337
10130TIP3    H254586   3.082   5.486  11.997  0.6091 -0.4271 -0.4481
10131TIP3   OH254587   0.773   7.350  11.291  0.0782  0.0809  0.6534
10131TIP3    H154588   0.767   7.254  11.288 -0.3173  0.0590  1.6249
10131TIP3    H254589   0.686   7.381  11.265 -0.0431  0.1472  1.1249
10132TIP3   OH254590   7.022   4.812  11.026  0.2120 -0.2079  0.1564
10132TIP3    H154591   6.994   4.749  11.093 -1.2154  0.0732 -0.1365
10132TIP3    H254592   7.070   4.760  10.962  1.1316 -0.5715  1.1153
10133TIP3   OH254593   3.063   1.842  11.782 -0.2396 -0.0561 -0.2569
10133TIP3    H154594   3.093   1.919  11.831  3.1323 -1.5668  0.3377
10133TIP3    H254595   3.045   1.776  11.849  0.6513 -0.9572 -0.8793
10134TIP3   OH254596   4.481   7.626  12.138  0.1354 -0.2400  0.0195
10134TIP3    H154597   4.427   7.608  12.215  0.4665 -0.3546  0.2254
10134TIP3    H254598   4.556   7.567  12.146  0.2151 -0.1929 -0.3469
10135TIP3   OH254599   2.354   2.427  12.464  0.1443  0.3631 -0.0409
10135TIP3    H154600   2.336   2.442  12.371 -3.5793 -2.1279  0.0782
10135TIP3    H254601   2.416   2.355  12.465 -2.3168 -1.9381 -0.8064
10136TIP3   OH254602   1.065   7.308  10.594 -0.3145 -0.8380 -0.2165
10136TIP3    H154603   1.093   7.255  10.670 -0.0305 -0.7884 -0.2872
10136TIP3    H254604   1.022   7.245  10.537  1.8562 -1.4503 -1.2841
10137TIP3   OH254605   0.951   1.933  11.386  0.0009  0.1103 -0.5108
10137TIP3    H154606   1.037   1.941  11.426  0.2279 -1.6856 -0.5583
10137TIP3    H254607   0.896   1.895  11.455 -0.8809  1.6174 -0.3446
10138TIP3   OH254608   5.945   0.744  13.053 -0.1331 -0.2688  0.0377
10138TIP3    H154609   5.925   0.807  13.122  0.4887 -0.7175  0.6437
10138TIP3    H254610   5.871   0.750  12.992  0.8820  2.5622 -1.0713
10139TIP3   OH254611   6.744   3.530  11.638  0.6751 -0.4917  0.2792
10139TIP3    H154612   6.828   3.484  11.639  1.9247  1.6514  0.7455
10139TIP3    H254613   6.750   3.589  11.562  0.0774  0.4880  0.9641
10140TIP3   OH254614   4.558   6.801  11.431  0.2452  0.2639  0.0801
10140TIP3    H154615   4.596   6.829  11.348  0.4362  0.2007  0.1452
10140TIP3    H254616   4.612   6.726  11.458  1.5601  1.5711  1.3148
10141TIP3   OH254617   5.777   1.492  11.310 -0.2743 -0.3090 -0.7858
10141TIP3    H154618   5.781   1.481  11.215 -0.2879  1.0823 -0.9729
10141TIP3    H254619   5.684   1.486  11.331 -0.3122 -0.2111 -0.9232
10142TIP3   OH254620   6.298   0.039  12.839  0.0279 -0.1909 -0.0099
10142TIP3    H154621   6.286  -0.043  12.792 -1.1948  0.1934 -0.4031
10142TIP3    H254622   6.389   0.064  12.822 -0.5527  0.3029 -2.7916
10143TIP3   OH254623   2.352   2.103  10.908  0.1525  0.3487  0.0228
10143TIP3    H154624   2.310   2.019  10.924  0.6300  0.4588  2.2624
10143TIP3    H254625   2.301   2.166  10.959  2.6382  0.5470  2.4906
10144TIP3   OH254626   5.418   5.369  13.011 -0.4565  0.1858  0.1485
10144TIP3    H154627   5.354   5.437  12.993 -0.0634 -0.0057 -2.3093
10144TIP3    H254628   5.372   5.287  12.993 -0.2679 -0.0935  0.8922
10145TIP3   OH254629   2.853   6.534  12.625 -0.5843 -0.4654 -0.1101
10145TIP3    H154630   2.948   6.521  12.615 -0.0293  0.7392  2.6477
10145TIP3    H254631   2.817   6.446  12.628  0.6996 -1.0010  0.4910
10146TIP3   OH254632   5.996   3.800  13.189  0.1353 -0.0754  0.6113
10146TIP3    H154633   5.933   3.733  13.165 -1.3427  1.3668  0.2539
10146TIP3    H254634   6.036   3.768  13.270 -0.5513 -1.3574  0.4588
10147TIP3   OH254635   0.528   6.476  12.752 -0.6875 -0.4627  1.0912
10147TIP3    H154636   0.623   6.476  12.744 -0.4403 -3.3100  2.8408
10147TIP3    H254637   0.509   6.556  12.800  0.7087  0.4569  0.2119
10148TIP3   OH254638   1.106   2.276  11.619  0.2566 -0.0726  0.3351
10148TIP3    H154639   1.034   2.213  11.627 -1.8684  2.2213  0.5672
10148TIP3    H254640   1.120   2.307  11.709  2.1242 -1.0008  0.4178
10149TIP3   OH254641   6.011   3.032  11.826  0.0788  0.1408  0.1394
10149TIP3    H154642   6.010   3.016  11.732  1.3488 -2.3883  0.4552
10149TIP3    H254643   6.003   3.127  11.835  0.0657  0.4580 -2.5039
10150TIP3   OH254644   4.887   2.369  11.570  0.3162  0.0133 -0.0566
10150TIP3    H154645   4.846   2.399  11.489  0.3868  2.2048  0.6555
10150TIP3    H254646   4.888   2.446  11.627  0.8716 -1.2824  1.8047
10151TIP3   OH254647   7.125   5.780  13.366 -0.4213  0.1919  0.4367
10151TIP3    H154648   7.217   5.789  13.392 -0.0504  0.7818 -0.9494
10151TIP3    H254649   7.076   5.812  13.441  0.4436 -1.3305  1.6979
10152TIP3   OH254650   4.240   0.336  11.674  0.0432 -0.5308 -0.2836
10152TIP3    H154651   4.290   0.263  11.639 -0.2094 -0.8162 -0.0505
10152TIP3    H254652   4.207   0.382  11.596 -4.4658 -3.7810 -0.6955
10153TIP3   OH254653   5.211   0.244  12.398  0.2057 -0.0009 -0.1606
10153TIP3    H154654   5.156   0.174  12.434  0.2126  0.0208 -0.1078
10153TIP3    H254655   5.155   0.322  12.400  0.1993 -0.0035 -0.2144
10154TIP3   OH254656   3.044   2.788  12.959  0.2636  0.3325  0.5616
10154TIP3    H154657   3.059   2.840  12.881 -0.1938  0.4650  0.5586
10154TIP3    H254658   3.011   2.850  13.024  0.0793  0.1186  0.6758
10155TIP3   OH254659   5.884   5.046  12.241  0.1880 -0.5804 -0.0532
10155TIP3    H154660   5.902   5.052  12.147  0.0403 -1.2593 -0.1310
10155TIP3    H254661   5.870   5.136  12.269 -0.8490 -0.4523 -0.9086
10156TIP3   OH254662   7.498   1.015  11.477 -0.3163  0.3687  0.4700
10156TIP3    H154663   7.561   1.068  11.427 -0.4628  1.8735  1.7740
10156TIP3    H254664   7.412   1.042  11.444 -0.3836  0.8862  1.0325
10157TIP3   OH254665   3.183   4.475  11.595 -0.3000 -0.2999  0.2569
10157TIP3    H154666   3.104   4.522  11.570 -0.6340 -0.5793  0.7551
10157TIP3    H254667   3.229   4.458  11.512 -0.7155 -0.0594 -0.0244
10158TIP3   OH254668   0.957   6.834  12.613 -0.3691  0.0645  0.9043
10158TIP3    H154669   0.901   6.904  12.579  0.3452 -0.7987 -2.4116
10158TIP3    H254670   1.036   6.880  12.644  0.1691  0.8335 -1.3972
10159TIP3   OH254671   3.869   0.444  12.784  0.0989  0.2114 -0.1945
10159TIP3    H154672   3.783   0.439  12.827 -1.0422 -4.2162 -2.3369
10159TIP3    H254673   3.849   0.461  12.692  1.5618 -0.1558 -0.6084
10160TIP3   OH254674   5.994   0.389  10.965  0.0046 -0.4880  0.3463
10160TIP3    H154675   6.068   0.329  10.955  0.9394  0.5624  0.7484
10160TIP3    H254676   5.984   0.429  10.878 -1.3560 -2.0026 -0.2460
10161TIP3   OH254677   3.978   0.966  11.626  0.7020  0.3213 -0.5604
10161TIP3    H154678   3.905   0.960  11.688  0.5940  2.1745 -0.4579
10161TIP3    H254679   3.949   0.916  11.549  0.1898 -0.6637  0.2456
10162TIP3   OH254680   4.790   1.783  12.812  0.3114 -0.1843 -0.1613
10162TIP3    H154681   4.768   1.833  12.734  1.0601  0.8994  0.2788
10162TIP3    H254682   4.727   1.712  12.815  1.0276 -1.0023 -2.4243
10163TIP3   OH254683   6.863   6.739  10.733  0.1017 -0.5140  0.1384
10163TIP3    H154684   6.839   6.828  10.707 -1.1652 -0.6464  0.7638
10163TIP3    H254685   6.866   6.689  10.652  1.0008  0.1352 -0.2356
10164TIP3   OH254686   1.992   5.182  12.929  0.1638 -0.0291  0.6938
10164TIP3    H154687   1.904   5.150  12.908  0.3085 -0.9955  1.5073
10164TIP3    H254688   1.985   5.214  13.019  0.4965  0.4918  0.5417
10165TIP3   OH254689   2.660   6.768  12.061  0.1032 -0.6115 -0.0747
10165TIP3    H154690   2.586   6.801  12.009  1.4978  0.4624 -1.4653
10165TIP3    H254691   2.637   6.790  12.151 -0.8935  0.5186 -0.5706
10166TIP3   OH254692   0.994   0.854  13.092 -0.5151  0.1202  0.3323
10166TIP3    H154693   1.050   0.821  13.162  1.3395 -1.1523 -1.6297
10166TIP3    H254694   0.909   0.811  13.107 -1.4606  2.7540  3.8637
10167TIP3   OH254695   7.402   7.188  12.187  0.8167  0.4339 -0.7152
10167TIP3    H154696   7.444   7.213  12.105  0.6971  0.2805 -0.8244
10167TIP3    H254697   7.315   7.158  12.161  1.2601 -0.9496 -0.6993
10168TIP3   OH254698   6.056   0.739  11.357  0.2363  0.0551  0.5748
10168TIP3    H154699   5.980   0.704  11.310  1.7449 -1.9510 -0.5193
10168TIP3    H254700   6.033   0.831  11.373 -2.2919 -0.3927  0.0814
10169TIP3   OH254701   2.931   7.252  10.816 -0.5396 -0.9277  0.1328
10169TIP3    H154702   2.841   7.280  10.829 -0.2887  0.5258 -1.0426
10169TIP3    H254703   2.974   7.268  10.899 -1.2976 -1.4577  0.6434
10170TIP3   OH254704   2.228   7.449  11.920  0.3916 -0.1829  0.3908
10170TIP3    H154705   2.271   7.483  11.998  0.0802 -0.7133  0.7976
10170TIP3    H254706   2.249   7.356  11.920 -0.9810 -0.5057  0.7528
10171TIP3   OH254707   3.759   0.827  11.036  0.5540 -0.0733 -0.0250
10171TIP3    H154708   3.736   0.771  10.962 -0.5714  0.0910  0.1846
10171TIP3    H254709   3.853   0.839  11.029  0.7540 -1.6826 -0.2915
10172TIP3   OH254710   6.472   5.151  11.530  0.4029  0.2222 -0.6337
10172TIP3    H154711   6.485   5.091  11.603  1.7266  1.0579 -0.1449
10172TIP3    H254712   6.382   5.181  11.539  1.3219  2.5482  2.4491
10173TIP3   OH254713   3.333   6.097  11.874 -0.3896  0.0774 -0.3656
10173TIP3    H154714   3.381   6.172  11.909 -0.1203  0.2496 -1.0749
10173TIP3    H254715   3.297   6.053  11.951 -0.4447  0.8608  0.0634
10174TIP3   OH254716   6.598   5.936  10.907 -0.4235  0.3373 -0.1595
10174TIP3    H154717   6.582   6.005  10.971 -0.5648  0.5870 -0.4634
10174TIP3    H254718   6.693   5.927  10.905 -0.4564 -1.5817  2.1090
10175TIP3   OH254719   0.796   6.903  11.438  0.0470 -0.1955 -0.2373
10175TIP3    H154720   0.866   6.844  11.409 -1.4563 -2.4833  0.5280
10175TIP3    H254721   0.794   6.893  11.533 -0.8928  0.3334 -0.1961
10176TIP3   OH254722   2.179   5.439  10.618 -0.0611  0.3000 -0.4472
10176TIP3    H154723   2.135   5.465  10.699  1.3933  1.2487  0.0749
10176TIP3    H254724   2.148   5.350  10.601  0.1108 -0.1710  1.5240
10177TIP3   OH254725   4.623   5.750  12.556  0.0529 -0.3377  0.4801
10177TIP3    H154726   4.622   5.838  12.517  0.9143 -0.5544 -0.0581
10177TIP3    H254727   4.699   5.751  12.614  1.2131 -1.3072 -0.9478
10178TIP3   OH254728   4.276   7.519  11.957 -0.3503 -0.3249  0.0598
10178TIP3    H154729   4.353   7.553  12.001  0.1991 -1.5568  0.0910
10178TIP3    H254730   4.202   7.544  12.013 -0.5553  4.3501 -1.8720
10179TIP3   OH254731   6.740   0.139  11.854  0.3104  0.0691  0.3183
10179TIP3    H154732   6.750   0.187  11.772 -1.2606  0.8435  0.5333
10179TIP3    H254733   6.671   0.075  11.836  1.9914 -1.8447  0.2043
10180TIP3   OH254734   5.644   6.402  10.967 -0.4529  0.1759  0.3064
10180TIP3    H154735   5.652   6.314  11.002  1.4850  0.5433  0.8873
10180TIP3    H254736   5.644   6.390  10.872  0.2046 -0.4175  0.3767
10181TIP3   OH254737   4.883   3.601  11.902 -0.2267 -0.0785  0.2077
10181TIP3    H154738   4.973   3.569  11.911 -0.7482 -1.5298  0.3996
10181TIP3    H254739   4.847   3.597  11.990 -0.4650  0.5864  0.1453
10182TIP3   OH254740   6.503   0.316  11.991  0.2381 -0.4152  0.0242
10182TIP3    H154741   6.478   0.399  12.032 -0.6542 -0.6551 -0.0060
10182TIP3    H254742   6.525   0.339  11.900  1.0721 -0.0579  0.3094
10183TIP3   OH254743   1.910   4.242  11.224 -0.3636  0.3270 -0.2080
10183TIP3    H154744   1.851   4.313  11.248 -1.4457 -0.4601 -0.4549
10183TIP3    H254745   1.866   4.163  11.256  0.6366 -0.2653 -0.2607
10184TIP3   OH254746   7.656   3.850  11.102  0.3492 -0.1368  0.0073
10184TIP3    H154747   7.659   3.818  11.192 -2.0804  0.3224  0.3176
10184TIP3    H254748   7.676   3.773  11.048  0.1678 -0.8133  0.8975
10185TIP3   OH254749   5.718   7.208  10.787  0.4111 -0.1218 -0.3863
10185TIP3    H154750   5.639   7.236  10.741  0.9255  1.7365 -0.2046
10185TIP3    H254751   5.772   7.168  10.719  0.5712  1.3399 -1.1634
10186TIP3   OH254752   5.437   3.441  11.948  0.2044 -0.3524  0.0628
10186TIP3    H154753   5.506   3.421  12.011  0.3469 -1.0551 -0.3151
10186TIP3    H254754   5.437   3.368  11.887 -0.9574 -0.4270  0.1226
10187TIP3   OH254755   5.226   0.652  11.194 -0.0410  0.2371 -0.1546
10187TIP3    H154756   5.274   0.608  11.124 -2.2177 -0.0266 -1.5732
10187TIP3    H254757   5.182   0.581  11.241 -0.9634  0.6366 -0.3992
10188TIP3   OH254758   4.248   6.999  11.591 -0.1316  0.2818  0.2038
10188TIP3    H154759   4.213   7.074  11.638 -0.8686  0.3813 -0.4899
10188TIP3    H254760   4.258   6.931  11.658 -0.8437  0.5328  0.5687
10189TIP3   OH254761   4.162   0.584  11.143 -0.0304  0.0058 -0.3745
10189TIP3    H154762   4.168   0.566  11.050  2.5875 -0.4904 -0.1845
10189TIP3    H254763   4.203   0.670  11.154  1.0708 -0.6073  0.4724
10190TIP3   OH254764   6.778   4.804  13.232 -0.3507 -0.7661 -0.0712
10190TIP3    H154765   6.783   4.710  13.220 -0.2484 -1.0592  1.8525
10190TIP3    H254766   6.687   4.820  13.260 -0.2730 -0.3408 -0.0503
10191TIP3   OH254767   1.090   0.654  12.626  0.0948 -0.1313 -0.2696
10191TIP3    H154768   1.074   0.718  12.696 -0.9537 -1.1915  0.4866
10191TIP3    H254769   1.045   0.575  12.655  1.4802 -1.2762 -1.1286
10192TIP3   OH254770   0.761   3.791  11.134  0.0517 -0.5396  0.2154
10192TIP3    H154771   0.786   3.730  11.203 -0.7925 -0.0439  0.9891
10192TIP3    H254772   0.741   3.873  11.181  0.5061  0.1237 -0.7240
10193TIP3   OH254773   7.465   3.964  10.760  0.0062 -0.1831 -0.0129
10193TIP3    H154774   7.504   3.877  10.764  1.0627  0.3046  0.6263
10193TIP3    H254775   7.381   3.954  10.805  1.1819 -0.3399  2.2631
10194TIP3   OH254776   7.372   4.090  11.505 -0.8626 -0.1437  0.0552
10194TIP3    H154777   7.363   4.185  11.492  0.3852 -0.2873 -2.3637
10194TIP3    H254778   7.313   4.052  11.441 -2.0008 -1.0678  1.5854
10195TIP3   OH254779   2.302   4.804  11.158  0.2244 -0.0756  0.1508
10195TIP3    H154780   2.336   4.893  11.163 -0.2409  0.2030 -1.1088
10195TIP3    H254781   2.207   4.815  11.170  0.2686 -0.5223  0.9548
10196TIP3   OH254782   0.911   4.192  11.046 -0.2999 -0.1925 -0.5640
10196TIP3    H154783   0.850   4.168  11.115  0.0585 -0.3501 -0.2981
10196TIP3    H254784   0.869   4.265  11.001 -0.3700  0.1537  0.0510
10197TIP3   OH254785   0.184   1.259  10.712  0.1387  0.0835 -0.5711
10197TIP3    H154786   0.164   1.170  10.742  1.7327 -0.7197 -1.7496
10197TIP3    H254787   0.167   1.257  10.618 -0.7892  1.3561 -0.4647
10198TIP3   OH254788   5.728   7.669  11.413 -0.3352 -0.0863 -0.5433
10198TIP3    H154789   5.670   7.731  11.457  0.6446  0.5059 -0.0865
10198TIP3    H254790   5.711   7.585  11.457 -3.0737 -0.6613 -2.4004
10199TIP3   OH254791   5.828   0.308  12.514  0.3957 -0.1149  0.2327
10199TIP3    H154792   5.860   0.251  12.584 -0.9084 -0.0672  0.9195
10199TIP3    H254793   5.902   0.319  12.456  0.5727 -2.9815 -0.2575
10200TIP3   OH254794   3.798   1.450  12.896  0.5405  0.1537 -0.1774
10200TIP3    H154795   3.745   1.523  12.929 -0.2574 -0.7485  0.6212
10200TIP3    H254796   3.887   1.469  12.927  0.2853  0.6215  0.2933
10201TIP3   OH254797   3.057   1.471  12.352 -0.6673 -0.5077  0.5835
10201TIP3    H154798   3.071   1.399  12.412  0.4124 -0.2297  0.6939
10201TIP3    H254799   3.095   1.442  12.269  0.0362  0.0266  0.7050
10202TIP3   OH254800   2.708   4.156  10.340 -0.2242 -0.1874  0.1807
10202TIP3    H154801   2.764   4.117  10.407  1.1018 -1.6779 -1.6896
10202TIP3    H254802   2.693   4.086  10.277 -1.8541  1.0084 -0.8509
10203TIP3   OH254803   2.251   3.244  12.402  0.2946 -0.3263 -0.2766
10203TIP3    H154804   2.305   3.297  12.460  2.0943 -1.4340 -0.8592
10203TIP3    H254805   2.241   3.298  12.323  0.5829 -0.1152 -0.1711
10204TIP3   OH254806   1.560   2.257  13.693  0.0016 -0.8399  0.3992
10204TIP3    H154807   1.554   2.347  13.726 -2.1398 -1.6968  2.6482
10204TIP3    H254808   1.653   2.238  13.690  0.5934  1.7574 -1.1890
10205TIP3   OH254809   2.119   0.167  11.521 -0.4006  0.0123 -0.1812
10205TIP3    H154810   2.124   0.099  11.589  2.2664 -1.2700 -1.4883
10205TIP3    H254811   2.116   0.249  11.569 -1.1208 -0.9265  1.4551
10206TIP3   OH254812   2.578   2.790  11.803  0.5803  0.1495 -0.4551
10206TIP3    H154813   2.513   2.745  11.857 -1.0029  0.5643 -1.9408
10206TIP3    H254814   2.588   2.875  11.844  0.4754 -0.0512 -0.0032
10207TIP3   OH254815   2.863   5.830  10.784 -0.0677  0.2730  0.1113
10207TIP3    H154816   2.778   5.816  10.743 -0.5041  1.5028  0.5594
10207TIP3    H254817   2.896   5.741  10.801 -0.8749 -0.2196 -0.8261
10208TIP3   OH254818   6.516   2.817  12.740 -0.0855  0.4188 -0.8300
10208TIP3    H154819   6.439   2.853  12.784  0.5925 -0.3535  1.1253
10208TIP3    H254820   6.491   2.727  12.719  0.8627 -0.5434  1.7025
10209TIP3   OH254821   7.348   0.632  11.958 -0.3896 -0.4180  0.0659
10209TIP3    H154822   7.343   0.704  12.021  0.2219 -0.4184  0.1204
10209TIP3    H254823   7.369   0.555  12.011  0.0785 -0.4273 -0.1275
10210TIP3   OH254824   1.712   0.560  12.079 -0.1846 -0.1870 -0.2764
10210TIP3    H154825   1.715   0.628  12.146 -0.2096  0.4600 -0.9178
10210TIP3    H254826   1.642   0.588  12.020 -0.5083 -1.0155 -0.2985
10211TIP3   OH254827   0.496   5.724  10.818 -0.1884  0.0189  0.1151
10211TIP3    H154828   0.428   5.668  10.855  1.0933 -0.6644  1.5749
10211TIP3    H254829   0.509   5.690  10.729  1.3475 -2.8965  1.3059
10212TIP3   OH254830   1.101   3.515  11.518  0.3642 -0.1107  0.2781
10212TIP3    H154831   1.160   3.516  11.443  0.1713  1.2150  0.1328
10212TIP3    H254832   1.111   3.601  11.558 -1.1236 -0.0360  0.5325
10213TIP3   OH254833   1.129   3.121  11.062  0.7646  0.6431  0.4181
10213TIP3    H154834   1.144   3.206  11.104  2.0361  0.8577 -0.4232
10213TIP3    H254835   1.216   3.089  11.040  0.4364 -1.5552  1.9624
10214TIP3   OH254836   2.147   0.069  11.850  0.4053  0.7521  0.3156
10214TIP3    H154837   2.117   0.134  11.914  1.4803  0.1990  1.4204
10214TIP3    H254838   2.220   0.025  11.893 -0.3972 -1.3367 -0.3218
10215TIP3   OH254839   0.888   2.294  11.931  0.0378 -0.1644  0.2696
10215TIP3    H154840   0.860   2.285  11.840  1.8974 -3.7204 -0.1726
10215TIP3    H254841   0.816   2.258  11.982 -0.9493  1.6999  0.2468
10216TIP3   OH254842   1.319   6.604  10.172  0.0535  0.2533 -0.6011
10216TIP3    H154843   1.233   6.568  10.193  0.2317 -1.3545 -2.3649
10216TIP3    H254844   1.303   6.698  10.159 -1.2522  0.1281 -0.0812
10217TIP3   OH254845   1.726   0.716  12.312 -0.3050 -0.3764 -0.2827
10217TIP3    H154846   1.656   0.665  12.352  0.1470  0.7411  2.1410
10217TIP3    H254847   1.712   0.805  12.344  2.5691 -0.2363  0.8919
10218TIP3   OH254848   4.643   5.468  11.756 -0.3154 -0.0386 -0.2311
10218TIP3    H154849   4.646   5.386  11.706  1.7541  0.4204 -0.9398
10218TIP3    H254850   4.687   5.447  11.839 -1.8844 -0.2262  0.6086
10219TIP3   OH254851   2.466   6.117  11.969 -0.1390 -0.3776  0.2207
10219TIP3    H154852   2.543   6.153  12.012  0.8417 -1.2396 -0.7733
10219TIP3    H254853   2.466   6.157  11.882  0.1163 -1.6041 -0.3643
10220TIP3   OH254854   7.601   0.969  12.789  0.0571  0.3890 -0.3020
10220TIP3    H154855   7.626   1.048  12.837 -0.7368 -0.1652  1.0983
10220TIP3    H254856   7.624   0.987  12.698 -0.1713  2.2571 -0.0214
10221TIP3   OH254857   1.116   5.487  11.455 -0.2869  0.4544  0.0074
10221TIP3    H154858   1.035   5.537  11.450 -0.5401  0.0316 -0.1185
10221TIP3    H254859   1.101   5.423  11.525 -0.3784 -0.1908 -0.5883
10222TIP3   OH254860   4.844   6.143  10.486  0.2810 -0.5445  0.3281
10222TIP3    H154861   4.750   6.131  10.469  0.4158 -0.7630 -0.2899
10222TIP3    H254862   4.872   6.206  10.420  0.6481 -0.7610  0.2764
10223TIP3   OH254863   2.396   5.454  12.970 -0.2214  0.5443 -0.1326
10223TIP3    H154864   2.478   5.406  12.965 -1.0559 -0.9172 -0.5838
10223TIP3    H254865   2.366   5.461  12.880 -0.2853  1.6616 -0.0396
10224TIP3   OH254866   7.432   3.094  13.215 -0.1535 -0.3057  0.1665
10224TIP3    H154867   7.443   3.083  13.310  1.0899  1.0075  0.2076
10224TIP3    H254868   7.399   3.184  13.205 -0.3018 -0.4445 -0.6506
10225TIP3   OH254869   6.170   5.204  12.125  0.0644  0.2925  0.7120
10225TIP3    H154870   6.238   5.140  12.145  0.4180 -0.2845 -2.0094
10225TIP3    H254871   6.178   5.270  12.194  3.6343  0.4219  0.3393
10226TIP3   OH254872   2.175   5.962  11.907  0.0043 -0.0848 -0.1782
10226TIP3    H154873   2.112   5.907  11.954  2.2891 -1.6154  1.2628
10226TIP3    H254874   2.121   6.033  11.871 -2.6143 -1.5862  0.4609
10227TIP3   OH254875   0.446   4.670  12.386 -0.1518  0.4379 -0.0563
10227TIP3    H154876   0.451   4.601  12.319  1.1636  0.6682 -0.2228
10227TIP3    H254877   0.396   4.740  12.345 -1.2464 -0.2862  0.0079
10228TIP3   OH254878   3.764   5.002  12.176  0.1387  0.3962 -0.3086
10228TIP3    H154879   3.709   4.927  12.150  1.6845 -0.2804 -1.7681
10228TIP3    H254880   3.762   4.999  12.272 -0.2230 -1.2366 -0.3235
10229TIP3   OH254881   2.494   7.666  11.721  0.4173 -0.1971  0.2472
10229TIP3    H154882   2.449   7.582  11.708  0.9322 -0.2721 -1.3666
10229TIP3    H254883   2.550   7.674  11.644 -0.9710  2.4988 -0.5948
10230TIP3   OH254884   0.967   3.541  11.914  0.4491  0.2486  0.1214
10230TIP3    H154885   1.044   3.592  11.936 -0.0559  1.3791 -0.6225
10230TIP3    H254886   0.995   3.485  11.842  0.8212 -0.0237  0.4749
10231TIP3   OH254887   0.395   5.734  12.554 -0.8635  0.6607  0.2556
10231TIP3    H154888   0.359   5.815  12.515  0.1281  0.5848 -0.8737
10231TIP3    H254889   0.469   5.764  12.607  0.4216  0.3949 -1.3292
10232TIP3   OH254890   1.594   5.050  10.510  0.1244 -0.5757 -0.0044
10232TIP3    H154891   1.626   5.039  10.421 -0.0047  2.4890 -0.5487
10232TIP3    H254892   1.605   5.143  10.528 -0.1064 -1.0350  3.1133
10233TIP3   OH254893   5.603   0.293  10.681  0.2432 -0.0283  0.5814
10233TIP3    H154894   5.692   0.326  10.692  0.3368  0.0178 -0.2586
10233TIP3    H254895   5.610   0.228  10.611 -0.6663  1.1430 -0.6291
10234TIP3   OH254896   0.901   2.651  13.364  0.1054 -0.3073  0.2948
10234TIP3    H154897   0.878   2.708  13.438  0.4681 -0.1715  0.3070
10234TIP3    H254898   0.953   2.708  13.306  1.1182 -0.8265  0.6695
10235TIP3   OH254899   7.504   1.751  11.732 -0.0587  0.5183  0.2133
10235TIP3    H154900   7.413   1.775  11.713 -0.0774  1.1399  1.0505
10235TIP3    H254901   7.539   1.721  11.648 -0.9686  0.4875 -0.1663
10236TIP3   OH254902   1.186   6.526  11.339  0.7469 -0.2834 -0.7275
10236TIP3    H154903   1.163   6.450  11.393  1.9349 -0.4815 -0.4650
10236TIP3    H254904   1.281   6.535  11.350  0.6412  1.1537 -0.8751
10237TIP3   OH254905   0.584   0.267  11.958 -0.2812 -0.1478  0.1926
10237TIP3    H154906   0.644   0.195  11.935  0.1703  0.5555 -0.9085
10237TIP3    H254907   0.623   0.306  12.036 -1.0289 -1.6607  1.3569
10238TIP3   OH254908   0.192   1.168  12.684  0.2577 -0.0589 -0.1947
10238TIP3    H154909   0.126   1.202  12.744 -0.0842 -1.8911  0.5237
10238TIP3    H254910   0.272   1.213  12.709 -0.2086  0.3623  0.5884
10239TIP3   OH254911   3.247   4.016  11.249  0.4373  0.0690 -0.2706
10239TIP3    H154912   3.151   4.014  11.257  0.2867 -0.1985 -1.7748
10239TIP3    H254913   3.277   4.068  11.323 -0.6792 -1.9238  1.7049
10240TIP3   OH254914   7.363   5.564  12.028 -0.3784  0.3920 -0.6565
10240TIP3    H154915   7.290   5.557  12.090 -0.3333  1.0017 -0.5287
10240TIP3    H254916   7.325   5.542  11.943 -0.1516 -1.7572 -0.2459
10241TIP3   OH254917   0.901   0.234  10.231 -0.3418 -0.2022 -0.3292
10241TIP3    H154918   0.954   0.268  10.158  0.1828  0.6767  0.4461
10241TIP3    H254919   0.965   0.207  10.296 -0.8277  1.0994  0.7236
10242TIP3   OH254920   1.177   4.931  10.674  0.1323  0.9496 -0.3813
10242TIP3    H154921   1.240   4.891  10.613  0.1233  1.1072 -0.4941
10242TIP3    H254922   1.219   5.012  10.702  1.1175 -0.1678  1.5381
10243TIP3   OH254923   3.111   7.351  13.004 -0.4474  0.2997 -0.2553
10243TIP3    H154924   3.053   7.427  13.001  1.5342  1.8519 -1.5237
10243TIP3    H254925   3.193   7.385  13.040  0.6998 -1.0745 -1.4629
10244TIP3   OH254926   2.269   1.839  10.944 -0.4032 -0.4132  0.2398
10244TIP3    H154927   2.181   1.853  10.979 -0.0702  0.1282  0.8845
10244TIP3    H254928   2.256   1.786  10.866 -1.3315 -0.0802  0.1614
10245TIP3   OH254929   4.268   4.138  12.519 -0.2482 -0.0982 -0.1357
10245TIP3    H154930   4.284   4.153  12.426  2.5650 -1.4285  0.0268
10245TIP3    H254931   4.284   4.222  12.561  0.4751  0.0320 -0.6626
10246TIP3   OH254932   0.320   6.473  11.785 -0.2108 -0.3289 -0.1318
10246TIP3    H154933   0.285   6.460  11.874  0.1234 -0.4785 -0.0195
10246TIP3    H254934   0.243   6.466  11.728 -0.4610 -0.0094  0.1640
10247TIP3   OH254935   6.513   3.478  12.693  0.6693 -0.8326  0.0929
10247TIP3    H154936   6.504   3.431  12.776 -0.1450 -0.4406  0.2372
10247TIP3    H254937   6.494   3.569  12.715  0.0652 -0.7842 -0.5929
10248TIP3   OH254938   0.621   0.143  12.724  0.2700 -0.3547 -0.1982
10248TIP3    H154939   0.688   0.209  12.741  0.4441 -0.3194 -0.9821
10248TIP3    H254940   0.563   0.183  12.659  0.4799 -1.0278 -0.8180
10249TIP3   OH254941   4.315   6.471  11.587 -0.0052 -0.1290  0.6233
10249TIP3    H154942   4.341   6.473  11.495  1.2545 -2.0513  0.8915
10249TIP3    H254943   4.220   6.463  11.585 -0.0628  0.6007 -0.4776
10250TIP3   OH254944   2.171   5.386  11.769  0.0300  0.0710  0.2939
10250TIP3    H154945   2.186   5.340  11.686  0.6674 -1.5862  1.2645
10250TIP3    H254946   2.124   5.323  11.823  0.0858  0.9266  1.3764
10251TIP3   OH254947   4.177   4.984  10.817  0.3142 -0.4042 -0.2867
10251TIP3    H154948   4.268   4.993  10.844  0.5495 -1.0377 -0.8591
10251TIP3    H254949   4.170   5.037  10.738 -0.0487  0.3816  0.2590
10252TIP3   OH254950   2.099   2.641  11.192 -0.0184  0.4480  0.3201
10252TIP3    H154951   2.084   2.605  11.279 -1.0021 -1.0820 -0.4420
10252TIP3    H254952   2.022   2.616  11.141  1.4228 -0.5208 -1.5386
10253TIP3   OH254953   2.977   3.456  11.801 -0.1508 -0.3474  0.1543
10253TIP3    H154954   2.950   3.514  11.872  0.0470  0.9114 -0.7666
10253TIP3    H254955   3.058   3.416  11.833 -0.3664 -0.2241  0.8637
10254TIP3   OH254956   5.644   3.341  12.117  0.2617  0.7083 -0.6430
10254TIP3    H154957   5.691   3.418  12.084  0.2943  1.6848  1.5430
10254TIP3    H254958   5.641   3.353  12.211 -0.4399 -1.6091 -0.3027
10255TIP3   OH254959   6.355   0.128  11.494 -0.1556  0.1330 -0.0956
10255TIP3    H154960   6.328   0.109  11.584 -0.0835  1.6154  0.2520
10255TIP3    H254961   6.318   0.056  11.442 -0.0277 -0.8529  1.1265
10256TIP3   OH254962   2.604   5.648  13.345 -0.5554  0.3131  0.2121
10256TIP3    H154963   2.585   5.560  13.311 -0.5267  0.5763 -0.5182
10256TIP3    H254964   2.525   5.674  13.391 -0.4694 -0.1966  0.6596
10257TIP3   OH254965   0.278   3.742  12.654 -0.1032  0.2427 -0.6417
10257TIP3    H154966   0.298   3.725  12.746 -0.6506 -2.1550 -0.8827
10257TIP3    H254967   0.285   3.837  12.644  2.7716  0.3552  1.2013
10258TIP3   OH254968   0.985   0.307  10.982  0.1824  0.2438 -0.5252
10258TIP3    H154969   0.975   0.233  11.041  0.4455 -1.0112 -1.9796
10258TIP3    H254970   1.075   0.337  10.997  0.5311 -0.6075 -0.8824
10259TIP3   OH254971   7.658   6.975  10.872 -0.7201  0.8152  0.4387
10259TIP3    H154972   7.659   6.934  10.958 -3.4928 -0.2603  0.0788
10259TIP3    H254973   7.648   7.068  10.889 -0.8572  0.6501  1.3007
10260TIP3   OH254974   1.497   6.023  13.021 -0.7152 -0.3233  0.5670
10260TIP3    H154975   1.437   6.065  13.084  0.6194  1.1398  0.9300
10260TIP3    H254976   1.580   6.068  13.034 -0.3393 -0.0859 -2.1299
10261TIP3   OH254977   2.776   6.012  10.995 -0.1159  0.4211 -0.6254
10261TIP3    H154978   2.853   5.986  10.944  0.9824  2.4827 -0.1162
10261TIP3    H254979   2.812   6.045  11.077 -1.6884 -0.3429  0.4249
10262TIP3   OH254980   0.387   1.428  10.749 -0.1705  0.4127  0.0168
10262TIP3    H154981   0.341   1.503  10.785 -0.9679  0.8877 -1.8970
10262TIP3    H254982   0.318   1.369  10.720  0.4052  0.5895 -1.8016
10263TIP3   OH254983   7.112   2.136  11.712  0.2341 -0.1551 -0.1494
10263TIP3    H154984   7.120   2.096  11.625 -0.1167 -1.9724  0.6205
10263TIP3    H254985   7.064   2.217  11.696  3.4352  1.5756 -2.1915
10264TIP3   OH254986   5.783   3.259  11.881 -0.3539  0.3220  0.2335
10264TIP3    H154987   5.718   3.275  11.948 -1.0122 -1.3432  0.0497
10264TIP3    H254988   5.758   3.174  11.843  1.7440 -0.2481 -0.0253
10265TIP3   OH254989   1.370   6.761  12.777 -0.2853  0.0105 -0.1425
10265TIP3    H154990   1.398   6.669  12.782 -0.6343 -0.2153 -1.8301
10265TIP3    H254991   1.448   6.811  12.802  1.1378 -0.6556 -2.9142
10266TIP3   OH254992   6.803   4.774  12.232  0.4751 -0.1510 -0.5231
10266TIP3    H154993   6.872   4.746  12.171  0.4336 -0.3166 -0.4939
10266TIP3    H254994   6.786   4.865  12.208 -0.2377 -0.5031 -1.4101
10267TIP3   OH254995   2.982   0.839  12.251 -0.1321  0.3786 -0.3324
10267TIP3    H154996   2.927   0.841  12.172  1.1163  0.7538 -1.2242
10267TIP3    H254997   3.071   0.840  12.218  0.4610  2.4820  1.0918
10268TIP3   OH254998   6.278   4.359  12.183 -0.3603  0.0607  0.1337
10268TIP3    H154999   6.320   4.326  12.103 -0.9838  0.1281 -0.2249
10268TIP3    H255000   6.267   4.453  12.168 -0.1233  0.1420  0.4612
10269TIP3   OH255001   4.377   5.343  12.399 -0.3672 -0.2679 -0.7901
10269TIP3    H155002   4.290   5.356  12.363 -0.8229 -1.4963 -0.2024
10269TIP3    H255003   4.406   5.260  12.362 -0.0274 -0.5602  0.0993
10270TIP3   OH255004   1.469   6.588  10.903  0.2949 -0.7790  0.5050
10270TIP3    H155005   1.565   6.590  10.896  0.2283 -0.8011 -0.6485
10270TIP3    H255006   1.443   6.680  10.893  0.2665 -0.5374  2.4493
10271TIP3   OH255007   6.679   0.038  12.367 -0.0316  0.0120 -0.1510
10271TIP3    H155008   6.758   0.016  12.415 -0.2371  1.6505  1.0546
10271TIP3    H255009   6.693   0.129  12.338 -1.0477 -0.0236 -0.8108
10272TIP3   OH255010   6.035   0.479  11.459  0.2233 -0.2110 -0.3158
10272TIP3    H155011   6.005   0.443  11.375  0.7520 -0.0097 -0.5956
10272TIP3    H255012   6.065   0.568  11.438 -0.6857  0.2583  0.2935
10273TIP3   OH255013   5.951   5.385  11.726 -0.2660  0.7191 -0.3086
10273TIP3    H155014   5.955   5.309  11.785  1.5457 -0.0294 -1.3172
10273TIP3    H255015   5.900   5.450  11.774 -1.5693 -1.0042  0.7380
10274TIP3   OH255016   5.372   2.992  10.840  0.3684  0.1826  0.5358
10274TIP3    H155017   5.462   2.994  10.806  0.1330  0.0281 -0.1213
10274TIP3    H255018   5.331   3.069  10.802 -0.2106 -0.5823 -0.4491
10275TIP3   OH255019   4.039   7.233  12.683  0.5451  0.4936  0.2251
10275TIP3    H155020   4.118   7.285  12.665  0.2459  1.0376  0.4467
10275TIP3    H255021   4.008   7.266  12.767  0.2611  0.0538  0.2926
10276TIP3   OH255022   2.110   1.400  11.784  0.0956 -0.2006 -0.2437
10276TIP3    H155023   2.029   1.451  11.786  0.3291  0.1871 -0.4382
10276TIP3    H255024   2.164   1.440  11.853 -0.5227 -1.5629  1.0889
10277TIP3   OH255025   4.607   0.297  11.989 -0.0007  0.3702  0.4296
10277TIP3    H155026   4.701   0.304  12.008  0.1704  0.7747 -0.5011
10277TIP3    H255027   4.578   0.388  11.978 -0.6241  0.2787  1.2310
10278TIP3   OH255028   3.289   5.209  13.310 -0.3160 -0.3640  0.3801
10278TIP3    H155029   3.338   5.223  13.229 -0.9760 -1.1932 -0.1801
10278TIP3    H255030   3.210   5.262  13.300 -0.2374 -0.1886  0.6474
10279TIP3   OH255031   6.401   0.549  11.924  0.1049 -0.5517  0.0828
10279TIP3    H155032   6.354   0.470  11.952 -1.4837 -0.4850 -2.1241
10279TIP3    H255033   6.444   0.525  11.842  0.9980  0.4160  0.2390
10280TIP3   OH255034   7.031   3.326  10.967 -0.2569 -0.3033 -0.1224
10280TIP3    H155035   7.089   3.316  11.042 -0.4892  1.3922  0.3392
10280TIP3    H255036   6.955   3.374  11.002 -0.9804 -0.6529 -1.1530
10281TIP3   OH255037   3.410   3.375  12.512  0.3605 -0.0196  0.2446
10281TIP3    H155038   3.315   3.373  12.509  0.3689 -2.8264 -0.2526
10281TIP3    H255039   3.437   3.400  12.424  0.0611 -1.3094 -0.2315
10282TIP3   OH255040   1.902   7.138  12.718  0.4034  0.0635  0.1496
10282TIP3    H155041   1.811   7.133  12.747  0.8214  1.6041  1.8556
10282TIP3    H255042   1.949   7.178  12.790  2.6258 -1.3811 -0.3847
10283TIP3   OH255043   5.968   3.461  11.874  0.2177 -0.0689 -0.5693
10283TIP3    H155044   5.912   3.384  11.885  2.3487 -1.4059  2.3782
10283TIP3    H255045   5.916   3.534  11.907 -1.0517 -0.6200 -1.3102
10284TIP3   OH255046   3.109   5.398  10.900 -0.2501 -0.7158 -0.6567
10284TIP3    H155047   3.106   5.491  10.924  1.4647 -0.8500  0.2064
10284TIP3    H255048   3.145   5.397  10.812  2.8366 -0.6419  0.4869
10285TIP3   OH255049   3.294   5.251  11.895 -0.5640  0.0687  0.2455
10285TIP3    H155050   3.342   5.322  11.853 -1.2661  1.4180  1.6246
10285TIP3    H255051   3.355   5.178  11.897  0.1724  0.6031 -1.2375
10286TIP3   OH255052   0.853   4.404  10.622  0.0210 -0.2061 -0.2466
10286TIP3    H155053   0.947   4.414  10.632 -0.2588 -0.1061  4.1293
10286TIP3    H255054   0.838   4.310  10.625 -0.0494 -0.1871  0.0901
10287TIP3   OH255055   2.613   0.777  12.334 -0.1679 -0.1792  0.2439
10287TIP3    H155056   2.606   0.813  12.246 -2.1957 -2.5206 -0.6788
10287TIP3    H255057   2.669   0.700  12.324 -0.4909 -0.5189  0.9918
10288TIP3   OH255058   6.671   6.565  11.396 -0.1196  0.6946  0.4289
10288TIP3    H155059   6.595   6.623  11.397  0.3920  1.4581 -1.7149
10288TIP3    H255060   6.727   6.598  11.327  0.4859 -2.0074 -0.5118
10289TIP3   OH255061   0.944   7.512  10.465  0.1333  0.6039 -0.4820
10289TIP3    H155062   1.009   7.464  10.515  0.8592  0.9274 -1.0918
10289TIP3    H255063   0.861   7.467  10.483  0.9027 -1.4918 -1.7616
10290TIP3   OH255064   3.211   7.616  10.950 -0.2183  0.1593 -0.5310
10290TIP3    H155065   3.293   7.613  10.901 -0.8467  4.1874 -2.2587
10290TIP3    H255066   3.225   7.684  11.016 -1.4834 -0.6575  0.6383
10291TIP3   OH255067   6.893   2.388  13.299  0.5203  0.1471  0.2611
10291TIP3    H155068   6.986   2.388  13.275  0.7558 -0.1283  1.1441
10291TIP3    H255069   6.876   2.477  13.330  0.6135  0.0617  0.5588
10292TIP3   OH255070   0.541   4.601  12.863 -0.5790  0.0370 -0.8488
10292TIP3    H155071   0.603   4.572  12.931 -0.4347  1.2303 -0.4481
10292TIP3    H255072   0.597   4.637  12.794 -0.5796 -2.9598 -2.6067
10293TIP3   OH255073   5.154   0.855  10.780  0.1710 -0.2254  0.1170
10293TIP3    H155074   5.189   0.829  10.694 -1.6493 -2.2195 -0.1144
10293TIP3    H255075   5.085   0.790  10.798  0.3438  0.2789  3.0021
10294TIP3   OH255076   1.487   0.195  10.660  0.1128  0.2634 -0.1755
10294TIP3    H155077   1.465   0.102  10.650 -0.3371  0.3740 -0.2120
10294TIP3    H255078   1.446   0.238  10.585  3.1458  0.0463 -2.1042
10295TIP3   OH255079   6.631   1.431  11.990  0.1513 -0.1672 -0.2642
10295TIP3    H155080   6.583   1.429  12.073  0.3766  1.5659 -0.0712
10295TIP3    H255081   6.585   1.496  11.937 -1.4912 -2.8921 -2.4958
10296TIP3   OH255082   2.223   3.615  10.486 -0.1370  0.2669  0.0432
10296TIP3    H155083   2.149   3.637  10.429 -1.0095  0.4966  1.2134
10296TIP3    H255084   2.281   3.691  10.480 -0.9466  0.9465  0.5895
10297TIP3   OH255085   2.908   5.864  12.806  0.0360 -0.1711 -0.5630
10297TIP3    H155086   2.958   5.909  12.738 -0.9955 -0.0439 -1.2619
10297TIP3    H255087   2.835   5.825  12.759  1.4211 -3.5276 -0.2099
10298TIP3   OH255088   5.598   3.042  11.844  0.1094  0.5252 -0.2607
10298TIP3    H155089   5.530   3.094  11.801 -0.6552  0.8727  1.3092
10298TIP3    H255090   5.623   2.977  11.778 -2.4602 -0.2750 -0.5780
10299TIP3   OH255091   6.042   4.099  11.172  0.7384  0.1876 -0.1493
10299TIP3    H155092   6.034   4.106  11.077 -0.5264 -0.1765 -0.0897
10299TIP3    H255093   5.953   4.110  11.205  0.9865 -0.7490  0.9244
10300TIP3   OH255094   4.551   6.062  12.321 -0.2470  0.2322 -0.2313
10300TIP3    H155095   4.503   6.137  12.286 -1.4184 -0.5039 -0.2481
10300TIP3    H255096   4.508   5.986  12.282 -2.3478 -0.7512  3.5221
10301TIP3   OH255097   5.449   6.596  11.010 -0.3190  0.1180  0.0110
10301TIP3    H155098   5.391   6.554  10.947 -0.3096  1.0779 -0.6502
10301TIP3    H255099   5.525   6.538  11.015 -0.4671 -0.1311 -0.6055
10302TIP3   OH255100   3.980   0.257  12.325  0.1567 -0.3638 -0.6176
10302TIP3    H155101   4.024   0.314  12.262  0.8032 -0.0045  0.1419
10302TIP3    H255102   3.911   0.214  12.275  0.3256  0.3114 -1.4401
10303TIP3   OH255103   3.222   0.887  12.097 -0.5822  0.1751 -0.0023
10303TIP3    H155104   3.201   0.825  12.027 -2.4232  0.1180  0.5428
10303TIP3    H255105   3.195   0.972  12.062  1.4782  0.6513 -0.5575
10304TIP3   OH255106   5.983   5.643  12.018  0.0390  0.5289  0.0266
10304TIP3    H155107   5.956   5.724  12.061  0.0703 -0.1035  1.2922
10304TIP3    H255108   5.907   5.617  11.966 -0.0400  1.2547 -0.2312
10305TIP3   OH255109   7.192   7.161  10.937  0.6633  0.1595  0.0477
10305TIP3    H155110   7.267   7.169  10.878  0.1257 -2.6597 -1.1774
10305TIP3    H255111   7.118   7.196  10.887  0.6444  0.0815  0.0197
10306TIP3   OH255112   2.624   4.179  12.424  0.2279  0.0669 -0.0359
10306TIP3    H155113   2.714   4.156  12.404  0.2975 -0.4097  0.7529
10306TIP3    H255114   2.575   4.097  12.413  0.1559 -0.0446  0.9412
10307TIP3   OH255115   2.565   7.297  12.104 -0.1230 -0.0709  0.3177
10307TIP3    H155116   2.630   7.274  12.171 -0.2976 -0.4584  0.3578
10307TIP3    H255117   2.611   7.358  12.046 -0.1639  0.7639  1.1423
10308TIP3   OH255118   2.350   7.351  12.875 -0.8178 -0.1686 -0.5492
10308TIP3    H155119   2.418   7.322  12.936 -1.9930 -0.4227  0.7028
10308TIP3    H255120   2.332   7.274  12.822 -0.9478 -0.4676 -0.0835
10309TIP3   OH255121   4.476   4.303  11.628 -0.5040 -0.3486 -0.7084
10309TIP3    H155122   4.533   4.341  11.695 -0.5859 -1.2094 -0.1414
10309TIP3    H255123   4.533   4.295  11.551  0.5070 -2.2132  0.1616
10310TIP3   OH255124   4.070   4.412  12.512 -0.3296  0.5748  0.0530
10310TIP3    H155125   4.140   4.445  12.457  1.1682 -1.0511  0.8944
10310TIP3    H255126   3.994   4.408  12.454  1.0823 -0.6672 -1.8325
10311TIP3   OH255127   0.335   3.547  10.990 -0.4431 -0.4155 -0.5261
10311TIP3    H155128   0.287   3.625  11.017 -2.7195 -1.7268 -0.5443
10311TIP3    H255129   0.414   3.547  11.044 -1.9631  0.2167  1.8073
10312TIP3   OH255130   2.611   3.133  13.400 -1.0926 -0.6184  0.2163
10312TIP3    H155131   2.695   3.092  13.421 -1.2130 -2.3291 -2.2624
10312TIP3    H255132   2.635   3.219  13.364 -0.4154 -0.9249 -0.0841
10313TIP3   OH255133   3.011   3.175  10.745  0.0439  0.3523  0.2557
10313TIP3    H155134   3.048   3.263  10.746 -1.0793  0.8453 -0.2018
10313TIP3    H255135   3.034   3.138  10.831  0.5657  1.0672  0.4309
10314TIP3   OH255136   2.262   5.559  12.066 -0.0692 -0.0510  0.0482
10314TIP3    H155137   2.202   5.592  12.000  2.2648 -0.7042 -2.5494
10314TIP3    H255138   2.214   5.488  12.109 -1.2238 -0.4756 -1.8447
10315TIP3   OH255139   7.459   6.516  12.010 -0.4868  0.1465  0.0754
10315TIP3    H155140   7.411   6.479  11.936 -0.9515 -2.0262  1.3671
10315TIP3    H255141   7.538   6.463  12.016  0.2545  1.2525  0.2614
10316TIP3   OH255142   2.609   7.464  11.890  0.2771 -0.0230  0.1510
10316TIP3    H155143   2.574   7.446  11.803  0.4338 -0.3003  0.1431
10316TIP3    H255144   2.612   7.560  11.896  1.3046  0.0106 -0.5818
10317TIP3   OH255145   6.911   5.956  13.035  0.3356  0.0672  0.1078
10317TIP3    H155146   6.995   5.987  12.999  0.5279 -1.1276 -0.5234
10317TIP3    H255147   6.866   5.918  12.960  0.0864 -1.1138  0.8355
10318TIP3   OH255148   1.198   2.514  11.456 -0.1481  0.4581 -0.4936
10318TIP3    H155149   1.146   2.446  11.499  0.4354 -0.7488 -1.6121
10318TIP3    H255150   1.173   2.595  11.500  2.1369 -0.9040  3.7938
10319TIP3   OH255151   7.677   5.497  12.318 -0.3849 -0.2278 -0.3710
10319TIP3    H155152   7.620   5.456  12.383 -0.3715  0.1493 -0.1155
10319TIP3    H255153   7.764   5.493  12.357 -0.5551  1.0863  0.1869
10320TIP3   OH255154   2.406   0.668  10.800 -0.5428  0.1434  0.0970
10320TIP3    H155155   2.459   0.599  10.838 -0.8061 -0.3001 -0.3326
10320TIP3    H255156   2.319   0.656  10.838 -0.3898  0.7498  0.6522
10321TIP3   OH255157   2.169   5.775  10.458  0.7654 -0.2869 -0.1117
10321TIP3    H155158   2.211   5.714  10.396  0.6429  0.1801 -0.6670
10321TIP3    H255159   2.091   5.729  10.488  0.2826 -0.1230 -1.0853
10322TIP3   OH255160   2.162   6.986  11.841  0.2366 -0.2684  1.0054
10322TIP3    H155161   2.069   6.971  11.824  0.5693 -1.6446  0.2710
10322TIP3    H255162   2.165   7.018  11.931 -0.9700  0.1316  0.9205
10323TIP3   OH255163   3.162   1.666  12.895  0.3300 -0.2606 -0.1832
10323TIP3    H155164   3.067   1.654  12.884 -0.0125  0.2560  1.8409
10323TIP3    H255165   3.194   1.581  12.924  0.5562 -0.5034 -1.1025
10324TIP3   OH255166   2.455   3.323  10.929  0.4558  0.9141  0.0407
10324TIP3    H155167   2.418   3.410  10.918 -0.8146  0.6758  2.0587
10324TIP3    H255168   2.496   3.304  10.844 -0.5040  2.8554 -0.9210
10325TIP3   OH255169   7.229   7.021  11.988  0.7732 -0.5964 -0.0917
10325TIP3    H155170   7.247   7.097  11.932 -0.0979 -0.2051  0.1379
10325TIP3    H255171   7.276   6.949  11.947  0.9221 -0.1101 -0.7914
10326TIP3   OH255172   3.646   1.228  11.666  0.0592  0.1292 -0.5669
10326TIP3    H155173   3.688   1.236  11.580 -0.0191 -1.0627 -0.7393
10326TIP3    H255174   3.704   1.170  11.716 -0.1362  0.4327  0.0189
10327TIP3   OH255175   5.273   0.739  10.563  0.2342 -0.3084  0.1567
10327TIP3    H155176   5.363   0.733  10.593  0.3411  0.9125  0.1195
10327TIP3    H255177   5.279   0.747  10.468  0.0423 -1.1180  0.0746
10328TIP3   OH255178   2.786   4.933  11.996 -0.0292  0.6072 -0.0013
10328TIP3    H155179   2.707   4.927  11.942  0.7653 -1.3656 -1.0744
10328TIP3    H255180   2.770   4.871  12.068  1.1962 -1.2596 -1.2404
10329TIP3   OH255181   4.815   7.035  11.958  0.0922 -0.0106  0.2300
10329TIP3    H155182   4.898   7.078  11.976  0.1381  0.4297 -0.9227
10329TIP3    H255183   4.810   7.032  11.862 -1.7594  1.0540  0.2453
10330TIP3   OH255184   2.068   7.095  10.845  0.0305  0.2046  0.1609
10330TIP3    H155185   2.064   7.033  10.772 -0.0955 -0.0668  0.3990
10330TIP3    H255186   1.991   7.151  10.833 -0.9600 -0.9309  1.0621
10331TIP3   OH255187   3.899   5.620  10.745 -0.1308 -0.5034  0.3725
10331TIP3    H155188   3.861   5.643  10.830  0.8306 -0.6905  0.8727
10331TIP3    H255189   3.837   5.653  10.681 -0.7643 -0.1563  1.1491
10332TIP3   OH255190   3.893   5.211  10.815 -0.0767 -0.1735 -0.1455
10332TIP3    H155191   3.835   5.255  10.878 -0.5805 -1.6683  0.4745
10332TIP3    H255192   3.920   5.280  10.755 -1.0795  0.9177  0.6178
10333TIP3   OH255193   6.527   4.873  13.289  0.4033  0.1378 -0.1334
10333TIP3    H155194   6.483   4.936  13.345  1.3112  0.8048 -0.1521
10333TIP3    H255195   6.497   4.787  13.321 -0.2215  0.5462  0.4029
10334TIP3   OH255196   5.001   4.206  11.423 -0.6464 -0.5120 -0.2170
10334TIP3    H155197   4.923   4.152  11.419 -1.0365 -0.0216  0.5532
10334TIP3    H255198   5.014   4.236  11.333  0.1424 -2.6362 -0.8724
10335TIP3   OH255199   4.517   0.408  11.579 -0.4699 -0.3422  0.3651
10335TIP3    H155200   4.514   0.489  11.629  0.3363 -0.5504  0.7649
10335TIP3    H255201   4.572   0.349  11.631 -0.6414 -0.9839 -0.1553
10336TIP3   OH255202   0.547   6.186  11.640 -0.0645  0.7738  0.7015
10336TIP3    H155203   0.496   6.264  11.616  1.5415  1.7408  0.2615
10336TIP3    H255204   0.518   6.164  11.728 -0.8325  1.6301  0.6725
10337TIP3   OH255205   5.480   1.731  11.953  0.1990  0.4505  0.3386
10337TIP3    H155206   5.575   1.727  11.941 -0.0216  0.1321 -1.5667
10337TIP3    H255207   5.463   1.823  11.976  0.8764  0.7071 -0.1656
10338TIP3   OH255208   5.970   1.727  11.806  0.4231 -0.3445 -0.2713
10338TIP3    H155209   5.994   1.801  11.751 -0.4935  0.9226  0.9513
10338TIP3    H255210   5.940   1.659  11.744 -0.4584  0.9706 -1.3478
10339TIP3   OH255211   0.992   0.907  11.614 -0.2202  0.3226 -0.2301
10339TIP3    H155212   1.047   0.840  11.574  1.6604  1.4162  0.3859
10339TIP3    H255213   0.909   0.863  11.631  1.0731 -1.9859  0.5629
10340TIP3   OH255214   4.250   5.287  11.740  0.1790 -0.4069 -0.1565
10340TIP3    H155215   4.290   5.371  11.763 -0.8288  0.0226  0.0502
10340TIP3    H255216   4.324   5.233  11.710  0.9360  0.3173  0.3663
10341TIP3   OH255217   7.127   4.757  11.496  0.0899 -0.3132  0.3076
10341TIP3    H155218   7.195   4.765  11.430  0.2523 -0.8714  0.4036
10341TIP3    H255219   7.091   4.669  11.483 -2.5342  0.8795 -1.5887
10342TIP3   OH255220   4.310   3.348  12.372 -0.4165 -0.4618 -0.4355
10342TIP3    H155221   4.281   3.433  12.404  2.1341  0.0010  0.9182
10342TIP3    H255222   4.270   3.285  12.432 -2.7541 -0.3627 -1.7647
10343TIP3   OH255223   6.057   4.035  13.441 -0.4490  0.0000 -0.4146
10343TIP3    H155224   6.028   4.079  13.361 -0.8525  0.3126 -0.1063
10343TIP3    H255225   6.017   3.948  13.436 -2.1587  0.6725  0.3618
10344TIP3   OH255226   1.164   3.217  10.507 -0.2093  0.1004 -0.2438
10344TIP3    H155227   1.200   3.218  10.596  0.7213 -1.2634 -0.5672
10344TIP3    H255228   1.238   3.191  10.452 -1.1465 -0.5381 -1.2291
10345TIP3   OH255229   7.641   5.578  11.053  0.1670 -0.3193 -0.2609
10345TIP3    H155230   7.699   5.650  11.028 -0.6805  1.7149  2.9734
10345TIP3    H255231   7.555   5.604  11.020 -0.0985  0.1008  0.7203
10346TIP3   OH255232   5.896   5.601  11.281  0.1309  0.3731  0.1854
10346TIP3    H155233   5.947   5.667  11.233 -0.1406  2.4486  2.5345
10346TIP3    H255234   5.947   5.583  11.359 -1.2852  0.2010  1.1078
10347TIP3   OH255235   0.901   4.000  12.414 -0.8527  0.1420 -0.0714
10347TIP3    H155236   0.821   3.984  12.364 -1.4060  0.6599  0.6134
10347TIP3    H255237   0.901   4.095  12.430  0.9909  0.5083 -1.8368
10348TIP3   OH255238   6.982   5.911  11.424  0.5285 -0.7188 -0.4559
10348TIP3    H155239   6.937   5.844  11.475 -0.2877  1.0281  1.2247
10348TIP3    H255240   6.916   5.940  11.360 -0.3624  0.8356  1.0770
10349TIP3   OH255241   1.764   4.999  12.860  0.2294 -0.5370  0.1049
10349TIP3    H155242   1.698   4.935  12.885  1.9095 -2.4092 -0.0923
10349TIP3    H255243   1.752   5.009  12.765 -0.8807  0.5111  0.3163
10350TIP3   OH255244   3.029   4.988  12.311  0.0092  0.0391 -0.2439
10350TIP3    H155245   3.079   5.067  12.290  0.7461 -0.1339  0.7808
10350TIP3    H255246   2.963   5.018  12.374  0.4569 -0.1971  0.3472
10351TIP3   OH255247   7.250   4.075  12.505 -0.1017 -0.8519  0.2256
10351TIP3    H155248   7.247   4.159  12.459 -1.5438 -0.8002  0.3889
10351TIP3    H255249   7.245   4.098  12.598  2.8242 -0.9535  0.5134
10352TIP3   OH255250   5.755   1.379  11.042  0.3015  0.4587 -0.1184
10352TIP3    H155251   5.684   1.318  11.023  0.4822 -0.2143  1.2110
10352TIP3    H255252   5.827   1.351  10.987  0.4487 -0.6958  0.6247
10353TIP3   OH255253   5.520   5.462  12.370  0.6558  0.2060 -0.5447
10353TIP3    H155254   5.493   5.497  12.285 -0.7164 -0.0760 -0.2443
10353TIP3    H255255   5.573   5.532  12.409  0.4045  0.7586 -1.1767
10354TIP3   OH255256   0.782   5.364  12.544  0.0764 -0.0882 -0.3771
10354TIP3    H155257   0.874   5.360  12.519  0.4254 -0.9691  0.9869
10354TIP3    H255258   0.782   5.356  12.639 -1.4516 -0.8526 -0.4108
10355TIP3   OH255259   2.872   6.482  10.942  0.5238  0.1594  0.0655
10355TIP3    H155260   2.820   6.550  10.985  1.7089  0.1186  1.6563
10355TIP3    H255261   2.835   6.475  10.854 -0.4518  1.9450  0.2931
10356TIP3   OH255262   4.508   6.259  10.502  0.5449  0.4993  0.1024
10356TIP3    H155263   4.435   6.215  10.459  1.1506 -0.3826 -0.0512
10356TIP3    H255264   4.467   6.327  10.556 -0.4898 -0.6981  0.8888
10357TIP3   OH255265   4.803   1.807  11.970  0.7732 -0.4052  0.5114
10357TIP3    H155266   4.789   1.866  12.044  1.1436  0.0940  0.1847
10357TIP3    H255267   4.898   1.796  11.965  0.6654 -2.2337  1.5010
10358TIP3   OH255268   0.846   2.229  12.266  0.1657 -0.3317 -0.3181
10358TIP3    H155269   0.773   2.193  12.216  1.4141 -0.4383 -2.1834
10358TIP3    H255270   0.840   2.187  12.351 -0.5057 -2.2601 -1.2495
10359TIP3   OH255271   2.148   5.833  11.393 -0.0034  0.3203  0.0924
10359TIP3    H155272   2.093   5.774  11.343 -0.6272  1.4288 -0.5675
10359TIP3    H255273   2.235   5.825  11.353  0.0101 -0.4042  0.2530
10360TIP3   OH255274   4.292   3.622  11.882 -0.2691  0.0018  0.0567
10360TIP3    H155275   4.370   3.580  11.919  0.1427  0.0133 -0.7823
10360TIP3    H255276   4.321   3.657  11.798 -1.6590 -1.7040 -1.2139
10361TIP3   OH255277   7.480   5.719  12.284  0.1090  0.3012  0.0375
10361TIP3    H155278   7.442   5.662  12.216  0.4542 -0.9159  0.8307
10361TIP3    H255279   7.559   5.673  12.312  1.5839  2.2181 -0.7513
10362TIP3   OH255280   3.032   1.318  10.995 -0.1166  0.0431  0.0290
10362TIP3    H155281   3.099   1.381  11.024  0.6300 -0.0065 -1.4851
10362TIP3    H255282   3.061   1.291  10.908  0.0316 -3.0064  0.9064
10363TIP3   OH255283   3.936   3.326  12.146 -0.1223  0.2306  0.0971
10363TIP3    H155284   3.863   3.310  12.086 -1.6642  0.2973  1.8651
10363TIP3    H255285   4.009   3.276  12.109 -0.9955  0.2780 -1.8122
10364TIP3   OH255286   1.498   7.589  11.413  0.1508  0.2468  0.1556
10364TIP3    H155287   1.571   7.619  11.467  0.4082 -0.4200  0.1904
10364TIP3    H255288   1.518   7.620  11.325  0.1370  0.6455  0.2948
10365TIP3   OH255289   2.599   1.775  12.277  0.1200 -0.0540 -0.6790
10365TIP3    H155290   2.552   1.824  12.210  0.2414  0.1603 -0.6097
10365TIP3    H255291   2.692   1.787  12.255  0.1938  0.6110 -0.0761
10366TIP3   OH255292   0.816   0.757  12.570  0.3732 -0.5758  0.0507
10366TIP3    H155293   0.745   0.815  12.540  0.7470  0.0453  0.3417
10366TIP3    H255294   0.796   0.740  12.662  0.1806 -1.0459 -0.0747
10367TIP3   OH255295   4.827   3.330  11.012 -0.0885 -0.4901  0.4875
10367TIP3    H155296   4.918   3.360  11.019  0.5914 -1.6676 -1.9770
10367TIP3    H255297   4.829   3.239  11.042 -0.6297 -0.3097  1.1004
10368TIP3   OH255298   2.658   7.107  11.499  0.2808  0.1005 -0.0901
10368TIP3    H155299   2.563   7.122  11.494  0.3154  0.3712  0.0681
10368TIP3    H255300   2.696   7.194  11.500  0.4926 -0.0002  0.6986
10369TIP3   OH255301   0.241   6.836  12.396 -0.5526 -0.5185 -0.0231
10369TIP3    H155302   0.254   6.800  12.308 -1.2138 -0.1728 -0.2709
10369TIP3    H255303   0.225   6.929  12.382 -1.2539 -0.5652  0.4064
10370TIP3   OH255304   7.150   3.656  11.801  0.1213  1.4154 -0.4981
10370TIP3    H155305   7.096   3.692  11.871  1.2985  1.5655  0.3616
10370TIP3    H255306   7.208   3.728  11.776  0.5036  1.0059 -0.8095
10371TIP3   OH255307   2.808   6.962  11.184  1.1166  0.2013 -0.0752
10371TIP3    H155308   2.859   6.983  11.106 -0.3231  0.9068 -0.8846
10371TIP3    H255309   2.816   6.868  11.194  1.7304  0.1682 -0.7781
10372TIP3   OH255310   6.223   4.572  12.799 -0.1958 -0.0470 -0.3916
10372TIP3    H155311   6.128   4.567  12.806 -0.1265  0.3384  0.9830
10372TIP3    H255312   6.257   4.514  12.867  0.5524 -0.0284 -0.7294
10373TIP3   OH255313   7.239   1.388  13.150 -0.0157  0.1272  0.8237
10373TIP3    H155314   7.328   1.356  13.142  1.0935  2.7373  1.6440
10373TIP3    H255315   7.215   1.418  13.062  0.6188  1.0093  0.9365
10374TIP3   OH255316   7.057   1.594  11.624 -0.0783 -0.4722  0.4568
10374TIP3    H155317   7.106   1.515  11.599  1.0583  0.1325  0.7141
10374TIP3    H255318   6.968   1.578  11.591  0.7433 -0.7633 -1.8177
10375TIP3   OH255319   6.669   2.534  10.961  0.2869 -0.5338 -0.7654
10375TIP3    H155320   6.643   2.542  11.053  1.8411  0.1300 -0.3479
10375TIP3    H255321   6.587   2.517  10.915 -1.4028  3.6884  0.1196
10376TIP3   OH255322   1.626   6.122  11.109 -0.0208 -0.4798 -0.6031
10376TIP3    H155323   1.693   6.117  11.041  0.2092 -0.7346 -0.3547
10376TIP3    H255324   1.613   6.216  11.121 -0.5139 -0.4268 -1.4405
10377TIP3   OH255325   4.163   0.340  12.824 -0.4947 -0.1892  0.0301
10377TIP3    H155326   4.123   0.335  12.738 -1.0074  3.0912 -0.0329
10377TIP3    H255327   4.165   0.249  12.855 -3.5012 -1.0628 -1.9479
10378TIP3   OH255328   7.407   6.754  12.626  0.1362  0.1037 -0.4988
10378TIP3    H155329   7.385   6.670  12.585 -0.0286 -0.7916  1.3255
10378TIP3    H255330   7.469   6.795  12.565 -0.5215 -0.8814 -1.8977
10379TIP3   OH255331   6.411   0.805  11.977 -0.1020 -0.6250 -0.1236
10379TIP3    H155332   6.409   0.709  11.972  1.6550 -0.6210 -1.5435
10379TIP3    H255333   6.469   0.832  11.907 -2.6890  1.6875 -1.5649
10380TIP3   OH255334   0.303   7.289  11.776 -0.2897  0.3903  0.5016
10380TIP3    H155335   0.397   7.297  11.794 -0.4902 -0.3076  2.0086
10380TIP3    H255336   0.267   7.374  11.803 -0.3501 -0.0592  1.9143
10381TIP3   OH255337   0.607   3.928  11.624 -0.6200  0.1698  0.7966
10381TIP3    H155338   0.607   4.018  11.655 -1.6209  0.6302 -0.4315
10381TIP3    H255339   0.698   3.912  11.597 -0.4747  0.8766  0.8410
10382TIP3   OH255340   2.768   1.253  13.430  0.1528  0.4041 -0.4019
10382TIP3    H155341   2.780   1.284  13.341  0.0595 -1.3417 -1.0484
10382TIP3    H255342   2.831   1.182  13.440 -0.3914  0.0540  0.6607
10383TIP3   OH255343   6.993   6.597  11.754 -0.3633 -0.0316  0.4978
10383TIP3    H155344   7.036   6.543  11.688  1.4055  3.4380 -1.4725
10383TIP3    H255345   6.907   6.615  11.718  0.0068  0.5381 -0.1250
10384TIP3   OH255346   5.737   4.577  12.934  0.3201 -0.1209  0.7417
10384TIP3    H155347   5.732   4.655  12.990 -0.6809  0.4214 -0.0702
10384TIP3    H255348   5.647   4.543  12.934  0.2276  0.0837 -0.7987
10385TIP3   OH255349   6.168   4.379  13.043 -0.5169 -0.0348  0.0929
10385TIP3    H155350   6.198   4.453  13.096 -1.6457  0.5717 -0.0960
10385TIP3    H255351   6.076   4.397  13.025 -0.6453 -1.1691 -0.5060
10386TIP3   OH255352   4.517   6.212  12.954  0.3645  0.2579  0.1436
10386TIP3    H155353   4.482   6.258  13.031  0.6979  1.3224 -0.3186
10386TIP3    H255354   4.607   6.190  12.978 -0.3204 -1.8084  1.0446
10387TIP3   OH255355   2.809   0.545  12.685 -0.2972  0.3572 -0.0768
10387TIP3    H155356   2.784   0.635  12.663 -1.7698  0.4799  1.8688
10387TIP3    H255357   2.729   0.505  12.720  0.1740 -1.9234 -1.3994
10388TIP3   OH255358   6.275   7.363  12.754  0.6794 -0.9600  0.2750
10388TIP3    H155359   6.223   7.291  12.719 -0.7013  0.1820 -0.0979
10388TIP3    H255360   6.254   7.365  12.847 -1.1341  0.4008 -0.1185
10389TIP3   OH255361   1.725   2.825  10.816  0.0240 -0.7674  0.0940
10389TIP3    H155362   1.630   2.835  10.809 -0.1134 -2.6011 -1.7569
10389TIP3    H255363   1.760   2.887  10.752  0.0605 -0.2820  0.5836
10390TIP3   OH255364   1.269   2.411  11.034  0.2107 -0.2613 -0.2788
10390TIP3    H155365   1.345   2.352  11.039 -0.4231 -0.9898  2.1736
10390TIP3    H255366   1.290   2.483  11.093 -1.2464 -0.8539  1.0504
10391TIP3   OH255367   0.472   0.144  11.099 -0.5872 -0.4495 -0.5469
10391TIP3    H155368   0.457   0.205  11.026  1.4853  1.7969  0.7575
10391TIP3    H255369   0.399   0.161  11.159  0.3397  1.3573  0.1304
10392TIP3   OH255370   4.426   1.263  11.281 -0.1488  0.2806  0.4025
10392TIP3    H155371   4.501   1.226  11.234 -1.5655 -0.5679 -1.3583
10392TIP3    H255372   4.385   1.323  11.218 -1.8009 -0.4494  0.7136
10393TIP3   OH255373   7.193   4.203  12.098 -0.0852 -0.2016 -0.1850
10393TIP3    H155374   7.280   4.165  12.088 -0.3951 -1.4261  1.3692
10393TIP3    H255375   7.196   4.249  12.182 -1.1806 -1.0090  0.3138
10394TIP3   OH255376   6.887   2.663  10.895  0.2869 -0.7001 -0.1631
10394TIP3    H155377   6.811   2.605  10.887  0.5586 -1.1656  0.4945
10394TIP3    H255378   6.857   2.747  10.861 -0.2921 -1.0787 -0.6025
10395TIP3   OH255379   0.509   6.418  11.516  0.0745  0.2210 -0.2909
10395TIP3    H155380   0.558   6.466  11.583  1.4461 -0.6967 -0.6017
10395TIP3    H255381   0.576   6.373  11.465 -1.0422 -0.2285 -1.4015
10396TIP3   OH255382   5.472   5.170  11.835  0.4421  0.1142 -0.1668
10396TIP3    H155383   5.482   5.182  11.930 -0.9267  0.1927 -0.0190
10396TIP3    H255384   5.471   5.075  11.823  1.5630  0.0986 -0.2248
10397TIP3   OH255385   7.243   0.104  11.605 -0.4504 -0.1042  0.7015
10397TIP3    H155386   7.172   0.107  11.670 -1.7849 -0.6691 -0.6821
10397TIP3    H255387   7.199   0.110  11.521  1.1895 -0.2237 -0.2015
10398TIP3   OH255388   2.976   3.685  12.722 -0.4117 -0.4806 -0.2135
10398TIP3    H155389   3.039   3.683  12.795  0.1964  0.6913 -0.6856
10398TIP3    H255390   2.913   3.752  12.746 -0.4114 -0.3398 -0.6006
10399TIP3   OH255391   0.147   7.419  11.274  0.0505  0.5480  0.3072
10399TIP3    H155392   0.111   7.447  11.358 -1.2318 -0.5380  0.1635
10399TIP3    H255393   0.195   7.339  11.293 -0.1239  0.3756  0.0438
10400TIP3   OH255394   3.558   7.486  12.194  0.0743  0.0783  0.3022
10400TIP3    H155395   3.653   7.498  12.191 -0.0873  1.3379 -1.4558
10400TIP3    H255396   3.533   7.468  12.103 -1.2132 -1.8620  0.9760
10401TIP3   OH255397   3.088   5.975  10.981 -0.0486 -0.1515  0.3263
10401TIP3    H155398   3.099   5.975  11.076  0.7423 -1.6145  0.2632
10401TIP3    H255399   3.062   6.065  10.960  1.1849  0.5837  1.7582
10402TIP3   OH255400   5.746   0.040  12.377  0.2130 -0.0093 -0.0470
10402TIP3    H155401   5.807  -0.029  12.402 -0.5900 -0.1370  1.6780
10402TIP3    H255402   5.783   0.120  12.412  0.8547  0.3949 -1.5615
10403TIP3   OH255403   7.606   2.861  12.534 -0.1853  0.1180  0.1400
10403TIP3    H155404   7.515   2.890  12.541 -0.4081 -0.9586  2.7079
10403TIP3    H255405   7.655   2.920  12.592  0.1241 -1.4771  1.5815
10404TIP3   OH255406   0.744   5.248  11.378 -0.3353  0.0445 -0.1706
10404TIP3    H155407   0.733   5.320  11.441  0.2516 -1.1788  1.3842
10404TIP3    H255408   0.812   5.280  11.318 -2.0371  1.8808 -1.2310
10405TIP3   OH255409   0.173   3.928  12.340 -0.0240 -0.4671 -0.2172
10405TIP3    H155410   0.263   3.952  12.360  0.0020 -1.0424  0.3936
10405TIP3    H255411   0.164   3.942  12.246  1.3077 -2.3212 -0.6812
10406TIP3   OH255412   1.493   2.669  11.653 -0.0079 -0.2875 -0.4867
10406TIP3    H155413   1.559   2.611  11.614  1.8430  1.0369  0.5206
10406TIP3    H255414   1.508   2.661  11.748 -2.4552 -1.2058 -0.1007
10407TIP3   OH255415   5.723   0.113  11.774 -0.2629 -0.2922 -0.3450
10407TIP3    H155416   5.674   0.116  11.692  1.4513 -2.4722 -1.5407
10407TIP3    H255417   5.710   0.024  11.807  0.4928  0.0247  0.8655
10408TIP3   OH255418   5.824   5.548  13.102  0.0771  0.1409  0.8218
10408TIP3    H155419   5.756   5.611  13.078  0.5385  0.7810  1.1538
10408TIP3    H255420   5.776   5.470  13.131 -0.5019  0.3839  0.5195
10409TIP3   OH255421   5.046   5.669  12.128 -0.4396 -0.2972 -0.9591
10409TIP3    H155422   4.991   5.728  12.077 -1.0436  0.4399  0.4693
10409TIP3    H255423   4.999   5.660  12.211  0.0717 -2.1342 -0.8388
10410TIP3   OH255424   0.783   5.721  11.829  0.1086 -0.3756  0.5082
10410TIP3    H155425   0.789   5.728  11.733 -0.2916  0.0744  0.5118
10410TIP3    H255426   0.856   5.773  11.861 -0.9884  1.2681  0.4714
10411TIP3   OH255427   4.752   5.374  11.185 -0.3637  0.3342  0.1207
10411TIP3    H155428   4.736   5.450  11.129 -2.1264 -0.2878 -0.3044
10411TIP3    H255429   4.674   5.369  11.241 -1.1268 -2.0603 -0.9990
10412TIP3   OH255430   2.323   5.167  11.197 -0.2516 -0.0337  0.1530
10412TIP3    H155431   2.335   5.254  11.236 -0.6108  0.5508 -0.9958
10412TIP3    H255432   2.234   5.141  11.222 -0.1916 -0.0070  0.3900
10413TIP3   OH255433   6.992   4.350  12.536  0.2677 -0.3177 -0.6094
10413TIP3    H155434   7.070   4.345  12.481 -0.8452 -2.8786 -2.1689
10413TIP3    H255435   6.939   4.418  12.495  0.3161 -0.8298 -1.5581
10414TIP3   OH255436   5.967   2.911  12.492  0.2683 -0.3291 -0.6549
10414TIP3    H155437   5.978   2.823  12.455  0.2653  0.2449 -2.0932
10414TIP3    H255438   5.962   2.897  12.586 -1.5185 -2.0770 -0.9386
10415TIP3   OH255439   5.860   7.156  11.648  0.0556  0.0702  0.3712
10415TIP3    H155440   5.864   7.174  11.742 -0.1439 -2.6136  0.9564
10415TIP3    H255441   5.835   7.064  11.642 -0.2758  0.2599 -2.3394
10416TIP3   OH255442   0.873   5.568  13.347 -0.0581 -0.3221  0.2065
10416TIP3    H155443   0.787   5.610  13.349  0.0836  0.0008 -0.3308
10416TIP3    H255444   0.855   5.476  13.328 -0.4302 -0.6940  2.0998
10417TIP3   OH255445   5.705   0.624  11.450 -0.4311  0.4017 -0.3072
10417TIP3    H155446   5.710   0.529  11.450  0.4490  0.4316  0.7969
10417TIP3    H255447   5.701   0.648  11.543 -0.1553  1.4652 -0.5560
10418TIP3   OH255448   1.524   3.395  10.680 -0.0761 -0.4613  0.0757
10418TIP3    H155449   1.619   3.390  10.682 -0.0440  0.2545  0.4123
10418TIP3    H255450   1.502   3.468  10.737 -0.8039 -0.2919 -0.4087
10419TIP3   OH255451   5.996   7.581  11.520  0.6567  0.5100 -1.3244
10419TIP3    H155452   6.085   7.547  11.523  0.0371 -1.1356  0.3642
10419TIP3    H255453   5.952   7.528  11.454 -0.0187 -1.4049  0.5437
10420TIP3   OH255454   1.730   6.160  13.096 -0.3456  0.3368  0.3588
10420TIP3    H155455   1.709   6.226  13.030  0.6188  0.9384  0.6281
10420TIP3    H255456   1.818   6.131  13.074 -0.1436  0.2983  1.1646
10421TIP3   OH255457   1.293   3.170  11.566  0.6582 -0.4755  0.1467
10421TIP3    H155458   1.326   3.085  11.596  0.4625 -0.6315 -0.0693
10421TIP3    H255459   1.220   3.147  11.509  1.2993 -0.2022 -0.7983
10422TIP3   OH255460   7.339   4.800  10.601 -0.1370 -0.0816 -0.4498
10422TIP3    H155461   7.295   4.860  10.541 -2.8669  0.1568  1.6185
10422TIP3    H255462   7.317   4.713  10.568 -0.3507  0.0389 -0.6271
10423TIP3   OH255463   1.963   4.158  10.981 -0.2980  0.1681 -0.5358
10423TIP3    H155464   1.883   4.111  10.961 -0.5240 -0.7575  2.1579
10423TIP3    H255465   1.949   4.194  11.068  2.0372  0.3959 -0.1862
10424TIP3   OH255466   0.971   0.753  10.801 -0.0572  0.6807  0.5569
10424TIP3    H155467   0.882   0.718  10.799 -0.4051  1.5684 -0.1659
10424TIP3    H255468   0.967   0.824  10.865 -0.0886  1.2750 -0.1010
10425TIP3   OH255469   5.371   1.675  11.242 -0.1534  0.1896  0.3646
10425TIP3    H155470   5.311   1.672  11.167  0.2784  0.5263 -0.0021
10425TIP3    H255471   5.344   1.602  11.298  0.4566 -0.9926 -0.8380
10426TIP3   OH255472   2.550   3.505  11.307  0.0057 -0.2336 -0.4381
10426TIP3    H155473   2.641   3.510  11.279  0.0790  2.4508  0.0264
10426TIP3    H255474   2.552   3.525  11.401 -1.0419 -0.1932 -0.4066
10427TIP3   OH255475   4.170   1.057  11.112  0.2873 -0.6073 -0.2471
10427TIP3    H155476   4.184   0.999  11.188 -1.2634 -0.6579  0.0257
10427TIP3    H255477   4.105   1.011  11.059 -0.9678  0.8359 -0.0412
10428TIP3   OH255478   7.399   1.266  12.759 -0.4692 -0.0048 -0.2534
10428TIP3    H155479   7.350   1.186  12.743  2.1092 -1.8017  0.3293
10428TIP3    H255480   7.444   1.284  12.676  1.9314 -1.4254  0.6327
10429TIP3   OH255481   4.763   2.742  11.486  0.2430  0.0530 -0.5969
10429TIP3    H155482   4.734   2.829  11.511  0.0211 -0.1722 -0.0486
10429TIP3    H255483   4.843   2.757  11.436  1.3336  0.4846  1.1688
10430TIP3   OH255484   4.787   5.379  12.688 -0.1549 -0.7129  0.6679
10430TIP3    H155485   4.717   5.392  12.752 -0.1300 -1.2844  0.8157
10430TIP3    H255486   4.848   5.318  12.730 -0.1517 -1.1189  0.0977
10431TIP3   OH255487   3.113   6.962  12.452  0.2477  0.2395  0.3674
10431TIP3    H155488   3.066   7.045  12.448 -2.8251 -1.3509  0.0405
10431TIP3    H255489   3.059   6.902  12.400  1.5861 -2.2758  1.7200
10432TIP3   OH255490   3.132   5.667  10.980  0.5012 -0.0050 -0.0302
10432TIP3    H155491   3.101   5.752  11.010  2.8948  0.3905  1.5753
10432TIP3    H255492   3.213   5.686  10.931  0.1893 -1.2371 -1.1042
10433TIP3   OH255493   4.315   2.434  12.935 -0.5454  0.0058  0.0670
10433TIP3    H155494   4.292   2.418  12.844 -1.7090  1.5092  0.0596
10433TIP3    H255495   4.370   2.513  12.932 -1.3209  0.5896  0.7194
10434TIP3   OH255496   5.034   0.361  11.435  0.2138 -0.0746  0.6616
10434TIP3    H155497   5.063   0.424  11.501  1.0031  0.3726 -0.1116
10434TIP3    H255498   4.945   0.338  11.463  0.6564 -0.1630  2.0852
10435TIP3   OH255499   1.574   5.640  12.423 -0.0537  0.8285 -0.0926
10435TIP3    H155500   1.486   5.679  12.416 -0.1098  0.7841  0.3287
10435TIP3    H255501   1.564   5.571  12.489  0.4536  1.2816  0.4734
10436TIP3   OH255502   3.074   2.043  12.194  0.0770  0.4538 -0.1237
10436TIP3    H155503   3.124   1.967  12.225 -0.5230 -0.2134 -0.7540
10436TIP3    H255504   3.052   2.092  12.273 -0.2174 -0.4619  0.3707
10437TIP3   OH255505   6.138   4.750  10.820 -0.5093 -0.2672  0.1379
10437TIP3    H155506   6.127   4.660  10.789 -0.4308 -0.6247  1.1327
10437TIP3    H255507   6.052   4.777  10.851 -0.5212 -0.0055 -0.1070
10438TIP3   OH255508   2.253   1.998  12.403 -0.0732  0.2701 -0.0305
10438TIP3    H155509   2.177   2.040  12.364 -0.0031  1.3051  0.8959
10438TIP3    H255510   2.234   1.997  12.497  1.1678  0.8123  0.2479
10439TIP3   OH255511   0.854   5.319  13.256  0.4599  0.0592 -0.3011
10439TIP3    H155512   0.838   5.280  13.342  0.0344  1.2219  0.1823
10439TIP3    H255513   0.868   5.245  13.198  2.0537 -0.7303  0.9992
   7.68049   7.68049  30.00000
