Title
55513
    1DOPE     N    1   3.928   4.194  13.589 -0.0884 -0.7245 -0.2312
    1DOPE   HN1    2   4.009   4.221  13.647 -0.1773 -0.6528 -0.1400
    1DOPE   HN2    3   3.855   4.166  13.658 -0.5215  1.2167  0.1740
    1DOPE   HN3    4   3.959   4.108  13.539  3.1865 -0.6769  1.4721
    1DOPE   C12    5   3.889   4.311  13.500 -0.3114  0.6265 -0.0753
    1DOPE  H12A    6   3.819   4.271  13.423 -0.4860  2.3405 -0.8605
    1DOPE  H12B    7   3.981   4.350  13.451 -1.4288  1.7792 -1.3684
    1DOPE   C11    8   3.805   4.417  13.577  0.4109  0.2236 -0.9307
    1DOPE  H11A    9   3.711   4.366  13.609  0.8181 -0.3059 -0.5572
    1DOPE  H11B   10   3.766   4.492  13.505 -0.3279 -0.6685 -1.4864
    1DOPE     P   11   3.980   4.591  13.666  0.0836 -0.2092  0.2111
    1DOPE   O13   12   4.100   4.542  13.729  0.4627 -0.1132 -0.1131
    1DOPE   O14   13   3.912   4.711  13.724  0.1385  0.3270  0.3376
    1DOPE   O11   14   4.004   4.600  13.512 -0.2287 -0.5050  0.1011
    1DOPE   O12   15   3.880   4.475  13.684  0.3010  0.5786 -0.0108
    1DOPE    C1   16   3.980   4.721  13.439 -0.3348 -0.7900 -0.8311
    1DOPE    HA   17   4.065   4.792  13.434 -1.6626  0.8169 -1.4250
    1DOPE    HB   18   3.899   4.777  13.490  0.5563 -1.1894  1.1452
    1DOPE    C2   19   3.936   4.686  13.298  0.0917  0.4226 -0.0650
    1DOPE    HS   20   3.930   4.787  13.251 -1.3198  0.0889 -0.6340
    1DOPE   O21   21   3.803   4.628  13.322  0.1659  0.2585 -0.5068
    1DOPE   C21   22   3.714   4.638  13.224 -0.4013  0.4321  0.6836
    1DOPE   O22   23   3.737   4.687  13.116  0.8353  0.3753 -0.1464
    1DOPE   C22   24   3.590   4.564  13.262  0.4108  0.1053 -0.2029
    1DOPE   H2R   25   3.507   4.638  13.268 -2.3172 -2.8081  0.8034
    1DOPE   H2S   26   3.609   4.526  13.364  2.4706  0.0310 -0.5630
    1DOPE    C3   27   4.031   4.585  13.217  0.3575 -0.3483  0.1211
    1DOPE    HX   28   4.032   4.493  13.279 -1.5633 -0.9731 -0.7020
    1DOPE    HY   29   4.134   4.628  13.215  0.0053  0.6592  1.7220
    1DOPE   O31   30   4.004   4.569  13.082 -0.2204  0.4297 -0.3032
    1DOPE   C31   31   3.966   4.444  13.051 -0.1526 -0.1886 -0.3537
    1DOPE   O32   32   3.952   4.347  13.129  0.0883 -0.3161  0.4592
    1DOPE   C32   33   3.930   4.441  12.898  0.3068 -0.2143  0.4790
    1DOPE   H2X   34   3.899   4.336  12.878  0.8623 -0.0901 -1.2563
    1DOPE   H2Y   35   3.843   4.504  12.872  0.2857  0.2454  1.6424
    1DOPE   C23   36   3.551   4.436  13.185 -0.7888  0.2931  0.1558
    1DOPE   H3R   37   3.458   4.403  13.237 -0.4816  1.0077  1.1964
    1DOPE   H3S   38   3.641   4.373  13.202  0.0639  1.9188  2.1568
    1DOPE   C24   39   3.523   4.472  13.040  0.0896  0.2342  0.0033
    1DOPE   H4R   40   3.598   4.545  13.004  1.4676 -1.3491 -0.4360
    1DOPE   H4S   41   3.429   4.532  13.044  0.6356  1.0763  2.6957
    1DOPE   C25   42   3.520   4.353  12.945 -0.1339 -0.6879  0.3450
    1DOPE   H5R   43   3.438   4.280  12.964 -1.6040  0.6914 -0.4188
    1DOPE   H5S   44   3.613   4.298  12.969 -0.3990 -2.8229 -2.9027
    1DOPE   C26   45   3.529   4.406  12.801  0.0679 -0.3674  0.4439
    1DOPE   H6R   46   3.618   4.470  12.782  0.3476 -0.8935 -0.0203
    1DOPE   H6S   47   3.440   4.472  12.802  0.9785  0.9068  1.2253
    1DOPE   C27   48   3.524   4.285  12.713 -0.0822  0.2281 -0.0283
    1DOPE   H7R   49   3.439   4.224  12.750  1.7676 -2.0356  0.7374
    1DOPE   H7S   50   3.618   4.228  12.729  0.0848  0.5962  0.3462
    1DOPE   C28   51   3.500   4.309  12.554 -0.1689 -0.1017  0.3078
    1DOPE   H8R   52   3.435   4.399  12.559  1.4184  1.0395  0.9904
    1DOPE   H8S   53   3.451   4.222  12.504  0.6312 -1.3779  1.6663
    1DOPE   C29   54   3.630   4.339  12.480  0.0059 -0.2608  0.1578
    1DOPE   H9R   55   3.708   4.380  12.546 -1.0778  0.4544  1.0260
    1DOPE  C210   56   3.651   4.333  12.348 -1.1694  0.2942  0.5131
    1DOPE  H10R   57   3.743   4.379  12.309 -1.8053  2.7131  1.7267
    1DOPE  C211   58   3.542   4.305  12.249  0.3171 -0.2062  0.1860
    1DOPE  H11R   59   3.459   4.378  12.256  0.6572  0.2010  0.0102
    1DOPE  H11S   60   3.507   4.201  12.268  1.1842 -0.6212 -0.4082
    1DOPE  C212   61   3.610   4.302  12.098  0.7767  1.3256  0.4247
    1DOPE  H12R   62   3.668   4.208  12.094  0.2338  0.9793  0.5456
    1DOPE  H12S   63   3.679   4.387  12.082  2.0359  0.2252 -0.1923
    1DOPE  C213   64   3.502   4.309  11.986 -0.0303 -0.3120 -0.1077
    1DOPE  H13R   65   3.488   4.417  11.968 -0.8468 -0.2988  0.5880
    1DOPE  H13S   66   3.401   4.266  12.003 -0.4119  0.5325 -0.2196
    1DOPE  C214   67   3.549   4.242  11.853  0.3181 -1.0038  0.1794
    1DOPE  H14R   68   3.576   4.135  11.870  1.8427 -0.5634  0.6393
    1DOPE  H14S   69   3.644   4.292  11.827 -0.9266  0.9425 -0.8502
    1DOPE  C215   70   3.459   4.255  11.728  0.8006 -0.9248 -0.4297
    1DOPE  H15R   71   3.493   4.348  11.679  0.8887 -0.3673  0.6503
    1DOPE  H15S   72   3.354   4.266  11.763  0.8079 -3.2503  0.5465
    1DOPE  C216   73   3.471   4.156  11.617  0.6066  0.5501  0.9870
    1DOPE  H16R   74   3.440   4.051  11.635 -2.0604  1.1263  0.1568
    1DOPE  H16S   75   3.577   4.142  11.586  0.5658  0.7694  0.7410
    1DOPE  C217   76   3.389   4.204  11.498  0.7297 -1.1040  0.2266
    1DOPE  H17R   77   3.429   4.302  11.464 -1.0197  0.0336  1.3256
    1DOPE  H17S   78   3.287   4.223  11.535  1.0553  2.0483 -0.1681
    1DOPE  C218   79   3.402   4.116  11.366 -0.3760 -0.9343  0.4384
    1DOPE  H18R   80   3.443   4.016  11.390  2.8668  0.4207  1.1743
    1DOPE  H18S   81   3.456   4.174  11.288 -3.2095  2.0596  0.4674
    1DOPE  H18T   82   3.298   4.106  11.329  0.1154 -0.5032 -1.1329
    1DOPE   C33   83   4.052   4.483  12.815  0.5290  0.1029  0.2266
    1DOPE   H3X   84   4.141   4.423  12.843  0.9729 -0.0274 -1.3704
    1DOPE   H3Y   85   4.081   4.589  12.831 -0.4420  0.6972 -1.5892
    1DOPE   C34   86   4.026   4.454  12.667 -0.0535 -0.4627  0.0547
    1DOPE   H4X   87   4.024   4.345  12.644 -1.0071 -0.3296 -0.5479
    1DOPE   H4Y   88   3.927   4.485  12.628  0.6668 -1.4235 -2.8228
    1DOPE   C35   89   4.138   4.517  12.579 -0.4349 -0.0929  0.3029
    1DOPE   H5X   90   4.224   4.448  12.594 -1.5530 -1.3781  1.1212
    1DOPE   H5Y   91   4.172   4.613  12.622 -2.4121  0.7067  0.1680
    1DOPE   C36   92   4.104   4.535  12.430  0.2505  0.6441  0.3633
    1DOPE   H6X   93   4.177   4.605  12.383  0.8439  0.6614  1.2961
    1DOPE   H6Y   94   4.012   4.597  12.429  1.3841  2.4108  0.3926
    1DOPE   C37   95   4.098   4.405  12.339 -0.0119 -0.2529 -0.2520
    1DOPE   H7X   96   4.202   4.368  12.328  0.5535  0.6039  1.7416
    1DOPE   H7Y   97   4.043   4.325  12.392  0.3124  0.0457  0.5551
    1DOPE   C38   98   4.036   4.443  12.202  0.7004  0.6867  1.0602
    1DOPE   H8X   99   4.113   4.509  12.156  0.2668  0.7956  0.4781
    1DOPE   H8Y  100   3.944   4.504  12.218 -0.1081 -0.4892  1.0334
    1DOPE   C39  101   3.988   4.329  12.108 -0.1247 -0.1612 -0.3800
    1DOPE   H9X  102   3.997   4.228  12.151 -2.4888 -0.4979 -0.5671
    1DOPE  C310  103   3.972   4.336  11.974  0.0188  0.2381 -0.2324
    1DOPE  H10X  104   3.946   4.248  11.913  1.0548  0.5285 -1.1243
    1DOPE  C311  105   3.991   4.460  11.898 -0.3952  0.1881  0.4481
    1DOPE  H11X  106   3.899   4.522  11.900 -0.1366  0.7655 -2.0464
    1DOPE  H11Y  107   4.069   4.524  11.945  1.0893 -0.7392 -0.6379
    1DOPE  C312  108   4.032   4.443  11.752  0.1691  0.3437  0.2013
    1DOPE  H12X  109   4.113   4.367  11.752  0.0029 -0.0324 -3.7852
    1DOPE  H12Y  110   4.076   4.537  11.711  1.2767 -0.0480  0.4377
    1DOPE  C313  111   3.913   4.386  11.669  0.2320  0.4195  0.7244
    1DOPE  H13X  112   3.873   4.294  11.717  2.2485 -1.0050 -0.1748
    1DOPE  H13Y  113   3.840   4.469  11.680  1.9634  1.9473  1.4433
    1DOPE  C314  114   3.952   4.368  11.516 -0.4602 -0.1880 -0.1701
    1DOPE  H14X  115   4.037   4.296  11.516 -0.5807 -0.3346  0.5321
    1DOPE  H14Y  116   3.973   4.471  11.480  0.0763  0.0240  0.7340
    1DOPE  C315  117   3.842   4.301  11.422 -0.4761  0.3034 -0.0413
    1DOPE  H15X  118   3.763   4.377  11.404  0.3479  1.3096  0.4311
    1DOPE  H15Y  119   3.798   4.220  11.483  2.6531 -1.4673  0.1179
    1DOPE  C316  120   3.910   4.252  11.290 -1.0359 -0.3411 -0.1370
    1DOPE  H16X  121   3.832   4.198  11.233 -2.8709  1.3900  0.6198
    1DOPE  H16Y  122   3.989   4.174  11.304 -1.7113 -0.9696  0.2319
    1DOPE  C317  123   3.952   4.363  11.190 -0.0453 -0.2189  0.1166
    1DOPE  H17X  124   3.874   4.441  11.202 -0.3824 -0.4971 -0.2628
    1DOPE  H17Y  125   4.047   4.409  11.226  0.5344 -2.7232  2.0891
    1DOPE  C318  126   3.973   4.312  11.049 -0.4387  0.6215  0.1481
    1DOPE  H18X  127   4.059   4.242  11.051 -2.5120 -2.0839  0.6643
    1DOPE  H18Y  128   3.885   4.253  11.015 -0.6634 -0.0834  1.8874
    1DOPE  H18Z  129   3.991   4.405  10.989  0.4036  0.1686 -0.3260
    2DOPE     N  130   4.131   4.916  14.168  0.3872 -0.3781 -0.0292
    2DOPE   HN1  131   4.130   4.895  14.269 -1.6248  2.7809  0.7651
    2DOPE   HN2  132   4.160   4.834  14.112  4.0553  1.3186 -0.9156
    2DOPE   HN3  133   4.206   4.986  14.150 -0.4768  0.3969 -0.7598
    2DOPE   C12  134   3.995   4.981  14.143  0.1183  0.4241  1.0334
    2DOPE  H12A  135   3.997   5.066  14.215 -0.7415  1.7326 -0.4207
    2DOPE  H12B  136   3.922   4.904  14.176  0.4697  0.5901  2.2711
    2DOPE   C11  137   3.970   5.030  13.998  1.1174  0.2024  0.2299
    2DOPE  H11A  138   3.864   5.058  13.980  1.7083  0.9825 -2.4196
    2DOPE  H11B  139   3.979   4.946  13.926  0.1791  0.0934  0.2349
    2DOPE     P  140   4.181   5.138  13.897 -0.2617 -0.2909  0.1276
    2DOPE   O13  141   4.290   5.088  13.981 -0.1342 -0.2501  0.7621
    2DOPE   O14  142   4.202   5.269  13.828 -0.0905 -0.1833 -0.2016
    2DOPE   O11  143   4.149   5.035  13.784 -0.4235 -0.6050  0.2290
    2DOPE   O12  144   4.050   5.147  13.981  0.6939  0.2365 -0.2889
    2DOPE    C1  145   4.240   4.925  13.747  0.0715 -0.1482  0.1600
    2DOPE    HA  146   4.175   4.847  13.703  0.0720 -0.8166  1.3136
    2DOPE    HB  147   4.296   4.881  13.831 -0.3263 -1.1487 -0.0912
    2DOPE    C2  148   4.350   4.971  13.649  0.9452  0.1338 -0.4836
    2DOPE    HS  149   4.396   5.062  13.693  1.2980 -0.6722  0.8833
    2DOPE   O21  150   4.279   5.010  13.527 -0.1090  0.0113  0.0483
    2DOPE   C21  151   4.323   5.110  13.456  0.1070  0.1877 -0.4831
    2DOPE   O22  152   4.410   5.192  13.486  0.6234 -0.5914  0.4446
    2DOPE   C22  153   4.240   5.107  13.332  0.4934 -0.3215  0.6306
    2DOPE   H2R  154   4.267   5.195  13.271 -1.5529  1.1678  1.7628
    2DOPE   H2S  155   4.133   5.120  13.360  0.6273 -0.9651  1.5067
    2DOPE    C3  156   4.435   4.852  13.620 -0.3932  0.5160  0.5942
    2DOPE    HX  157   4.380   4.761  13.587  0.9362 -0.8006  1.8556
    2DOPE    HY  158   4.488   4.809  13.708  3.7583  1.7349 -1.0929
    2DOPE   O31  159   4.522   4.884  13.514 -0.7298  0.4435 -0.3100
    2DOPE   C31  160   4.639   4.819  13.501 -0.1188 -0.1875  0.3032
    2DOPE   O32  161   4.676   4.727  13.577  0.3293 -0.4980  0.5702
    2DOPE   C32  162   4.715   4.874  13.375 -0.3229 -0.4689  0.1816
    2DOPE   H2X  163   4.652   4.856  13.286  1.0851 -0.5734 -0.8224
    2DOPE   H2Y  164   4.733   4.984  13.382  1.9171 -0.6058 -1.9894
    2DOPE   C23  165   4.260   4.975  13.250  0.1921 -0.2202  0.2975
    2DOPE   H3R  166   4.246   4.880  13.305 -0.4137  0.4590  1.3460
    2DOPE   H3S  167   4.363   4.975  13.208  0.0332  0.8092 -0.1298
    2DOPE   C24  168   4.150   4.968  13.146  0.1128  0.1368  0.0888
    2DOPE   H4R  169   4.063   4.952  13.213 -0.7833  1.3119 -0.7440
    2DOPE   H4S  170   4.155   4.879  13.080 -1.3811  1.5530 -2.0812
    2DOPE   C25  171   4.110   5.088  13.060 -0.0354  0.8639 -0.0861
    2DOPE   H5R  172   4.084   5.178  13.120 -2.1597 -0.9929  1.9673
    2DOPE   H5S  173   4.021   5.060  12.999  0.5499 -0.6807 -0.2661
    2DOPE   C26  174   4.217   5.124  12.963  0.2069 -0.3545 -0.2634
    2DOPE   H6R  175   4.303   5.170  13.017  0.7052 -0.7563 -0.7063
    2DOPE   H6S  176   4.180   5.207  12.900  0.1305 -1.4746 -1.7378
    2DOPE   C27  177   4.265   5.008  12.876 -0.5350 -0.2016 -0.2274
    2DOPE   H7R  178   4.278   4.917  12.939  0.4071 -0.1479 -0.3337
    2DOPE   H7S  179   4.364   5.028  12.831 -0.0053 -3.4405 -0.7893
    2DOPE   C28  180   4.181   4.977  12.751  0.3025 -0.2864 -0.1106
    2DOPE   H8R  181   4.091   4.925  12.790  0.4494  1.6526  3.1436
    2DOPE   H8S  182   4.235   4.897  12.695 -0.6437  0.4113 -2.1161
    2DOPE   C29  183   4.147   5.095  12.660  0.4399 -0.6042 -0.3222
    2DOPE   H9R  184   4.170   5.191  12.707 -2.8614  0.2099 -0.1215
    2DOPE  C210  185   4.134   5.094  12.531 -0.1617 -0.3181 -0.0308
    2DOPE  H10R  186   4.120   5.191  12.480 -0.7916  0.0631  0.8364
    2DOPE  C211  187   4.154   4.975  12.440 -0.4934  0.1017 -0.5232
    2DOPE  H11R  188   4.070   4.962  12.368 -1.1672 -1.6289  0.5001
    2DOPE  H11S  189   4.149   4.878  12.494  2.0389  0.4546  0.4644
    2DOPE  C212  190   4.287   4.978  12.361 -0.4850  0.4836 -0.0122
    2DOPE  H12R  191   4.370   4.958  12.433  1.9849  1.1781 -2.4758
    2DOPE  H12S  192   4.305   5.080  12.322  0.7290 -1.2251 -4.5535
    2DOPE  C213  193   4.303   4.871  12.255  0.6443 -0.0974  0.2302
    2DOPE  H13R  194   4.262   4.772  12.282  0.7933 -0.2549 -0.1168
    2DOPE  H13S  195   4.412   4.861  12.235  0.3207 -3.5747 -0.4217
    2DOPE  C214  196   4.240   4.920  12.126  0.3230  0.2758  0.4958
    2DOPE  H14R  197   4.278   5.024  12.114  1.6906 -0.2409  0.1106
    2DOPE  H14S  198   4.129   4.915  12.128  0.3218  0.4539  1.1600
    2DOPE  C215  199   4.294   4.845  12.001  0.4979  0.3245 -0.2522
    2DOPE  H15R  200   4.277   4.737  12.018 -2.9408  0.9395  1.2285
    2DOPE  H15S  201   4.404   4.859  11.991  0.2470  0.9564 -2.5221
    2DOPE  C216  202   4.222   4.886  11.870  0.1894  0.3003 -0.4414
    2DOPE  H16R  203   4.256   4.989  11.848  0.5409  0.2029 -0.3659
    2DOPE  H16S  204   4.112   4.893  11.887  0.2731 -0.5899  0.5886
    2DOPE  C217  205   4.241   4.797  11.753  0.5461 -0.4620  0.3342
    2DOPE  H17R  206   4.201   4.697  11.781  0.1109 -0.1461  0.8723
    2DOPE  H17S  207   4.347   4.779  11.728  0.9041  1.2222  0.5500
    2DOPE  C218  208   4.163   4.841  11.630  0.0423 -0.2773  0.0624
    2DOPE  H18R  209   4.187   4.941  11.586  1.4429  0.9402  3.2745
    2DOPE  H18S  210   4.054   4.829  11.646 -0.0029 -1.8684 -1.2111
    2DOPE  H18T  211   4.200   4.779  11.545  1.2704  1.0322 -0.4092
    2DOPE   C33  212   4.847   4.805  13.349 -0.3862  0.5286 -0.0174
    2DOPE   H3X  213   4.813   4.701  13.329  0.5162  0.2736 -0.2910
    2DOPE   H3Y  214   4.912   4.794  13.439 -1.1746 -2.4981  0.2895
    2DOPE   C34  215   4.935   4.850  13.231  0.0296  0.3705 -1.3276
    2DOPE   H4X  216   4.978   4.950  13.251  1.6240 -0.6926  0.9695
    2DOPE   H4Y  217   5.022   4.782  13.215  0.0423  0.0249  0.1178
    2DOPE   C35  218   4.858   4.859  13.102  0.1383 -0.2546 -0.4249
    2DOPE   H5X  219   4.756   4.900  13.112 -0.4232 -1.6827 -0.0970
    2DOPE   H5Y  220   4.838   4.753  13.076 -3.8365 -0.3350  2.1539
    2DOPE   C36  221   4.928   4.937  12.993 -0.2516 -0.6922  0.3218
    2DOPE   H6X  222   5.037   4.923  13.009  0.3398  2.6608 -0.0465
    2DOPE   H6Y  223   4.918   5.046  13.011  3.7058 -0.3002  1.0053
    2DOPE   C37  224   4.891   4.911  12.844  0.3566 -0.2565  1.2429
    2DOPE   H7X  225   4.783   4.934  12.829  0.0049 -2.7245 -0.5392
    2DOPE   H7Y  226   4.964   4.972  12.786 -0.9072  0.6613  0.5566
    2DOPE   C38  227   4.888   4.762  12.802  0.0259  0.0767  0.5243
    2DOPE   H8X  228   4.835   4.773  12.705  0.2958 -1.8826  0.1088
    2DOPE   H8Y  229   4.817   4.711  12.871 -0.6030 -2.2905 -1.7171
    2DOPE   C39  230   5.026   4.694  12.789  0.5763  0.2472 -0.1826
    2DOPE   H9X  231   5.066   4.639  12.875  0.9659  0.3916 -0.2696
    2DOPE  C310  232   5.104   4.710  12.683 -0.6561 -0.0709 -0.0982
    2DOPE  H10X  233   5.202   4.660  12.695 -1.0584 -0.6433  0.9452
    2DOPE  C311  234   5.081   4.779  12.556  0.3465  0.4922  0.4120
    2DOPE  H11X  235   4.984   4.834  12.561 -0.6792 -1.2762  1.1769
    2DOPE  H11Y  236   5.160   4.854  12.536 -0.5300  0.9454 -1.6591
    2DOPE  C312  237   5.097   4.674  12.440  0.3761  0.2193 -0.1572
    2DOPE  H12X  238   5.039   4.582  12.461  0.7917  0.6158  3.2083
    2DOPE  H12Y  239   5.204   4.650  12.423  0.3615  1.4144 -2.4014
    2DOPE  C313  240   5.065   4.740  12.301  0.4559  0.3276 -0.7508
    2DOPE  H13X  241   4.963   4.782  12.308  0.0174 -0.8370  0.0973
    2DOPE  H13Y  242   5.141   4.821  12.288  4.1016 -2.7283 -0.3878
    2DOPE  C314  243   5.068   4.630  12.186 -0.4030 -0.3554 -0.6807
    2DOPE  H14X  244   5.001   4.544  12.206  0.1975 -0.6645  0.0926
    2DOPE  H14Y  245   5.172   4.591  12.182 -0.6014 -0.7718 -1.9289
    2DOPE  C315  246   5.031   4.698  12.056 -0.2051 -0.3953 -0.6296
    2DOPE  H15X  247   5.108   4.772  12.026 -0.1028  0.4678  1.6236
    2DOPE  H15Y  248   4.938   4.756  12.071  0.4326  0.8433 -1.3441
    2DOPE  C316  249   5.022   4.607  11.938 -0.8982  0.1614  0.6504
    2DOPE  H16X  250   4.934   4.540  11.940 -2.1220  1.5942 -1.6015
    2DOPE  H16Y  251   5.116   4.548  11.927 -1.0868 -0.0593  0.1703
    2DOPE  C317  252   5.006   4.676  11.800  0.3739 -0.1028 -0.2819
    2DOPE  H17X  253   4.932   4.758  11.811 -0.3351 -0.8272  0.5008
    2DOPE  H17Y  254   5.101   4.728  11.774  0.8564  0.2702  1.9929
    2DOPE  C318  255   4.957   4.598  11.679 -0.1381 -0.9845 -0.0549
    2DOPE  H18X  256   4.938   4.668  11.595  1.4596 -0.6759 -0.1828
    2DOPE  H18Y  257   5.029   4.518  11.647  4.7803  2.9804 -0.1366
    2DOPE  H18Z  258   4.855   4.562  11.702 -0.1906 -0.6007  0.3169
    3DOPE     N  259   2.838   5.636  13.463 -0.2504  1.0611 -0.0020
    3DOPE   HN1  260   2.902   5.632  13.382 -1.5098 -0.4087 -0.9936
    3DOPE   HN2  261   2.871   5.689  13.546  1.4361 -0.7236  0.5408
    3DOPE   HN3  262   2.825   5.537  13.494  2.0163  0.8389  0.3889
    3DOPE   C12  263   2.713   5.690  13.403 -0.1646 -0.5027 -0.6473
    3DOPE  H12A  264   2.627   5.673  13.471 -0.0538 -0.7991 -0.5832
    3DOPE  H12B  265   2.699   5.637  13.306 -1.2789 -0.6392 -0.4335
    3DOPE   C11  266   2.717   5.837  13.369  0.4473  0.3457 -0.1081
    3DOPE  H11A  267   2.633   5.855  13.299  1.2794  1.2284 -0.9155
    3DOPE  H11B  268   2.799   5.868  13.301 -1.1052  0.2539 -2.1006
    3DOPE     P  269   2.826   5.976  13.567 -0.5178 -0.0987 -0.3267
    3DOPE   O13  270   2.904   5.858  13.610  0.3317  0.6518  0.5463
    3DOPE   O14  271   2.774   6.072  13.671  0.1956  0.2378 -0.6250
    3DOPE   O11  272   2.927   6.061  13.476  0.0995  0.6315  0.2774
    3DOPE   O12  273   2.701   5.923  13.479  0.1498 -0.2934 -0.1131
    3DOPE    C1  274   2.881   6.176  13.406  0.3230 -0.3741  0.6690
    3DOPE    HA  275   2.940   6.265  13.439  1.5622 -0.5046 -1.0091
    3DOPE    HB  276   2.779   6.202  13.442 -0.0535 -0.0238 -0.6043
    3DOPE    C2  277   2.880   6.152  13.251  0.4407 -0.2749 -0.1078
    3DOPE    HS  278   2.894   6.253  13.207 -1.7332  0.2871  0.3501
    3DOPE   O21  279   2.757   6.091  13.211  0.0894  0.1404 -0.2389
    3DOPE   C21  280   2.653   6.170  13.205 -0.1050 -0.4378 -0.3960
    3DOPE   O22  281   2.655   6.291  13.228 -0.0708  0.0947  0.4130
    3DOPE   C22  282   2.533   6.093  13.146  0.7031 -0.3149 -0.0897
    3DOPE   H2R  283   2.513   5.993  13.191 -1.0800 -0.1354 -0.3916
    3DOPE   H2S  284   2.543   6.088  13.036 -2.2186  3.6666 -0.7520
    3DOPE    C3  285   2.999   6.066  13.206 -0.1386  0.2360 -0.3270
    3DOPE    HX  286   3.010   5.975  13.269  0.6263  1.1071  0.8513
    3DOPE    HY  287   3.093   6.118  13.237  1.6698 -3.2355  0.5883
    3DOPE   O31  288   3.015   6.052  13.061  0.6169 -0.0042 -0.0606
    3DOPE   C31  289   2.975   5.942  13.010 -0.4357 -0.3760 -0.0189
    3DOPE   O32  290   2.924   5.846  13.069  0.3128  0.1964 -0.0072
    3DOPE   C32  291   2.995   5.944  12.858 -0.3995 -0.4405 -1.2387
    3DOPE   H2X  292   2.969   6.049  12.831  3.1588  1.4105  1.6750
    3DOPE   H2Y  293   3.095   5.915  12.819  0.1771 -1.2514  0.7296
    3DOPE   C23  294   2.399   6.169  13.157 -0.4610  0.3501 -0.2872
    3DOPE   H3R  295   2.406   6.278  13.136  0.0952  0.3457 -0.1662
    3DOPE   H3S  296   2.374   6.169  13.265 -1.1916  0.1358 -0.4525
    3DOPE   C24  297   2.283   6.097  13.094 -0.1359 -0.1060 -0.8678
    3DOPE   H4R  298   2.271   5.992  13.130  3.0586 -0.1878  0.3241
    3DOPE   H4S  299   2.305   6.070  12.989 -0.3412 -0.9254 -0.7100
    3DOPE   C25  300   2.146   6.173  13.114  0.5937 -0.2179  0.5516
    3DOPE   H5R  301   2.133   6.181  13.224 -0.4698  0.0460  0.4193
    3DOPE   H5S  302   2.066   6.115  13.062 -1.1796  0.4711  2.3703
    3DOPE   C26  303   2.142   6.311  13.047 -0.5511  0.2718  0.7635
    3DOPE   H6R  304   2.212   6.362  13.117 -1.4960  1.7509  0.6927
    3DOPE   H6S  305   2.040   6.355  13.059 -0.5731  0.5965 -0.5100
    3DOPE   C27  306   2.199   6.305  12.909  0.0554  0.0464  0.6323
    3DOPE   H7R  307   2.294   6.248  12.898 -0.0197 -0.2679  1.5910
    3DOPE   H7S  308   2.225   6.407  12.873  0.8528 -0.2408  0.3632
    3DOPE   C28  309   2.091   6.255  12.804  0.1461  0.3861 -0.6238
    3DOPE   H8R  310   2.024   6.335  12.766  0.6218  0.0773 -2.2053
    3DOPE   H8S  311   2.031   6.175  12.852  1.2280  1.4912  2.9160
    3DOPE   C29  312   2.167   6.191  12.691 -0.1953 -1.0092  0.2952
    3DOPE   H9R  313   2.255   6.134  12.726 -0.2010 -1.1365  0.1035
    3DOPE  C210  314   2.164   6.223  12.558  0.1126  0.2914  0.2344
    3DOPE  H10R  315   2.230   6.167  12.489 -2.4262 -3.2897  0.4208
    3DOPE  C211  316   2.062   6.307  12.488 -0.3948 -0.0132  0.1960
    3DOPE  H11R  317   2.099   6.412  12.493  2.1452 -0.8641  0.9976
    3DOPE  H11S  318   1.968   6.301  12.546 -0.4750  1.1103  0.2145
    3DOPE  C212  319   2.044   6.278  12.338  0.1290 -0.8451 -0.0059
    3DOPE  H12R  320   1.950   6.314  12.291  0.9396 -0.9262 -1.8104
    3DOPE  H12S  321   2.047   6.167  12.333  1.3922 -0.8258  0.0738
    3DOPE  C213  322   2.157   6.332  12.253  0.6532 -0.2751  0.1346
    3DOPE  H13R  323   2.240   6.259  12.255 -0.5829 -1.7954 -1.3556
    3DOPE  H13S  324   2.200   6.428  12.290  1.9018 -0.2972 -1.1606
    3DOPE  C214  325   2.105   6.351  12.104 -0.4909 -0.8920  0.4544
    3DOPE  H14R  326   2.028   6.431  12.097  1.5992  1.0842 -1.6442
    3DOPE  H14S  327   2.061   6.266  12.047 -2.4135  1.0751 -1.2090
    3DOPE  C215  328   2.215   6.402  12.013 -0.6614 -0.1872  0.7183
    3DOPE  H15R  329   2.304   6.337  12.024  0.2517  0.4438 -2.0308
    3DOPE  H15S  330   2.241   6.508  12.033 -1.2409  0.3588 -1.2160
    3DOPE  C216  331   2.174   6.396  11.862  0.2439 -0.1240 -0.5379
    3DOPE  H16R  332   2.262   6.451  11.822  1.4976 -1.3002  0.4891
    3DOPE  H16S  333   2.092   6.469  11.848  1.4094  1.3939  0.1872
    3DOPE  C217  334   2.169   6.259  11.805 -0.2429  0.0139  0.6990
    3DOPE  H17R  335   2.074   6.218  11.845 -0.9933  0.6007 -0.4543
    3DOPE  H17S  336   2.254   6.197  11.842 -0.6914 -2.2472 -1.7667
    3DOPE  C218  337   2.178   6.249  11.654 -0.0179 -0.3981  1.0267
    3DOPE  H18R  338   2.278   6.278  11.616  0.6085 -2.6805  0.7675
    3DOPE  H18S  339   2.092   6.304  11.611 -0.6901  0.5681  3.4598
    3DOPE  H18T  340   2.164   6.143  11.620 -0.3134  0.6203 -2.4806
    3DOPE   C33  341   2.890   5.851  12.794 -0.3118 -0.1009 -0.1201
    3DOPE   H3X  342   2.852   5.900  12.702  1.9757  0.4029 -0.8641
    3DOPE   H3Y  343   2.798   5.839  12.855 -0.5381 -0.4737 -0.5320
    3DOPE   C34  344   2.949   5.715  12.775 -0.1283 -0.2111 -0.1402
    3DOPE   H4X  345   3.043   5.711  12.715 -0.8892 -0.8206 -1.3498
    3DOPE   H4Y  346   3.004   5.693  12.869 -1.0675  0.4286  0.5600
    3DOPE   C35  347   2.862   5.596  12.747 -0.2132 -0.3486  0.4540
    3DOPE   H5X  348   2.796   5.587  12.835 -0.8752 -0.0961 -0.0001
    3DOPE   H5Y  349   2.926   5.507  12.733  0.1146 -0.0819  0.2192
    3DOPE   C36  350   2.783   5.609  12.610  0.5995 -0.0143  0.0890
    3DOPE   H6X  351   2.709   5.691  12.623 -0.4256 -0.9074 -0.0241
    3DOPE   H6Y  352   2.720   5.520  12.590 -0.9507  0.8222  1.0659
    3DOPE   C37  353   2.877   5.650  12.491  0.2812 -0.1881 -0.6869
    3DOPE   H7X  354   2.945   5.729  12.531  0.5796 -1.0661  0.6271
    3DOPE   H7Y  355   2.932   5.556  12.471 -0.2252 -0.8012  0.6881
    3DOPE   C38  356   2.808   5.684  12.359 -1.1020 -0.5604  0.0884
    3DOPE   H8X  357   2.763   5.785  12.355  1.5596  0.6865 -1.1105
    3DOPE   H8Y  358   2.733   5.605  12.337  0.5604 -1.5342 -2.5984
    3DOPE   C39  359   2.904   5.692  12.242  0.8564  0.2776 -0.2296
    3DOPE   H9X  360   2.992   5.629  12.261  0.0588 -0.2663  1.9179
    3DOPE  C310  361   2.907   5.773  12.133 -1.0604  0.5858  0.1777
    3DOPE  H10X  362   2.987   5.742  12.063 -0.7717 -0.1981  0.8359
    3DOPE  C311  363   2.802   5.880  12.095 -0.0226  0.0101  0.1171
    3DOPE  H11X  364   2.730   5.882  12.181  2.0763 -2.7569  2.1318
    3DOPE  H11Y  365   2.847   5.981  12.089  1.5355 -0.7476 -3.1620
    3DOPE  C312  366   2.741   5.863  11.950 -0.3077  0.2055  0.0048
    3DOPE  H12X  367   2.655   5.929  11.928 -0.0061  0.2307 -1.1379
    3DOPE  H12Y  368   2.701   5.760  11.935  2.7964 -0.8696 -1.8038
    3DOPE  C313  369   2.848   5.886  11.837  0.3677 -0.0946  0.6878
    3DOPE  H13X  370   2.895   5.987  11.839 -0.3230  0.2574 -0.2528
    3DOPE  H13Y  371   2.935   5.817  11.845 -0.9718 -1.7713  1.3363
    3DOPE  C314  372   2.784   5.861  11.699 -0.2536  0.2836 -0.1884
    3DOPE  H14X  373   2.729   5.951  11.663 -0.6486  0.4380  0.7801
    3DOPE  H14Y  374   2.719   5.772  11.704  0.2652 -0.0241  2.5732
    3DOPE  C315  375   2.899   5.833  11.601 -0.1239  0.4747 -0.0056
    3DOPE  H15X  376   2.949   5.739  11.631 -1.5100 -0.0050  0.9162
    3DOPE  H15Y  377   2.970   5.919  11.605 -1.4680  1.6276  0.1283
    3DOPE  C316  378   2.845   5.837  11.452 -0.1315 -0.2378  0.1222
    3DOPE  H16X  379   2.930   5.811  11.386  1.1319  2.5138  0.5212
    3DOPE  H16Y  380   2.824   5.942  11.423  0.8667 -0.5761 -2.0204
    3DOPE  C317  381   2.720   5.744  11.427 -0.5234 -0.1170 -0.5700
    3DOPE  H17X  382   2.635   5.771  11.493  1.0026  0.0271  1.4263
    3DOPE  H17Y  383   2.708   5.761  11.317  1.9977  1.1621 -0.7101
    3DOPE  C318  384   2.752   5.599  11.439 -0.3859 -0.2158 -0.3165
    3DOPE  H18X  385   2.772   5.575  11.546 -0.6508  0.0744 -0.1995
    3DOPE  H18Y  386   2.665   5.533  11.420  0.6926 -2.8065  2.7321
    3DOPE  H18Z  387   2.843   5.562  11.388 -0.5745 -3.8978  1.6658
    4DOPE     N  388   4.802   4.478  13.698 -0.2274 -0.1549 -0.9959
    4DOPE   HN1  389   4.881   4.425  13.740 -0.1406  0.7807  0.0827
    4DOPE   HN2  390   4.755   4.414  13.632 -0.6238 -0.9893  0.0762
    4DOPE   HN3  391   4.833   4.564  13.647  1.1880 -1.4131 -2.3874
    4DOPE   C12  392   4.710   4.509  13.813  0.9046 -0.5164  0.3583
    4DOPE  H12A  393   4.608   4.515  13.770  1.4342  1.1192 -0.7593
    4DOPE  H12B  394   4.741   4.605  13.860 -1.4997  0.4959  0.0024
    4DOPE   C11  395   4.718   4.397  13.909 -0.1111  0.2575  0.6685
    4DOPE  H11A  396   4.665   4.423  14.003 -0.2742 -1.2885  1.0150
    4DOPE  H11B  397   4.820   4.369  13.943  0.2286  1.9580  1.1753
    4DOPE     P  398   4.512   4.242  13.875  0.2425 -0.3505 -0.1868
    4DOPE   O13  399   4.428   4.347  13.810  0.3517  0.3149  0.2771
    4DOPE   O14  400   4.499   4.214  14.018  0.4088 -0.3818 -0.0526
    4DOPE   O11  401   4.505   4.105  13.792  0.3341 -0.5135  0.2249
    4DOPE   O12  402   4.665   4.279  13.853  0.3049  0.4409  0.2974
    4DOPE    C1  403   4.582   4.091  13.665  0.0367 -0.1394  0.2627
    4DOPE    HA  404   4.635   3.994  13.663  1.2241  0.4981 -0.3746
    4DOPE    HB  405   4.664   4.165  13.656  1.1871 -1.0975  2.1231
    4DOPE    C2  406   4.492   4.117  13.539 -0.6118  0.3893 -0.1383
    4DOPE    HS  407   4.552   4.108  13.445 -0.3742  1.1644 -0.0690
    4DOPE   O21  408   4.432   4.246  13.534 -0.1481 -0.1954  0.2544
    4DOPE   C21  409   4.504   4.349  13.512 -0.7568 -0.0778  0.4403
    4DOPE   O22  410   4.625   4.344  13.503 -0.4307 -0.0800  0.5911
    4DOPE   C22  411   4.425   4.475  13.496  0.2192 -0.0444 -0.1371
    4DOPE   H2R  412   4.441   4.537  13.587  0.7236 -0.3313 -0.0231
    4DOPE   H2S  413   4.315   4.458  13.497  0.0557  0.9215 -0.2870
    4DOPE    C3  414   4.371   4.023  13.540  0.3992  0.4882 -0.2074
    4DOPE    HX  415   4.292   4.057  13.469  1.5967  1.6522 -1.0266
    4DOPE    HY  416   4.306   4.032  13.630 -1.1254  0.5348 -1.2733
    4DOPE   O31  417   4.412   3.888  13.525  0.3618 -0.0615 -0.1989
    4DOPE   C31  418   4.342   3.806  13.446  0.2560  0.4872 -0.3316
    4DOPE   O32  419   4.253   3.844  13.373  0.0516  0.2415  0.3703
    4DOPE   C32  420   4.393   3.664  13.463  0.0031  0.1792 -0.0455
    4DOPE   H2X  421   4.501   3.678  13.440  0.0164 -1.1844 -0.9342
    4DOPE   H2Y  422   4.383   3.645  13.572  1.7896  1.7789  0.4721
    4DOPE   C23  423   4.464   4.566  13.373  0.2050  1.0262  0.4282
    4DOPE   H3R  424   4.574   4.574  13.376  0.6067 -2.1384 -1.0866
    4DOPE   H3S  425   4.416   4.666  13.376 -0.3780  0.8303 -1.2864
    4DOPE   C24  426   4.429   4.496  13.236  0.1808 -0.4097  0.4609
    4DOPE   H4R  427   4.338   4.432  13.235  0.0625 -0.2468 -1.2217
    4DOPE   H4S  428   4.509   4.419  13.230  1.8160  1.3788 -1.9539
    4DOPE   C25  429   4.429   4.599  13.117  0.2889  0.2967 -1.2575
    4DOPE   H5R  430   4.531   4.641  13.105  0.5552 -0.4253 -1.5832
    4DOPE   H5S  431   4.356   4.681  13.138  2.0101  1.8318 -1.0195
    4DOPE   C26  432   4.397   4.525  12.988 -0.3713  0.2177  0.2256
    4DOPE   H6R  433   4.299   4.475  13.003  0.0752 -0.0538  2.4866
    4DOPE   H6S  434   4.474   4.446  12.981 -0.6626 -0.3935  2.9610
    4DOPE   C27  435   4.382   4.617  12.862 -0.4843  0.4834  0.0374
    4DOPE   H7R  436   4.295   4.685  12.875  0.1211  1.2046  0.4547
    4DOPE   H7S  437   4.342   4.552  12.781 -1.0049  0.7122  0.1092
    4DOPE   C28  438   4.508   4.674  12.804 -0.6479 -0.1307 -0.1350
    4DOPE   H8R  439   4.567   4.583  12.779 -0.2704  0.0758 -0.0147
    4DOPE   H8S  440   4.558   4.730  12.887 -0.3737 -0.9101  0.2316
    4DOPE   C29  441   4.487   4.762  12.684  0.0711  0.0125 -0.5032
    4DOPE   H9R  442   4.475   4.868  12.709  2.7599  0.0567  1.0193
    4DOPE  C210  443   4.510   4.718  12.555 -0.2842  0.8673 -0.4070
    4DOPE  H10R  444   4.511   4.788  12.470  1.7286 -1.7805 -2.7398
    4DOPE  C211  445   4.531   4.580  12.512  0.0599  0.3592 -0.9031
    4DOPE  H11R  446   4.450   4.538  12.448  0.7270  0.7716 -2.0410
    4DOPE  H11S  447   4.525   4.516  12.603  2.0106  0.7521 -0.4439
    4DOPE  C212  448   4.677   4.553  12.460 -0.0027  0.0049 -0.4341
    4DOPE  H12R  449   4.708   4.446  12.467 -2.4039 -0.7377 -0.2820
    4DOPE  H12S  450   4.755   4.615  12.508  0.9961 -0.4931 -1.3618
    4DOPE  C213  451   4.696   4.607  12.318 -0.2210 -0.2198  0.4274
    4DOPE  H13R  452   4.799   4.584  12.286  0.4931 -0.1745  2.5349
    4DOPE  H13S  453   4.689   4.718  12.320 -0.7166 -0.2358 -0.1084
    4DOPE  C214  454   4.598   4.560  12.217 -0.3546  0.3797  0.8903
    4DOPE  H14R  455   4.494   4.549  12.254 -0.1849 -1.3195  0.9545
    4DOPE  H14S  456   4.615   4.451  12.204  1.4745  0.2597  3.3722
    4DOPE  C215  457   4.600   4.637  12.086 -0.1925  0.3301 -0.6683
    4DOPE  H15R  458   4.701   4.666  12.051 -0.9850  1.8137 -1.8915
    4DOPE  H15S  459   4.542   4.728  12.112  1.1448  0.7391  1.0306
    4DOPE  C216  460   4.519   4.572  11.973  0.3729 -0.2936  0.3940
    4DOPE  H16R  461   4.494   4.638  11.888  1.6742 -1.6324 -1.0900
    4DOPE  H16S  462   4.423   4.532  12.013  0.4600 -0.8547  0.0562
    4DOPE  C217  463   4.592   4.459  11.902 -0.0709 -0.4535  0.3524
    4DOPE  H17R  464   4.601   4.373  11.972 -0.3091  0.3173  1.3608
    4DOPE  H17S  465   4.692   4.494  11.870 -0.6963  1.0250 -0.0789
    4DOPE  C218  466   4.512   4.412  11.777 -0.0224 -0.1828 -0.1258
    4DOPE  H18R  467   4.414   4.371  11.809 -1.0000  1.1629 -1.2448
    4DOPE  H18S  468   4.567   4.335  11.719  1.6892  0.8245  0.0923
    4DOPE  H18T  469   4.485   4.496  11.708  0.1935 -0.0672 -0.0681
    4DOPE   C33  470   4.326   3.541  13.393 -0.1826 -0.3355 -0.3113
    4DOPE   H3X  471   4.216   3.537  13.410 -0.1781 -3.1494 -0.5242
    4DOPE   H3Y  472   4.377   3.450  13.429 -0.2062 -0.1499  0.2050
    4DOPE   C34  473   4.357   3.557  13.241  0.1256 -0.1116 -0.2448
    4DOPE   H4X  474   4.267   3.581  13.181 -1.3609  0.4042  2.0887
    4DOPE   H4Y  475   4.432   3.638  13.231 -0.6409  0.7290  0.7385
    4DOPE   C35  476   4.418   3.420  13.190  0.6112  0.1164 -0.8052
    4DOPE   H5X  477   4.326   3.358  13.187 -1.0105  2.3320  0.1541
    4DOPE   H5Y  478   4.485   3.375  13.266  0.2851  2.5497  1.0669
    4DOPE   C36  479   4.462   3.408  13.047  0.1079 -0.2896 -0.1734
    4DOPE   H6X  480   4.505   3.307  13.028 -3.0184 -1.4949 -1.5675
    4DOPE   H6Y  481   4.536   3.489  13.035  0.2522 -0.5504 -1.0755
    4DOPE   C37  482   4.345   3.432  12.950  0.1045  0.1485 -0.1740
    4DOPE   H7X  483   4.264   3.367  12.988  0.5649 -0.6360 -0.4960
    4DOPE   H7Y  484   4.311   3.536  12.971  0.6928  0.0629  1.3033
    4DOPE   C38  485   4.373   3.403  12.802 -0.5315 -0.0797 -0.4138
    4DOPE   H8X  486   4.437   3.313  12.788  0.5858  0.8075 -1.1809
    4DOPE   H8Y  487   4.443   3.478  12.758 -0.0939 -0.4512 -0.3617
    4DOPE   C39  488   4.246   3.403  12.725  0.2281  0.3817 -0.6709
    4DOPE   H9X  489   4.215   3.501  12.687  1.4555  1.0059 -0.1256
    4DOPE  C310  490   4.183   3.288  12.679  0.4547 -0.0311 -0.5304
    4DOPE  H10X  491   4.083   3.292  12.633  0.6199 -0.0381 -0.8937
    4DOPE  C311  492   4.238   3.152  12.690  0.0985  0.3348  0.1072
    4DOPE  H11X  493   4.338   3.149  12.739 -0.3127  2.3091  1.1969
    4DOPE  H11Y  494   4.174   3.093  12.759 -0.2965 -0.0719 -0.6052
    4DOPE  C312  495   4.253   3.084  12.559 -0.4954  0.1097  0.4415
    4DOPE  H12X  496   4.152   3.056  12.521  0.0151  0.7276 -1.5317
    4DOPE  H12Y  497   4.315   2.992  12.567 -0.0460  0.2009 -1.4477
    4DOPE  C313  498   4.319   3.166  12.446 -0.1184  0.7110  0.1202
    4DOPE  H13X  499   4.292   3.274  12.456  0.7144  0.8437  1.0426
    4DOPE  H13Y  500   4.428   3.168  12.469  0.0080 -0.4179 -0.3254
    4DOPE  C314  501   4.286   3.111  12.307  0.3229 -0.2149  1.0065
    4DOPE  H14X  502   4.175   3.105  12.305  0.2351  1.0710 -0.0004
    4DOPE  H14Y  503   4.319   3.008  12.284  1.6341  0.7804 -2.1487
    4DOPE  C315  504   4.330   3.205  12.193 -0.0208  0.0716  0.0803
    4DOPE  H15X  505   4.440   3.195  12.177 -0.4090 -2.2841 -1.6240
    4DOPE  H15Y  506   4.303   3.310  12.218 -0.5896 -0.2889  1.0403
    4DOPE  C316  507   4.253   3.168  12.070 -0.0302 -0.5192  0.2898
    4DOPE  H16X  508   4.280   3.252  12.003 -0.9662 -0.5627 -0.1567
    4DOPE  H16Y  509   4.142   3.165  12.076 -0.2309 -0.4263 -2.2169
    4DOPE  C317  510   4.291   3.039  11.991  0.2590 -0.0413  0.2390
    4DOPE  H17X  511   4.398   3.057  11.969 -0.1640  1.9384 -0.3786
    4DOPE  H17Y  512   4.281   2.952  12.060  0.5946 -1.8868 -1.9089
    4DOPE  C318  513   4.209   3.023  11.863 -0.4850 -0.4928  0.9676
    4DOPE  H18X  514   4.106   2.981  11.873 -0.2924 -0.8395  1.5059
    4DOPE  H18Y  515   4.194   3.124  11.817  0.8954 -0.2237  1.0797
    4DOPE  H18Z  516   4.269   2.963  11.791 -1.7960 -1.4740  0.6559
    5DOPE     N  517   0.878   6.222  13.552 -0.4404 -0.1785 -0.0135
    5DOPE   HN1  518   0.910   6.171  13.638  0.6882  3.1083  1.7046
    5DOPE   HN2  519   0.909   6.320  13.566  0.6182 -0.4103 -0.6262
    5DOPE   HN3  520   0.775   6.215  13.539 -0.3242 -0.4513 -0.8476
    5DOPE   C12  521   0.958   6.158  13.445 -0.1221  0.2835  0.0208
    5DOPE  H12A  522   0.945   6.222  13.355 -2.2269  0.6975  0.5583
    5DOPE  H12B  523   0.903   6.066  13.417  0.1626  0.2791 -0.5481
    5DOPE   C11  524   1.110   6.139  13.477 -0.2535  0.1530 -0.2774
    5DOPE  H11A  525   1.160   6.108  13.383  0.8142 -1.0057  0.6369
    5DOPE  H11B  526   1.118   6.056  13.551  1.0111  3.1065  3.1978
    5DOPE     P  527   1.303   6.319  13.540  0.3836  0.2125 -0.1757
    5DOPE   O13  528   1.372   6.228  13.631 -0.8637  0.7634  1.2805
    5DOPE   O14  529   1.303   6.455  13.592  0.5029 -0.6327  0.5003
    5DOPE   O11  530   1.364   6.315  13.399 -0.0848  0.0135 -0.2571
    5DOPE   O12  531   1.159   6.259  13.530 -0.3432 -0.0378 -0.1062
    5DOPE    C1  532   1.330   6.416  13.301 -0.3614  0.3372  1.0967
    5DOPE    HA  533   1.311   6.520  13.333 -0.1727  0.1990  1.6664
    5DOPE    HB  534   1.232   6.378  13.264  0.4947 -1.9752  1.0008
    5DOPE    C2  535   1.425   6.437  13.172  0.0539  0.5626 -0.3200
    5DOPE    HS  536   1.392   6.528  13.117  0.2435  1.6581  1.3068
    5DOPE   O21  537   1.426   6.319  13.090 -0.7008  0.4273  0.0707
    5DOPE   C21  538   1.315   6.296  13.030  0.3473 -0.1783 -0.3021
    5DOPE   O22  539   1.221   6.373  13.032  0.3375  0.1440 -0.1885
    5DOPE   C22  540   1.328   6.156  12.967 -0.7014 -0.0907  0.3121
    5DOPE   H2R  541   1.302   6.084  13.048 -2.5466  0.3344  0.1408
    5DOPE   H2S  542   1.435   6.138  12.945  0.1014  2.5221  1.5816
    5DOPE    C3  543   1.564   6.468  13.227  0.2813  0.2712  0.1715
    5DOPE    HX  544   1.583   6.382  13.295 -1.2718 -1.9026 -1.9835
    5DOPE    HY  545   1.560   6.565  13.281  4.1180  0.4128  0.4753
    5DOPE   O31  546   1.659   6.475  13.123 -0.5390 -0.0820 -0.1572
    5DOPE   C31  547   1.725   6.367  13.083 -0.2331  0.5852 -0.5516
    5DOPE   O32  548   1.744   6.269  13.154  0.4562  0.3649 -0.0938
    5DOPE   C32  549   1.775   6.383  12.937  0.2687 -0.2643 -0.6086
    5DOPE   H2X  550   1.854   6.462  12.938 -0.6097  0.6243 -0.3874
    5DOPE   H2Y  551   1.822   6.288  12.905 -1.9797 -1.5288 -0.3209
    5DOPE   C23  552   1.238   6.125  12.847 -0.7518  0.3439 -0.4597
    5DOPE   H3R  553   1.138   6.172  12.847 -0.1113  1.8340 -2.1821
    5DOPE   H3S  554   1.220   6.016  12.838 -2.1423  0.4446  0.8300
    5DOPE   C24  555   1.309   6.185  12.722  0.3892 -0.1921 -0.4376
    5DOPE   H4R  556   1.403   6.129  12.702 -0.3949 -1.1114 -1.7927
    5DOPE   H4S  557   1.329   6.293  12.735  4.6914 -0.7383 -1.0873
    5DOPE   C25  558   1.228   6.166  12.596  0.9501  0.4250 -0.2294
    5DOPE   H5R  559   1.121   6.186  12.618  0.6699 -2.6113  1.7751
    5DOPE   H5S  560   1.227   6.059  12.567 -1.7524  1.0922 -3.1869
    5DOPE   C26  561   1.266   6.245  12.473 -0.1263  0.2720  0.4889
    5DOPE   H6R  562   1.375   6.235  12.458 -0.2454 -0.7683  0.2565
    5DOPE   H6S  563   1.252   6.353  12.494 -0.5426  0.5042 -0.8843
    5DOPE   C27  564   1.195   6.207  12.342 -0.5251  0.1472  0.2098
    5DOPE   H7R  565   1.100   6.264  12.356 -0.3584  0.0583  1.9470
    5DOPE   H7S  566   1.190   6.096  12.338  0.6200  0.0467  1.2269
    5DOPE   C28  567   1.271   6.253  12.214 -0.0592 -0.4688  0.1118
    5DOPE   H8R  568   1.357   6.186  12.197  0.8287  0.6488  0.0496
    5DOPE   H8S  569   1.308   6.357  12.226 -1.8175  0.3418 -1.0024
    5DOPE   C29  570   1.181   6.250  12.095 -0.3466 -0.2563 -0.7012
    5DOPE   H9R  571   1.080   6.292  12.108  0.3234  1.8670 -1.9208
    5DOPE  C210  572   1.203   6.194  11.981  0.7949 -0.4753 -0.1531
    5DOPE  H10R  573   1.129   6.201  11.900 -0.3950 -1.0822  0.8467
    5DOPE  C211  574   1.329   6.111  11.947  0.1819 -0.6427 -0.1552
    5DOPE  H11R  575   1.373   6.053  12.030 -0.9866 -0.2705  0.7420
    5DOPE  H11S  576   1.400   6.191  11.914 -0.3341 -0.1533 -0.0995
    5DOPE  C212  577   1.308   6.031  11.818  0.0419  0.1183 -0.2702
    5DOPE  H12R  578   1.279   6.097  11.733 -0.3455 -1.2523 -1.2184
    5DOPE  H12S  579   1.237   5.949  11.841  0.2362 -0.1960 -0.7843
    5DOPE  C213  580   1.435   5.959  11.756 -0.1013 -0.2297  0.4676
    5DOPE  H13R  581   1.470   5.885  11.830  0.4122 -2.3182 -1.7579
    5DOPE  H13S  582   1.505   6.042  11.731 -0.8212 -0.1728 -1.5731
    5DOPE  C214  583   1.381   5.880  11.638 -0.0018 -0.5448 -0.1203
    5DOPE  H14R  584   1.345   5.950  11.560  1.0426  0.1569  0.0066
    5DOPE  H14S  585   1.307   5.806  11.674  0.6310 -1.3850 -0.5134
    5DOPE  C215  586   1.492   5.803  11.572  0.4348  0.4855 -0.0545
    5DOPE  H15R  587   1.567   5.748  11.633 -0.2938 -0.3646  0.0999
    5DOPE  H15S  588   1.559   5.879  11.527  2.2949 -1.2681 -0.4388
    5DOPE  C216  589   1.451   5.728  11.444  0.1183 -0.6990  0.6419
    5DOPE  H16R  590   1.543   5.699  11.389  0.5884 -2.0082  2.0540
    5DOPE  H16S  591   1.397   5.802  11.380  0.9919 -1.1416 -0.6475
    5DOPE  C217  592   1.371   5.599  11.463  0.1899  0.9052  0.6615
    5DOPE  H17R  593   1.348   5.556  11.363  2.2026 -2.7750  1.5864
    5DOPE  H17S  594   1.279   5.621  11.520 -0.0363  2.0072 -0.1039
    5DOPE  C218  595   1.444   5.493  11.542  0.1310  0.7607 -0.1336
    5DOPE  H18R  596   1.538   5.459  11.493  0.8300  2.1999  0.1567
    5DOPE  H18S  597   1.377   5.408  11.566 -0.1662  0.3626 -2.2033
    5DOPE  H18T  598   1.480   5.521  11.644  2.0700 -2.8543  0.3352
    5DOPE   C33  599   1.672   6.421  12.833  0.1284 -0.5969  0.4098
    5DOPE   H3X  600   1.623   6.515  12.867 -0.5325  0.0047 -1.9783
    5DOPE   H3Y  601   1.590   6.345  12.831 -2.0756  1.6405  0.4492
    5DOPE   C34  602   1.732   6.424  12.686  0.1734 -0.0088  0.0840
    5DOPE   H4X  603   1.804   6.506  12.664 -0.6821  0.4862 -1.0140
    5DOPE   H4Y  604   1.800   6.337  12.679  0.0388 -0.0152 -2.1474
    5DOPE   C35  605   1.630   6.428  12.571 -0.6257 -0.3450 -0.9369
    5DOPE   H5X  606   1.598   6.531  12.548  0.5626 -0.1744 -1.9612
    5DOPE   H5Y  607   1.544   6.361  12.593  0.0475 -0.6317  0.9646
    5DOPE   C36  608   1.697   6.380  12.440  0.0826  0.4809 -0.2417
    5DOPE   H6X  609   1.716   6.272  12.454  0.0861  0.5203  0.0548
    5DOPE   H6Y  610   1.795   6.431  12.430  0.1607  0.1445 -1.2933
    5DOPE   C37  611   1.614   6.415  12.315 -0.3390  0.4252 -0.5240
    5DOPE   H7X  612   1.513   6.374  12.335 -0.8310  1.8412  0.0438
    5DOPE   H7Y  613   1.583   6.521  12.302 -2.0770 -0.0287 -0.2662
    5DOPE   C38  614   1.668   6.354  12.182 -0.4547  0.1912 -0.2789
    5DOPE   H8X  615   1.684   6.244  12.183  0.6867  0.3089 -2.1965
    5DOPE   H8Y  616   1.771   6.394  12.167 -0.2590 -0.0547  0.3640
    5DOPE   C39  617   1.585   6.384  12.055 -0.8979 -0.4473 -0.1566
    5DOPE   H9X  618   1.476   6.374  12.061 -0.9818 -0.4613 -1.5268
    5DOPE  C310  619   1.638   6.412  11.933 -0.0610  0.1782 -0.1286
    5DOPE  H10X  620   1.568   6.427  11.849  0.3090 -1.4884 -0.7620
    5DOPE  C311  621   1.779   6.421  11.882 -0.8981  0.7368 -0.0129
    5DOPE  H11X  622   1.795   6.521  11.836  0.1406  1.0875  1.0741
    5DOPE  H11Y  623   1.861   6.420  11.956 -0.6974  1.1976 -0.2269
    5DOPE  C312  624   1.807   6.310  11.779  0.7772  0.2392 -0.2867
    5DOPE  H12X  625   1.797   6.211  11.827 -0.0076  0.6262  0.3778
    5DOPE  H12Y  626   1.909   6.318  11.735  0.2869 -2.5316 -2.2234
    5DOPE  C313  627   1.703   6.296  11.663  0.0363 -0.3952 -0.3591
    5DOPE  H13X  628   1.602   6.286  11.710  1.1836  0.5719  2.5908
    5DOPE  H13Y  629   1.715   6.392  11.609  2.5408 -0.1204  0.5313
    5DOPE  C314  630   1.739   6.184  11.564 -0.3492 -0.0843  0.3823
    5DOPE  H14X  631   1.781   6.094  11.614  2.9128  1.4372  0.6501
    5DOPE  H14Y  632   1.830   6.210  11.506  0.4151 -2.9174  0.1682
    5DOPE  C315  633   1.627   6.155  11.468  0.8420 -0.5344 -0.6020
    5DOPE  H15X  634   1.531   6.127  11.516  1.5628 -0.6213  0.8613
    5DOPE  H15Y  635   1.659   6.076  11.397  0.7004  0.3211 -1.6499
    5DOPE  C316  636   1.592   6.283  11.384  0.6402  0.2725 -0.1890
    5DOPE  H16X  637   1.680   6.330  11.334 -0.3018  1.6280 -0.6196
    5DOPE  H16Y  638   1.557   6.363  11.452  3.1636  2.5562 -1.4112
    5DOPE  C317  639   1.477   6.257  11.288  0.1801  0.0145 -0.0502
    5DOPE  H17X  640   1.504   6.184  11.209  0.1330  0.1554 -0.1948
    5DOPE  H17Y  641   1.390   6.218  11.345  0.6059 -0.7855  0.0737
    5DOPE  C318  642   1.440   6.395  11.228  0.1013 -0.2830  0.2953
    5DOPE  H18X  643   1.525   6.446  11.178  0.1057 -0.2707  0.3147
    5DOPE  H18Y  644   1.358   6.394  11.153 -1.0086  1.4426  1.4111
    5DOPE  H18Z  645   1.415   6.464  11.311  0.5283  0.6042 -0.2966
    6DOPE     N  646   0.962   0.369  13.741 -0.0868  0.2575  0.9346
    6DOPE   HN1  647   0.882   0.303  13.748 -0.3502  0.5668  0.8607
    6DOPE   HN2  648   0.949   0.395  13.641  0.6469 -2.3969  0.0714
    6DOPE   HN3  649   1.052   0.316  13.747 -0.5236 -0.5759  0.3356
    6DOPE   C12  650   0.967   0.478  13.842 -0.7582 -0.8577  0.6224
    6DOPE  H12A  651   0.994   0.433  13.940  1.1340 -0.6370  0.2394
    6DOPE  H12B  652   0.878   0.544  13.851  0.8146  1.3078  1.2551
    6DOPE   C11  653   1.073   0.579  13.803  0.3033 -0.1124  0.6915
    6DOPE  H11A  654   1.087   0.658  13.880 -0.2099 -0.1825  0.8632
    6DOPE  H11B  655   1.034   0.629  13.713  0.2748 -2.1409 -0.4816
    6DOPE     P  656   1.308   0.613  13.717 -0.3290 -0.0212 -0.0912
    6DOPE   O13  657   1.434   0.541  13.696  0.0078  0.3339 -0.5381
    6DOPE   O14  658   1.322   0.734  13.803  0.2544  0.5458  0.5957
    6DOPE   O11  659   1.248   0.657  13.575  0.2035  0.1407 -0.0637
    6DOPE   O12  660   1.192   0.512  13.775  0.1034 -0.1368  0.1918
    6DOPE    C1  661   1.183   0.563  13.492 -0.1997 -0.4415  0.7047
    6DOPE    HA  662   1.110   0.609  13.423  1.0919 -1.3630 -1.4067
    6DOPE    HB  663   1.127   0.484  13.546 -0.8062 -0.1678  0.4856
    6DOPE    C2  664   1.271   0.494  13.382 -0.3318 -0.5250 -0.0206
    6DOPE    HS  665   1.331   0.418  13.436 -0.0744  0.5087  1.1897
    6DOPE   O21  666   1.359   0.589  13.319 -0.0633 -0.5178 -0.3390
    6DOPE   C21  667   1.475   0.532  13.277 -0.4621 -0.5856  0.3155
    6DOPE   O22  668   1.506   0.414  13.283 -0.9098  0.2779 -0.2677
    6DOPE   C22  669   1.569   0.636  13.217 -0.2318 -0.9009  0.4556
    6DOPE   H2R  670   1.663   0.588  13.185 -0.4924 -0.6900 -0.6779
    6DOPE   H2S  671   1.611   0.710  13.289  0.7189 -0.2979 -0.6961
    6DOPE    C3  672   1.178   0.429  13.274 -0.2340 -1.1157  0.1453
    6DOPE    HX  673   1.129   0.520  13.234  1.4829  1.1534  2.7930
    6DOPE    HY  674   1.096   0.369  13.319 -1.4805  0.8568  0.6084
    6DOPE   O31  675   1.256   0.363  13.167 -0.4058 -0.0962 -0.1339
    6DOPE   C31  676   1.261   0.231  13.187 -0.2673  0.0164 -0.8804
    6DOPE   O32  677   1.206   0.171  13.279  0.1345  0.2897  0.4659
    6DOPE   C32  678   1.349   0.169  13.082  0.4926  0.0912 -0.4333
    6DOPE   H2X  679   1.403   0.247  13.025  2.4668  0.5234  1.8717
    6DOPE   H2Y  680   1.424   0.110  13.140 -1.6454 -0.6340  1.7505
    6DOPE   C23  681   1.506   0.724  13.101  0.4231  0.0546 -0.4514
    6DOPE   H3R  682   1.594   0.784  13.070  2.0775 -0.8540  2.0981
    6DOPE   H3S  683   1.424   0.792  13.134  0.6478  0.2608 -0.3156
    6DOPE   C24  684   1.469   0.637  12.978 -0.4500 -0.1169 -0.3608
    6DOPE   H4R  685   1.377   0.575  12.991 -0.5960  0.2266  0.2990
    6DOPE   H4S  686   1.554   0.570  12.951 -1.1214 -1.6970  1.2147
    6DOPE   C25  687   1.441   0.725  12.851 -0.3219 -0.1004 -0.0869
    6DOPE   H5R  688   1.385   0.815  12.884 -1.1836 -0.9014  0.7056
    6DOPE   H5S  689   1.375   0.657  12.792 -1.2945  0.3985  0.3952
    6DOPE   C26  690   1.562   0.770  12.772  0.2474 -0.4127 -0.2417
    6DOPE   H6R  691   1.640   0.800  12.845 -2.2788 -0.1340  2.5359
    6DOPE   H6S  692   1.549   0.860  12.710  0.8198 -0.8278 -0.9867
    6DOPE   C27  693   1.607   0.665  12.674  0.7441  0.3536 -0.2561
    6DOPE   H7R  694   1.522   0.655  12.603  0.3050  5.2600 -0.7908
    6DOPE   H7S  695   1.628   0.571  12.729 -2.4004  0.2439  0.9575
    6DOPE   C28  696   1.725   0.715  12.595  0.3583  0.2679  0.1996
    6DOPE   H8R  697   1.807   0.739  12.666  0.3773  0.7700  0.0113
    6DOPE   H8S  698   1.704   0.813  12.546  0.1074 -0.6723 -1.6465
    6DOPE   C29  699   1.782   0.615  12.497 -0.4729 -0.0393  0.2556
    6DOPE   H9R  700   1.861   0.551  12.538  0.1651  1.6060  1.7516
    6DOPE  C210  701   1.751   0.606  12.365 -0.2919 -0.1737 -0.0545
    6DOPE  H10R  702   1.797   0.539  12.291  0.6230  0.8350 -0.4259
    6DOPE  C211  703   1.647   0.691  12.295 -0.1272 -0.7357  0.2587
    6DOPE  H11R  704   1.608   0.767  12.366  0.8266  1.8371 -1.8181
    6DOPE  H11S  705   1.561   0.621  12.284  1.5035 -3.0567  1.3709
    6DOPE  C212  706   1.702   0.766  12.173  0.1786 -0.1075 -0.4804
    6DOPE  H12R  707   1.798   0.816  12.197  0.4392 -0.0296 -1.6164
    6DOPE  H12S  708   1.644   0.857  12.146 -1.0195 -1.3389 -2.3356
    6DOPE  C213  709   1.734   0.679  12.049 -0.5213  0.8015 -0.2832
    6DOPE  H13R  710   1.790   0.594  12.094 -3.3185 -1.4139 -0.7161
    6DOPE  H13S  711   1.792   0.734  11.972  2.4621  0.3596  1.4876
    6DOPE  C214  712   1.602   0.615  11.991  0.6125 -0.3188 -0.2495
    6DOPE  H14R  713   1.547   0.703  11.950  0.1961 -0.2690  0.4059
    6DOPE  H14S  714   1.539   0.580  12.076  1.9327 -1.4707  0.2788
    6DOPE  C215  715   1.621   0.522  11.872  0.1361 -0.0050 -0.3586
    6DOPE  H15R  716   1.517   0.496  11.843  0.0586  0.3907 -0.4432
    6DOPE  H15S  717   1.676   0.431  11.904  0.7651  0.8208  0.9773
    6DOPE  C216  718   1.699   0.580  11.755 -0.5329 -0.2687  0.0700
    6DOPE  H16R  719   1.807   0.591  11.778 -0.5260  1.8644 -0.8186
    6DOPE  H16S  720   1.661   0.680  11.727  0.5994  0.2665  0.4066
    6DOPE  C217  721   1.707   0.485  11.633 -0.0387 -0.0264 -0.5046
    6DOPE  H17R  722   1.738   0.387  11.676 -2.1924 -0.9779 -0.9600
    6DOPE  H17S  723   1.792   0.512  11.567  0.5869 -1.3822 -0.3029
    6DOPE  C218  724   1.583   0.454  11.552  1.1414 -0.3267  0.4163
    6DOPE  H18R  725   1.590   0.358  11.497 -0.5267 -0.0689 -0.3359
    6DOPE  H18S  726   1.564   0.538  11.481 -2.7765  0.2348  1.8441
    6DOPE  H18T  727   1.495   0.454  11.619 -0.8333  0.3616 -2.0066
    6DOPE   C33  728   1.269   0.070  12.990  0.0525 -0.0953  0.3725
    6DOPE   H3X  729   1.197   0.127  12.929  0.2738 -1.1847 -0.9520
    6DOPE   H3Y  730   1.209   0.001  13.053 -1.2444 -1.7160 -2.4556
    6DOPE   C34  731   1.369  -0.001  12.901 -0.5753  0.4745  0.4493
    6DOPE   H4X  732   1.457  -0.028  12.963 -2.3020 -3.0421  1.5984
    6DOPE   H4Y  733   1.325  -0.095  12.863 -0.8463  0.5515  0.5736
    6DOPE   C35  734   1.414   0.088  12.784  0.1843  0.7807  0.3472
    6DOPE   H5X  735   1.497   0.031  12.737 -0.8752  0.3039 -0.9862
    6DOPE   H5Y  736   1.469   0.177  12.820  2.1253  1.0588 -2.9165
    6DOPE   C36  737   1.303   0.119  12.679  0.1243 -0.2324 -0.8757
    6DOPE   H6X  738   1.219   0.177  12.723  1.9446  1.0884  1.0527
    6DOPE   H6Y  739   1.259   0.021  12.651 -1.3648  0.2444 -0.2979
    6DOPE   C37  740   1.345   0.196  12.556  0.2680  0.1187 -0.5713
    6DOPE   H7X  741   1.255   0.240  12.509 -0.8617  0.5015  1.8155
    6DOPE   H7Y  742   1.406   0.282  12.592 -0.6564 -0.1337  1.8279
    6DOPE   C38  743   1.442   0.128  12.450 -0.3264  0.8913  0.5836
    6DOPE   H8X  744   1.530   0.077  12.494  0.3762  0.8827 -0.7892
    6DOPE   H8Y  745   1.486   0.214  12.394  2.3087 -0.2676  0.7555
    6DOPE   C39  746   1.381   0.029  12.355 -0.7017  0.4237  0.1795
    6DOPE   H9X  747   1.354  -0.070  12.394  0.7890 -1.7243 -3.7049
    6DOPE  C310  748   1.351   0.055  12.221  0.1875  0.0587 -0.2836
    6DOPE  H10X  749   1.310  -0.025  12.158  2.2217 -0.7706 -0.6239
    6DOPE  C311  750   1.352   0.188  12.156 -1.2250  0.5945 -0.0193
    6DOPE  H11X  751   1.251   0.207  12.112 -0.9515  2.2612  0.0251
    6DOPE  H11Y  752   1.381   0.274  12.220  4.1703 -0.8454 -0.0583
    6DOPE  C312  753   1.441   0.207  12.027 -0.0215  0.6113 -1.0949
    6DOPE  H12X  754   1.544   0.172  12.046 -0.5433  0.0805  0.9325
    6DOPE  H12Y  755   1.452   0.315  12.003  1.7916  0.1277 -2.6716
    6DOPE  C313  756   1.384   0.127  11.910  0.0660  0.1778  0.2297
    6DOPE  H13X  757   1.371   0.020  11.939  3.8463 -0.0019  1.8569
    6DOPE  H13Y  758   1.280   0.154  11.882 -0.0566 -0.6107 -0.1041
    6DOPE  C314  759   1.485   0.140  11.787  0.2507  0.0160 -0.3431
    6DOPE  H14X  760   1.522   0.245  11.795 -1.1847  0.7063 -2.0169
    6DOPE  H14Y  761   1.429   0.100  11.700  3.2472 -1.2803 -1.8164
    6DOPE  C315  762   1.605   0.037  11.791 -0.0854 -0.1735  0.5708
    6DOPE  H15X  763   1.561  -0.065  11.789 -2.0084  0.5925  1.3380
    6DOPE  H15Y  764   1.664   0.059  11.882  0.4060 -4.0310  1.3628
    6DOPE  C316  765   1.699   0.031  11.670  0.7015  0.0403 -0.0126
    6DOPE  H16X  766   1.797  -0.012  11.697  1.4033  0.9802 -0.9836
    6DOPE  H16Y  767   1.726   0.134  11.637 -0.0428  0.1526 -0.2923
    6DOPE  C317  768   1.626  -0.030  11.548  0.6622  0.0128  0.2559
    6DOPE  H17X  769   1.579  -0.125  11.580  3.5159 -0.7017  2.7785
    6DOPE  H17Y  770   1.543   0.041  11.527 -0.5383 -0.6861  2.3787
    6DOPE  C318  771   1.714  -0.053  11.426  0.1845  0.5462 -0.0362
    6DOPE  H18X  772   1.721   0.030  11.352  1.2836  0.6019  0.1135
    6DOPE  H18Y  773   1.822  -0.062  11.453  0.3762 -0.6814 -1.1416
    6DOPE  H18Z  774   1.681  -0.143  11.370 -3.0387  1.3010  0.4446
    7DOPE     N  775   3.904   5.872  13.450  0.2936  0.2625  0.2291
    7DOPE   HN1  776   3.875   5.782  13.495 -0.8654  1.6699  2.4569
    7DOPE   HN2  777   3.899   5.940  13.528  0.2676  0.4548  0.0581
    7DOPE   HN3  778   3.839   5.904  13.376  0.0459  2.1388  1.2050
    7DOPE   C12  779   4.050   5.857  13.391  0.2673 -0.0389 -0.6159
    7DOPE  H12A  780   4.083   5.751  13.383  1.8197  0.3829 -0.3062
    7DOPE  H12B  781   4.120   5.889  13.471 -2.6470  3.1579  0.8603
    7DOPE   C11  782   4.066   5.934  13.258 -0.3556  0.3405 -0.5594
    7DOPE  H11A  783   3.986   5.890  13.196 -0.3628 -1.9274  0.9796
    7DOPE  H11B  784   4.169   5.917  13.218  0.6401  2.1372  1.0360
    7DOPE     P  785   4.166   6.172  13.287 -0.0277  0.0101  0.1647
    7DOPE   O13  786   4.291   6.109  13.220 -0.1194 -0.2153 -0.5311
    7DOPE   O14  787   4.173   6.226  13.425  0.2885  0.6082 -0.2790
    7DOPE   O11  788   4.110   6.286  13.194  0.3403  0.3377  0.3825
    7DOPE   O12  789   4.048   6.071  13.290 -0.3858 -0.0985  0.1652
    7DOPE    C1  790   4.131   6.276  13.053  0.2734  0.1963 -0.1514
    7DOPE    HA  791   4.050   6.321  12.991  0.5555  1.5767  0.4657
    7DOPE    HB  792   4.143   6.175  13.008 -1.0244 -0.0539  0.0352
    7DOPE    C2  793   4.248   6.366  13.020  0.1850  0.2346  0.3241
    7DOPE    HS  794   4.316   6.381  13.106 -0.2965  0.9262  0.5895
    7DOPE   O21  795   4.197   6.492  12.966 -0.0353 -0.4414  0.7959
    7DOPE   C21  796   4.288   6.591  12.977 -0.7406  0.0100  0.0644
    7DOPE   O22  797   4.400   6.577  13.023 -0.8348 -0.4676 -0.0972
    7DOPE   C22  798   4.224   6.722  12.941 -0.3476  0.2090  0.6162
    7DOPE   H2R  799   4.291   6.808  12.963  0.4117 -0.0185 -0.6777
    7DOPE   H2S  800   4.135   6.736  13.006 -1.0775  0.8359 -0.4836
    7DOPE    C3  801   4.347   6.291  12.923 -0.0599  0.2148 -0.4883
    7DOPE    HX  802   4.404   6.212  12.978  0.7790 -0.5042 -2.2999
    7DOPE    HY  803   4.417   6.368  12.885 -1.0297  1.4947  0.2576
    7DOPE   O31  804   4.270   6.233  12.817 -0.1173 -0.4154  0.2813
    7DOPE   C31  805   4.344   6.167  12.731  0.0478 -0.5944 -0.4355
    7DOPE   O32  806   4.461   6.143  12.749 -0.1037 -0.1244  0.0628
    7DOPE   C32  807   4.256   6.107  12.623 -0.5518  0.0623  0.4252
    7DOPE   H2X  808   4.170   6.061  12.677  0.6825 -2.3168  0.4593
    7DOPE   H2Y  809   4.217   6.195  12.567  0.9240  0.2692 -0.3176
    7DOPE   C23  810   4.185   6.738  12.792  0.6708  0.1561  0.0229
    7DOPE   H3R  811   4.103   6.664  12.781  0.2214  0.7780 -0.9746
    7DOPE   H3S  812   4.262   6.702  12.720 -0.5038  0.2255 -1.3188
    7DOPE   C24  813   4.127   6.880  12.771  0.0362  0.1719  0.2484
    7DOPE   H4R  814   4.207   6.956  12.786  0.1189 -0.0921  1.2243
    7DOPE   H4S  815   4.049   6.896  12.848  0.6187 -0.0357  0.8995
    7DOPE   C25  816   4.058   6.894  12.637  0.0506  1.0368 -0.0437
    7DOPE   H5R  817   3.983   6.976  12.636  0.5356  1.4848 -0.9738
    7DOPE   H5S  818   3.991   6.807  12.622 -0.0168  1.4623 -2.5909
    7DOPE   C26  819   4.158   6.908  12.523  0.5804  0.3950  0.3674
    7DOPE   H6R  820   4.230   6.823  12.516  1.1190  0.7984  0.9574
    7DOPE   H6S  821   4.218   6.998  12.544  2.4975 -0.0386 -2.7104
    7DOPE   C27  822   4.084   6.931  12.384 -0.3726 -0.3251 -0.2507
    7DOPE   H7R  823   4.041   7.033  12.392  2.8314  1.0673  0.8436
    7DOPE   H7S  824   4.007   6.852  12.370  1.3905 -2.2560  0.4492
    7DOPE   C28  825   4.185   6.934  12.258  0.9583  0.8095 -0.8490
    7DOPE   H8R  826   4.235   6.837  12.238  0.9059  0.5343  0.2876
    7DOPE   H8S  827   4.269   7.007  12.272  0.6636  1.0313 -0.2200
    7DOPE   C29  828   4.120   6.976  12.134 -0.4184  0.1577  0.6797
    7DOPE   H9R  829   4.065   7.070  12.150  0.7726  1.1496 -0.7016
    7DOPE  C210  830   4.119   6.926  12.007 -0.8862 -0.6615 -0.6619
    7DOPE  H10R  831   4.066   6.980  11.927  0.4250  1.6119 -0.0957
    7DOPE  C211  832   4.183   6.798  11.967 -0.4494  0.2289  0.0563
    7DOPE  H11R  833   4.234   6.743  12.049  2.0966  0.1308 -1.5026
    7DOPE  H11S  834   4.272   6.821  11.906 -0.9090  2.7800  0.2379
    7DOPE  C212  835   4.098   6.701  11.887  0.2713  0.1458 -0.0737
    7DOPE  H12R  836   3.998   6.686  11.934  0.4465 -1.6186 -0.2194
    7DOPE  H12S  837   4.144   6.600  11.893 -0.9825 -0.4131  0.5133
    7DOPE  C213  838   4.075   6.741  11.744 -0.6471 -0.0542 -0.2525
    7DOPE  H13R  839   4.171   6.733  11.690  0.2800  0.5787  1.2404
    7DOPE  H13S  840   4.040   6.846  11.735  0.7879  0.4087 -0.6145
    7DOPE  C214  841   3.977   6.644  11.669  0.1986  0.1999 -0.5908
    7DOPE  H14R  842   3.871   6.641  11.704  0.0579 -0.3875 -1.0609
    7DOPE  H14S  843   4.008   6.540  11.691 -1.5722 -0.6897 -1.9954
    7DOPE  C215  844   3.966   6.689  11.524 -0.1739  0.7187 -0.0561
    7DOPE  H15R  845   3.927   6.793  11.530  0.8521  1.1631 -0.8614
    7DOPE  H15S  846   3.885   6.631  11.474  1.3487 -2.3788  0.7991
    7DOPE  C216  847   4.096   6.687  11.452 -0.5710  0.0742  0.7386
    7DOPE  H16R  848   4.157   6.611  11.505 -0.6683 -0.4368  0.1303
    7DOPE  H16S  849   4.149   6.784  11.464 -1.6575  0.8107 -0.1970
    7DOPE  C217  850   4.096   6.638  11.307 -0.2447  0.3285  0.6330
    7DOPE  H17R  851   4.032   6.706  11.247 -1.3186 -1.9134 -0.8744
    7DOPE  H17S  852   4.044   6.540  11.301  1.2309 -0.4523  0.0835
    7DOPE  C218  853   4.237   6.628  11.240  0.4528  1.5877  0.1311
    7DOPE  H18R  854   4.290   6.550  11.298 -0.9601  1.4641  1.3225
    7DOPE  H18S  855   4.285   6.726  11.261  0.8225  1.1902  1.2235
    7DOPE  H18T  856   4.231   6.596  11.134  0.1074  0.9453  0.3370
    7DOPE   C33  857   4.334   6.011  12.527  0.4457 -0.3426 -0.0715
    7DOPE   H3X  858   4.269   5.943  12.468  1.4945 -3.6219  2.2830
    7DOPE   H3Y  859   4.391   5.940  12.591 -1.6577 -2.6583 -0.6345
    7DOPE   C34  860   4.435   6.076  12.433 -0.3879  0.2221  0.5552
    7DOPE   H4X  861   4.376   6.140  12.364 -0.0858 -0.6060 -0.5047
    7DOPE   H4Y  862   4.509   6.146  12.479  0.5465  0.6717 -1.4961
    7DOPE   C35  863   4.519   5.974  12.362  0.4418 -0.1586  0.4367
    7DOPE   H5X  864   4.496   5.867  12.379 -0.6081 -0.2317 -1.2754
    7DOPE   H5Y  865   4.625   5.996  12.386  0.7716  2.4839 -2.7099
    7DOPE   C36  866   4.503   5.995  12.211 -0.1260 -0.2915  0.5164
    7DOPE   H6X  867   4.584   5.937  12.161  0.4514  0.4826  0.5274
    7DOPE   H6Y  868   4.513   6.103  12.189 -3.4142 -0.3179 -1.8485
    7DOPE   C37  869   4.372   5.960  12.150  0.0873  0.5597  0.4701
    7DOPE   H7X  870   4.353   5.855  12.179  0.3945  0.3942  0.0721
    7DOPE   H7Y  871   4.289   6.015  12.199 -1.7355 -2.1887  0.6806
    7DOPE   C38  872   4.359   5.948  11.997 -0.4717 -0.0879 -0.1202
    7DOPE   H8X  873   4.381   6.051  11.959 -2.4756 -0.6971 -3.3384
    7DOPE   H8Y  874   4.251   5.953  11.971  0.1274  2.4816 -2.7006
    7DOPE   C39  875   4.423   5.835  11.924  0.7143 -0.6014  0.8100
    7DOPE   H9X  876   4.407   5.734  11.965 -1.0263 -0.7105 -0.0255
    7DOPE  C310  877   4.475   5.846  11.801 -0.1896  0.0545  0.0953
    7DOPE  H10X  878   4.516   5.757  11.752  1.2248  0.1612  1.0493
    7DOPE  C311  879   4.491   5.968  11.709 -0.0278  0.0441  0.3639
    7DOPE  H11X  880   4.407   6.040  11.715  0.7748  0.9623  0.7734
    7DOPE  H11Y  881   4.564   6.041  11.750  1.4178 -2.0611  1.7998
    7DOPE  C312  882   4.548   5.941  11.565  0.5571  0.4783 -1.1198
    7DOPE  H12X  883   4.627   5.864  11.572  1.5157  1.5802  0.7614
    7DOPE  H12Y  884   4.585   6.039  11.528 -2.4746  1.8689 -0.8077
    7DOPE  C313  885   4.436   5.896  11.468 -0.0505  0.0021  0.0684
    7DOPE  H13X  886   4.401   5.793  11.494 -1.7314  0.5534  0.0804
    7DOPE  H13Y  887   4.352   5.965  11.492 -0.4813 -0.8528  1.1532
    7DOPE  C314  888   4.482   5.910  11.323 -0.3689  0.1314 -0.1014
    7DOPE  H14X  889   4.575   5.852  11.304  0.4952  0.6192  2.2467
    7DOPE  H14Y  890   4.527   6.010  11.306 -0.7657  0.4280  0.5686
    7DOPE  C315  891   4.370   5.895  11.217 -0.6326 -0.5802  1.0007
    7DOPE  H15X  892   4.413   5.907  11.115  0.6432 -0.9749  1.4786
    7DOPE  H15Y  893   4.293   5.970  11.245 -1.4435 -0.6123 -0.9748
    7DOPE  C316  894   4.297   5.761  11.219 -0.1426 -0.7764 -0.7603
    7DOPE  H16X  895   4.250   5.748  11.319 -0.9813  1.2080 -0.8510
    7DOPE  H16Y  896   4.377   5.684  11.214  0.5563 -0.2310  1.1828
    7DOPE  C317  897   4.196   5.736  11.102 -0.0054  0.2785  0.1271
    7DOPE  H17X  898   4.094   5.764  11.137  0.6834 -0.2716  2.8043
    7DOPE  H17Y  899   4.227   5.799  11.016 -0.9167  1.4093  0.6139
    7DOPE  C318  900   4.182   5.592  11.054  0.4299 -0.4358  0.0397
    7DOPE  H18X  901   4.081   5.569  11.014  0.7101 -1.0086 -0.3521
    7DOPE  H18Y  902   4.252   5.578  10.968 -1.9963  0.6043 -2.2474
    7DOPE  H18Z  903   4.218   5.525  11.135 -1.2064 -0.1723  1.0287
    8DOPE     N  904   4.397   0.530  13.442 -0.0382  0.1199 -0.0580
    8DOPE   HN1  905   4.475   0.507  13.378 -0.0286 -0.4883  0.1582
    8DOPE   HN2  906   4.427   0.598  13.514 -0.9750 -2.0111  2.5202
    8DOPE   HN3  907   4.371   0.439  13.487 -1.0056  1.0810  1.4144
    8DOPE   C12  908   4.298   0.592  13.356  0.5034  0.1000  0.7122
    8DOPE  H12A  909   4.254   0.513  13.292  1.2882  0.0487  0.2172
    8DOPE  H12B  910   4.345   0.667  13.289 -0.5890  0.3069  0.1647
    8DOPE   C11  911   4.191   0.668  13.443 -0.0903 -0.4472 -0.1218
    8DOPE  H11A  912   4.117   0.713  13.373  1.5400  2.6538 -0.0008
    8DOPE  H11B  913   4.242   0.755  13.489  0.5711  0.2043 -2.0155
    8DOPE     P  914   4.018   0.474  13.502  0.2857  0.4245  0.2082
    8DOPE   O13  915   3.890   0.541  13.541 -0.8304  0.0545  0.1794
    8DOPE   O14  916   4.055   0.352  13.573 -0.2149  0.2124 -0.2618
    8DOPE   O11  917   4.023   0.456  13.344 -0.3754  0.1106 -0.4926
    8DOPE   O12  918   4.129   0.580  13.541  0.2815 -0.1407 -0.0942
    8DOPE    C1  919   3.931   0.516  13.256 -0.0202  0.0778 -0.4190
    8DOPE    HA  920   3.979   0.526  13.157  0.0175  2.2842 -0.2456
    8DOPE    HB  921   3.902   0.619  13.286  0.6724 -0.2089  1.3552
    8DOPE    C2  922   3.810   0.423  13.235  1.2242  0.6169  0.2133
    8DOPE    HS  923   3.776   0.397  13.337  1.2336  1.7441  0.5161
    8DOPE   O21  924   3.838   0.298  13.164 -0.1960  0.0318  0.7279
    8DOPE   C21  925   3.755   0.196  13.188 -0.5373 -0.0689  0.2291
    8DOPE   O22  926   3.675   0.196  13.278 -0.2225 -0.8085 -0.1929
    8DOPE   C22  927   3.784   0.080  13.096  0.2477  0.7248  0.2239
    8DOPE   H2R  928   3.882   0.034  13.121  1.0309  2.1868 -0.1060
    8DOPE   H2S  929   3.802   0.126  12.997 -0.1654  1.5427  0.5213
    8DOPE    C3  930   3.694   0.492  13.158 -0.4013  0.3187 -0.3857
    8DOPE    HX  931   3.687   0.586  13.216  0.3261  0.5726 -0.6938
    8DOPE    HY  932   3.599   0.439  13.181  0.5604 -0.2135  2.8286
    8DOPE   O31  933   3.717   0.530  13.017  0.4441 -0.0036 -0.4073
    8DOPE   C31  934   3.685   0.439  12.924 -0.6980 -0.4017 -0.0600
    8DOPE   O32  935   3.618   0.339  12.934  0.1713  0.2439 -0.2706
    8DOPE   C32  936   3.757   0.493  12.793 -0.2280 -0.0151 -0.3320
    8DOPE   H2X  937   3.779   0.602  12.799 -2.5717  0.4940 -0.0347
    8DOPE   H2Y  938   3.857   0.446  12.797  0.5022  1.5091  0.2222
    8DOPE   C23  939   3.678  -0.031  13.099 -0.7750  0.4284  0.2365
    8DOPE   H3R  940   3.575   0.008  13.086 -2.6347 -4.0485 -0.1325
    8DOPE   H3S  941   3.665  -0.072  13.201 -0.9821 -0.3686 -0.1067
    8DOPE   C24  942   3.709  -0.140  12.996 -0.3996 -0.2816 -0.0530
    8DOPE   H4R  943   3.690  -0.239  13.044 -0.1663 -1.8052 -2.8502
    8DOPE   H4S  944   3.818  -0.139  12.974 -0.3538  0.0450  0.1942
    8DOPE   C25  945   3.625  -0.119  12.869  0.9874  0.6769  0.2183
    8DOPE   H5R  946   3.625  -0.012  12.840 -0.5932  0.2704 -1.4899
    8DOPE   H5S  947   3.522  -0.143  12.904  0.8981  1.7960  0.7769
    8DOPE   C26  948   3.662  -0.203  12.752 -0.0147 -0.1443  0.3928
    8DOPE   H6R  949   3.583  -0.192  12.675 -2.6134  2.0032  3.1109
    8DOPE   H6S  950   3.675  -0.307  12.789  2.9477  0.0157 -0.0026
    8DOPE   C27  951   3.800  -0.173  12.684 -0.4571 -0.5433  0.1231
    8DOPE   H7R  952   3.869  -0.186  12.771  0.5390 -1.4206 -0.7736
    8DOPE   H7S  953   3.807  -0.064  12.662  1.7425 -1.0308 -1.8975
    8DOPE   C28  954   3.834  -0.261  12.558  0.4033  0.0794 -0.2765
    8DOPE   H8R  955   3.757  -0.243  12.481  1.8837  3.2743 -1.1601
    8DOPE   H8S  956   3.826  -0.368  12.588 -4.3269  0.3578  0.2313
    8DOPE   C29  957   3.963  -0.214  12.494 -0.2155 -0.4905  0.7090
    8DOPE   H9R  958   4.036  -0.181  12.569 -0.7735  0.5808  0.7981
    8DOPE  C210  959   3.984  -0.186  12.362 -0.4655 -0.1705  0.2131
    8DOPE  H10R  960   4.084  -0.152  12.332 -1.0207  0.4878 -0.9924
    8DOPE  C211  961   3.901  -0.211  12.237  0.9187  0.0838 -0.1064
    8DOPE  H11R  962   3.855  -0.114  12.206  2.4692  1.1113  0.6926
    8DOPE  H11S  963   3.815  -0.268  12.278  1.1163  0.9212  1.5324
    8DOPE  C212  964   3.994  -0.270  12.123 -0.0835 -0.2310  0.0470
    8DOPE  H12R  965   4.041  -0.360  12.167  1.0771 -0.0961 -0.8721
    8DOPE  H12S  966   4.077  -0.206  12.087  0.1885 -0.4166  0.3443
    8DOPE  C213  967   3.922  -0.318  11.992 -0.1146 -0.7149  0.0081
    8DOPE  H13R  968   3.898  -0.230  11.928  2.9497 -0.3204 -0.7468
    8DOPE  H13S  969   3.823  -0.364  12.015  0.1957 -0.7848  1.2840
    8DOPE  C214  970   4.016  -0.410  11.907  0.4007 -0.0418 -0.2432
    8DOPE  H14R  971   4.059  -0.491  11.970 -1.7226 -1.1017 -0.0893
    8DOPE  H14S  972   4.104  -0.357  11.864  2.5409 -1.3739  2.2140
    8DOPE  C215  973   3.943  -0.489  11.790 -0.3709  0.0875  0.6915
    8DOPE  H15R  974   3.881  -0.422  11.728 -0.9882 -0.6905  0.4497
    8DOPE  H15S  975   3.864  -0.557  11.830 -0.3718 -0.8128 -0.7596
    8DOPE  C216  976   4.044  -0.560  11.692  0.3171  0.1836 -0.9775
    8DOPE  H16R  977   3.990  -0.643  11.642 -0.3758 -0.3131  0.5629
    8DOPE  H16S  978   4.123  -0.611  11.750 -0.5328  0.9915  0.9941
    8DOPE  C217  979   4.108  -0.457  11.591  0.2156 -0.6642 -0.4243
    8DOPE  H17R  980   4.149  -0.365  11.638 -1.1938  1.1078 -2.4592
    8DOPE  H17S  981   4.032  -0.408  11.526 -0.1180 -0.7354 -0.0878
    8DOPE  C218  982   4.224  -0.515  11.512 -0.2667 -0.2226 -0.6519
    8DOPE  H18R  983   4.190  -0.609  11.462 -1.7014 -0.0280 -0.0939
    8DOPE  H18S  984   4.319  -0.532  11.567 -0.5761 -0.5054 -0.1926
    8DOPE  H18T  985   4.254  -0.450  11.428 -1.7576  1.2088 -0.1354
    8DOPE   C33  986   3.690   0.439  12.665 -0.3902 -0.5212 -0.4172
    8DOPE   H3X  987   3.583   0.467  12.669  0.2481  2.0530  0.9504
    8DOPE   H3Y  988   3.693   0.328  12.670 -0.0516 -0.4867  0.1628
    8DOPE   C34  989   3.764   0.484  12.541  0.1329  0.2732  0.0458
    8DOPE   H4X  990   3.748   0.592  12.523 -0.2488  0.2150  0.0248
    8DOPE   H4Y  991   3.874   0.475  12.559  0.3744  1.1994 -0.8619
    8DOPE   C35  992   3.719   0.415  12.412  0.0136 -0.5064  0.2501
    8DOPE   H5X  993   3.610   0.437  12.406  0.2078  1.1609  1.8577
    8DOPE   H5Y  994   3.728   0.305  12.408 -0.7266 -0.5405 -1.2810
    8DOPE   C36  995   3.769   0.479  12.280  0.6470 -0.1711 -0.2194
    8DOPE   H6X  996   3.872   0.440  12.266 -0.2640 -2.7396 -0.5080
    8DOPE   H6Y  997   3.761   0.589  12.290  2.3994 -0.1821  1.8781
    8DOPE   C37  998   3.692   0.444  12.152  0.4475 -0.0575 -0.0815
    8DOPE   H7X  999   3.710   0.338  12.124  1.5573  0.3610 -1.0017
    8DOPE   H7Y 1000   3.583   0.464  12.147  0.6542  1.1221 -0.0504
    8DOPE   C38 1001   3.756   0.538  12.037 -0.1328  0.3743 -0.1641
    8DOPE   H8X 1002   3.863   0.507  12.033 -0.8245 -2.2308 -0.4618
    8DOPE   H8Y 1003   3.738   0.641  12.072 -2.9720  0.6122 -2.0386
    8DOPE   C39 1004   3.677   0.509  11.907 -0.2482  0.2058 -0.3248
    8DOPE   H9X 1005   3.569   0.531  11.910 -0.2651  0.1943 -0.8246
    8DOPE  C310 1006   3.722   0.434  11.805  0.2526 -1.0015  0.1618
    8DOPE  H10X 1007   3.650   0.413  11.725 -0.3530  1.5983 -0.0522
    8DOPE  C311 1008   3.860   0.384  11.775 -0.6160 -0.1981 -1.5489
    8DOPE  H11X 1009   3.928   0.421  11.855 -2.1296  0.0479 -0.3177
    8DOPE  H11Y 1010   3.873   0.276  11.799 -0.3002  0.3107  0.8707
    8DOPE  C312 1011   3.934   0.426  11.642  0.0232  0.1579  0.5539
    8DOPE  H12X 1012   4.029   0.368  11.641 -0.4829 -0.7027  0.4814
    8DOPE  H12Y 1013   3.956   0.535  11.642 -0.8421  0.3451 -0.2163
    8DOPE  C313 1014   3.856   0.384  11.519  0.1226 -0.6442 -0.6264
    8DOPE  H13X 1015   3.816   0.282  11.540 -0.0984 -0.8974 -2.1072
    8DOPE  H13Y 1016   3.765   0.446  11.504  0.2754  0.1825  1.5461
    8DOPE  C314 1017   3.948   0.377  11.392  1.0121  0.4175 -0.5790
    8DOPE  H14X 1018   4.030   0.302  11.400 -0.6109 -1.7086 -2.5277
    8DOPE  H14Y 1019   4.000   0.474  11.386 -0.7210  1.4686  0.4624
    8DOPE  C315 1020   3.868   0.339  11.271  0.1780 -0.7686 -0.0166
    8DOPE  H15X 1021   3.793   0.420  11.262  2.0879  1.0485 -0.2176
    8DOPE  H15Y 1022   3.810   0.247  11.297 -0.3599 -0.5850 -0.5482
    8DOPE  C316 1023   3.942   0.311  11.141  0.1569 -0.2233  0.3949
    8DOPE  H16X 1024   3.874   0.287  11.056  0.3201  0.3246  0.1023
    8DOPE  H16Y 1025   4.004   0.221  11.161 -0.0279 -0.3982  0.1875
    8DOPE  C317 1026   4.026   0.433  11.091 -0.3166  0.7410 -0.3489
    8DOPE  H17X 1027   3.960   0.514  11.053 -0.8329 -0.6786 -2.7479
    8DOPE  H17Y 1028   4.092   0.471  11.171 -0.8788 -0.4213  0.7054
    8DOPE  C318 1029   4.117   0.381  10.974 -0.3980 -0.1029 -0.5658
    8DOPE  H18X 1030   4.145   0.470  10.914  2.1375 -0.1587  0.4120
    8DOPE  H18Y 1031   4.066   0.309  10.907  2.5444 -2.7316 -0.1797
    8DOPE  H18Z 1032   4.209   0.330  11.010  0.0554 -0.2278 -1.8466
    9DOPE     N 1033   1.020   5.265  14.051 -0.1973 -0.5687 -0.4810
    9DOPE   HN1 1034   1.056   5.311  14.137 -0.7101  1.0687 -1.1113
    9DOPE   HN2 1035   0.959   5.336  14.007 -0.8443 -0.9837 -0.2609
    9DOPE   HN3 1036   0.962   5.180  14.062 -0.6015 -0.3916 -1.2224
    9DOPE   C12 1037   1.136   5.245  13.957 -0.2635 -1.0898 -0.6334
    9DOPE  H12A 1038   1.097   5.159  13.899 -0.7536 -1.7846  0.6733
    9DOPE  H12B 1039   1.228   5.221  14.015  1.7815  1.8882 -2.3727
    9DOPE   C11 1040   1.152   5.366  13.872 -0.2818 -0.0039 -0.4947
    9DOPE  H11A 1041   1.060   5.379  13.811  0.3927 -2.6923 -2.2714
    9DOPE  H11B 1042   1.245   5.357  13.811  0.1463  0.8286 -0.0006
    9DOPE     P 1043   1.185   5.624  13.881 -0.3170  0.2896  0.2319
    9DOPE   O13 1044   1.182   5.729  13.987 -0.0522  0.6314  0.1159
    9DOPE   O14 1045   1.091   5.619  13.763 -0.1334  0.5170  0.1402
    9DOPE   O11 1046   1.326   5.625  13.819  0.1375 -0.1260  0.1906
    9DOPE   O12 1047   1.177   5.484  13.950  0.5103 -0.0371 -0.1472
    9DOPE    C1 1048   1.389   5.731  13.750  0.1104 -0.4718  0.7603
    9DOPE    HA 1049   1.496   5.738  13.777  0.3957 -1.1582 -0.1221
    9DOPE    HB 1050   1.343   5.830  13.770 -1.7003 -0.7877 -1.3657
    9DOPE    C2 1051   1.386   5.708  13.597  0.2983  0.6534 -0.1287
    9DOPE    HS 1052   1.278   5.692  13.575  0.4852 -0.6345 -0.1774
    9DOPE   O21 1053   1.462   5.592  13.565  0.3043 -0.5013  0.4097
    9DOPE   C21 1054   1.419   5.510  13.472  0.1288 -0.0183 -0.1441
    9DOPE   O22 1055   1.307   5.519  13.418 -0.9782  0.4774  0.7797
    9DOPE   C22 1056   1.530   5.407  13.452 -0.3925 -0.3041 -0.7304
    9DOPE   H2R 1057   1.545   5.350  13.546  1.1999 -2.1532 -2.0387
    9DOPE   H2S 1058   1.621   5.461  13.418  0.5614 -0.8679  0.8480
    9DOPE    C3 1059   1.435   5.826  13.508 -0.2526  0.4656 -0.1055
    9DOPE    HX 1060   1.538   5.846  13.546 -0.9608  0.6346  1.8678
    9DOPE    HY 1061   1.370   5.912  13.535 -1.1142 -0.7173  1.8443
    9DOPE   O31 1062   1.435   5.799  13.368 -0.0554  0.3082 -0.1824
    9DOPE   C31 1063   1.325   5.825  13.300 -0.2225  0.9353 -0.5665
    9DOPE   O32 1064   1.215   5.846  13.345  0.0995 -0.2500 -0.0941
    9DOPE   C32 1065   1.350   5.793  13.153  0.3376  0.1285  0.0757
    9DOPE   H2X 1066   1.322   5.882  13.092 -1.4802  0.4764  1.3101
    9DOPE   H2Y 1067   1.455   5.763  13.133  0.1958 -0.0984 -0.3435
    9DOPE   C23 1068   1.486   5.308  13.339  1.3674 -0.5335  0.8171
    9DOPE   H3R 1069   1.376   5.294  13.341  1.3359 -0.4136  0.1727
    9DOPE   H3S 1070   1.543   5.212  13.340  0.8717 -0.8366  0.4170
    9DOPE   C24 1071   1.529   5.347  13.197 -0.4440  0.1364  0.9633
    9DOPE   H4R 1072   1.640   5.338  13.190 -0.4844  0.6187 -1.1797
    9DOPE   H4S 1073   1.501   5.450  13.164  2.2301  0.7647  0.4305
    9DOPE   C25 1074   1.472   5.254  13.089  0.1726  0.4328  0.3433
    9DOPE   H5R 1075   1.363   5.276  13.095  0.2855  0.8387  0.9780
    9DOPE   H5S 1076   1.492   5.146  13.107  1.6884  0.8965  1.6708
    9DOPE   C26 1077   1.512   5.289  12.947  0.2489  0.0579  0.4350
    9DOPE   H6R 1078   1.612   5.241  12.942  0.0835 -0.4997  2.0171
    9DOPE   H6S 1079   1.513   5.398  12.922 -0.1863  0.4281  1.9247
    9DOPE   C27 1080   1.421   5.235  12.838 -0.3173 -0.0333 -0.5743
    9DOPE   H7R 1081   1.341   5.309  12.816  0.9356  1.6059  0.2023
    9DOPE   H7S 1082   1.376   5.137  12.867 -0.2688  0.0420 -0.2404
    9DOPE   C28 1083   1.504   5.204  12.715 -0.6355 -0.6051 -0.1804
    9DOPE   H8R 1084   1.554   5.106  12.736 -0.8560 -1.0531 -1.6440
    9DOPE   H8S 1085   1.571   5.291  12.698 -0.3091 -0.6547  0.7923
    9DOPE   C29 1086   1.417   5.183  12.596  0.4932  0.6684 -0.2791
    9DOPE   H9R 1087   1.325   5.243  12.592 -1.1010 -1.5755  0.1858
    9DOPE  C210 1088   1.442   5.103  12.493 -0.4996  0.2475 -0.2106
    9DOPE  H10R 1089   1.379   5.097  12.403  2.0915 -0.0846 -2.0822
    9DOPE  C211 1090   1.567   5.028  12.475  0.0646  0.3075 -0.0235
    9DOPE  H11R 1091   1.549   4.934  12.418 -1.3852  0.6924 -0.2384
    9DOPE  H11S 1092   1.626   5.006  12.567 -0.5883  0.7989  0.5212
    9DOPE  C212 1093   1.660   5.111  12.381  0.1746 -0.3230 -0.5356
    9DOPE  H12R 1094   1.759   5.060  12.378  0.2337 -0.1932 -0.8264
    9DOPE  H12S 1095   1.682   5.201  12.441  0.6689 -0.7582 -0.0544
    9DOPE  C213 1096   1.614   5.124  12.235 -0.0542  0.2133  0.4456
    9DOPE  H13R 1097   1.680   5.194  12.179 -1.2818  0.3975 -0.8429
    9DOPE  H13S 1098   1.511   5.160  12.215 -0.5264 -1.5729 -0.6088
    9DOPE  C214 1099   1.631   4.987  12.158  0.0171  0.0031 -0.2962
    9DOPE  H14R 1100   1.565   4.906  12.197  0.4838 -0.9987 -1.5121
    9DOPE  H14S 1101   1.731   4.941  12.162 -1.0503 -2.3841  2.1024
    9DOPE  C215 1102   1.594   5.003  12.011 -0.6067  0.1006 -0.2796
    9DOPE  H15R 1103   1.677   5.069  11.980  1.5802 -1.2891  2.2546
    9DOPE  H15S 1104   1.501   5.061  11.993 -1.1977 -1.1486 -1.4666
    9DOPE  C216 1105   1.604   4.872  11.929 -0.2427  0.1383  0.2296
    9DOPE  H16R 1106   1.508   4.817  11.933 -1.1328  1.6930  1.0357
    9DOPE  H16S 1107   1.682   4.801  11.966 -1.6528 -1.9589 -0.6325
    9DOPE  C217 1108   1.638   4.897  11.778  0.5889  0.6576  0.0857
    9DOPE  H17R 1109   1.741   4.938  11.773  1.0448 -0.4186  0.2569
    9DOPE  H17S 1110   1.574   4.973  11.728  0.1188  0.3884  0.2655
    9DOPE  C218 1111   1.626   4.764  11.687 -0.2742 -0.0161 -0.0198
    9DOPE  H18R 1112   1.527   4.719  11.710 -1.3042  1.4732 -1.3964
    9DOPE  H18S 1113   1.705   4.693  11.718  0.1224 -0.1428 -1.2698
    9DOPE  H18T 1114   1.643   4.792  11.581  0.1482 -1.4754 -0.3550
    9DOPE   C33 1115   1.266   5.679  13.095  0.2142  0.5833 -0.6371
    9DOPE   H3X 1116   1.158   5.694  13.071  0.0794  1.4003  0.4189
    9DOPE   H3Y 1117   1.269   5.592  13.163  1.4402  1.7302  0.8400
    9DOPE   C34 1118   1.330   5.609  12.963 -0.2201 -0.0615 -0.1209
    9DOPE   H4X 1119   1.435   5.572  12.973 -0.4614 -0.0518  3.5576
    9DOPE   H4Y 1120   1.259   5.528  12.935 -0.5258 -0.3113  1.3122
    9DOPE   C35 1121   1.330   5.705  12.844 -0.0529  0.3024 -0.7176
    9DOPE   H5X 1122   1.403   5.785  12.867 -1.1175  1.0002  0.4009
    9DOPE   H5Y 1123   1.232   5.758  12.839  0.8541  1.9470 -1.7170
    9DOPE   C36 1124   1.369   5.630  12.706 -0.2195 -0.7928 -0.6024
    9DOPE   H6X 1125   1.314   5.535  12.693 -0.0885 -1.0958  0.8625
    9DOPE   H6Y 1126   1.475   5.600  12.720 -0.5718 -1.1938  1.5449
    9DOPE   C37 1127   1.369   5.731  12.588 -0.1058  0.4514  0.5136
    9DOPE   H7X 1128   1.265   5.770  12.581 -0.4848 -0.4576  0.8730
    9DOPE   H7Y 1129   1.423   5.821  12.624  0.9527 -0.1114  0.3558
    9DOPE   C38 1130   1.419   5.673  12.455 -0.2840 -0.1774  0.1452
    9DOPE   H8X 1131   1.375   5.571  12.451  1.1839 -1.1953  4.1290
    9DOPE   H8Y 1132   1.529   5.657  12.455 -0.2531  0.0370 -0.3443
    9DOPE   C39 1133   1.396   5.763  12.332  0.2171  0.7389  0.0186
    9DOPE   H9X 1134   1.399   5.868  12.365 -1.1447  0.5696  0.7707
    9DOPE  C310 1135   1.377   5.728  12.199  0.4116  1.0597 -0.2248
    9DOPE  H10X 1136   1.360   5.803  12.121 -0.8329 -0.3912 -1.4112
    9DOPE  C311 1137   1.377   5.588  12.137 -0.2321 -0.1417  0.1057
    9DOPE  H11X 1138   1.360   5.514  12.218  1.1175 -0.4644  0.1264
    9DOPE  H11Y 1139   1.294   5.585  12.063 -0.8497  0.4610  0.7480
    9DOPE  C312 1140   1.515   5.563  12.066  0.2854  0.3106 -0.4794
    9DOPE  H12X 1141   1.598   5.549  12.139 -2.1641  0.8817  2.6299
    9DOPE  H12Y 1142   1.538   5.647  11.997 -2.3841 -0.0047 -1.8577
    9DOPE  C313 1143   1.514   5.449  11.967 -0.7027  0.3706  0.0399
    9DOPE  H13X 1144   1.501   5.363  12.035 -2.0112 -0.2497 -0.9518
    9DOPE  H13Y 1145   1.425   5.457  11.902 -1.1569  1.0524  0.7246
    9DOPE  C314 1146   1.638   5.436  11.881  0.0133  0.1837 -0.2758
    9DOPE  H14X 1147   1.725   5.432  11.950 -0.1677  0.5698 -0.0256
    9DOPE  H14Y 1148   1.648   5.533  11.828  0.3544  0.7826  0.8628
    9DOPE  C315 1149   1.641   5.317  11.797 -0.1317  0.2210  0.4476
    9DOPE  H15X 1150   1.544   5.313  11.744 -0.4212  1.1261  0.8840
    9DOPE  H15Y 1151   1.643   5.231  11.867  2.6002  0.0871  0.3479
    9DOPE  C316 1152   1.765   5.302  11.705 -0.3867 -0.1866 -0.0106
    9DOPE  H16X 1153   1.766   5.386  11.633  0.7138 -1.7017 -1.8422
    9DOPE  H16Y 1154   1.761   5.215  11.637 -2.1912  1.1888 -1.7636
    9DOPE  C317 1155   1.900   5.314  11.780 -0.1328 -0.4180 -0.3798
    9DOPE  H17X 1156   1.907   5.418  11.818  3.5254 -0.3364 -0.9257
    9DOPE  H17Y 1157   1.906   5.241  11.864 -0.7690  0.8977  0.8427
    9DOPE  C318 1158   2.022   5.295  11.684  0.3299 -0.6199 -1.2115
    9DOPE  H18X 1159   2.115   5.338  11.726 -0.7945  1.6112 -0.8752
    9DOPE  H18Y 1160   2.033   5.185  11.671 -2.1999 -1.5385  2.6962
    9DOPE  H18Z 1161   2.005   5.339  11.583  1.3416  4.9623  0.7202
   10DOPE     N 1162   1.659   0.404  13.674 -0.5818 -0.1823 -0.2222
   10DOPE   HN1 1163   1.670   0.359  13.581 -3.2164  1.3632 -1.3895
   10DOPE   HN2 1164   1.681   0.341  13.755  2.2276 -0.1100 -0.8210
   10DOPE   HN3 1165   1.558   0.426  13.680 -0.8476 -0.7280 -2.2037
   10DOPE   C12 1166   1.739   0.535  13.683  0.3251  0.5272 -0.3548
   10DOPE  H12A 1167   1.835   0.509  13.731 -0.6001 -1.3182  0.5956
   10DOPE  H12B 1168   1.684   0.605  13.750 -2.9648 -2.6502  0.6077
   10DOPE   C11 1169   1.757   0.591  13.534 -0.0246  0.1748 -0.0960
   10DOPE  H11A 1170   1.824   0.678  13.548 -0.5715  0.4205  1.1762
   10DOPE  H11B 1171   1.655   0.623  13.502 -0.4994  0.2363  1.3588
   10DOPE     P 1172   1.951   0.499  13.365  0.4799  0.6565 -0.0433
   10DOPE   O13 1173   1.968   0.367  13.300 -0.0174 -0.3808  0.0839
   10DOPE   O14 1174   2.060   0.546  13.453  0.0373 -0.0293 -0.1530
   10DOPE   O11 1175   1.920   0.608  13.247  0.2660  0.0726  0.1743
   10DOPE   O12 1176   1.816   0.486  13.453 -0.3709 -0.1846 -0.0499
   10DOPE    C1 1177   2.007   0.723  13.245 -0.6408 -0.0953 -0.3400
   10DOPE    HA 1178   2.043   0.746  13.347  1.3053  0.0732 -1.0337
   10DOPE    HB 1179   1.953   0.812  13.206  0.2277  0.2462 -0.7854
   10DOPE    C2 1180   2.131   0.704  13.149  0.0133 -0.4464 -0.1336
   10DOPE    HS 1181   2.200   0.630  13.195 -0.3450 -0.2832  0.6789
   10DOPE   O21 1182   2.190   0.836  13.123  0.9807  0.8005  0.1254
   10DOPE   C21 1183   2.264   0.871  13.225 -0.4732 -0.3933  0.5264
   10DOPE   O22 1184   2.317   0.803  13.308 -0.2601 -0.4988 -0.0132
   10DOPE   C22 1185   2.256   1.025  13.230 -0.1069  0.3771 -0.1947
   10DOPE   H2R 1186   2.193   1.048  13.319  1.0479 -0.8694  0.9965
   10DOPE   H2S 1187   2.196   1.064  13.145 -2.4203 -0.4997  0.9469
   10DOPE    C3 1188   2.081   0.642  13.012 -0.9761  0.0334 -0.4964
   10DOPE    HX 1189   1.988   0.697  12.985 -1.2519 -0.1055  0.1321
   10DOPE    HY 1190   2.048   0.538  13.033 -3.7025  0.9961  0.4664
   10DOPE   O31 1191   2.182   0.634  12.912 -0.1809 -0.4294 -0.3280
   10DOPE   C31 1192   2.139   0.687  12.792 -0.3523  0.2728  0.4219
   10DOPE   O32 1193   2.032   0.738  12.766 -0.4802  0.2933 -0.1156
   10DOPE   C32 1194   2.251   0.662  12.697 -0.0057  0.0907  0.2818
   10DOPE   H2X 1195   2.323   0.743  12.719 -2.3644  1.9984  1.4740
   10DOPE   H2Y 1196   2.297   0.563  12.715 -0.5473 -0.4909 -1.3414
   10DOPE   C23 1197   2.395   1.087  13.221  1.1921 -0.8126 -0.7442
   10DOPE   H3R 1198   2.474   1.036  13.162  2.7411  1.8940 -1.1712
   10DOPE   H3S 1199   2.434   1.086  13.325  2.7848 -1.9554 -1.3032
   10DOPE   C24 1200   2.394   1.228  13.169  0.0099 -0.3078 -0.2771
   10DOPE   H4R 1201   2.470   1.280  13.230  0.2002  0.2837 -0.9988
   10DOPE   H4S 1202   2.299   1.280  13.195 -0.6172 -1.4262 -0.2840
   10DOPE   C25 1203   2.438   1.250  13.028 -0.4567  0.2823  0.0815
   10DOPE   H5R 1204   2.547   1.224  13.024 -0.4366  0.4267 -0.4362
   10DOPE   H5S 1205   2.420   1.356  13.002 -2.4386 -0.1777 -0.5300
   10DOPE   C26 1206   2.367   1.154  12.928 -0.3610  0.0471 -0.0235
   10DOPE   H6R 1207   2.260   1.161  12.956 -0.5930  2.4576 -1.2547
   10DOPE   H6S 1208   2.397   1.048  12.945 -2.3569 -0.6031 -0.2930
   10DOPE   C27 1209   2.382   1.192  12.776 -0.0307  0.3627 -0.9924
   10DOPE   H7R 1210   2.316   1.280  12.760 -1.3457 -0.5305 -0.6182
   10DOPE   H7S 1211   2.342   1.106  12.719 -1.7717  1.7226 -1.9137
   10DOPE   C28 1212   2.525   1.238  12.737  0.2285  0.0088  0.3045
   10DOPE   H8R 1213   2.569   1.298  12.820 -0.9037  0.8226  0.3436
   10DOPE   H8S 1214   2.521   1.316  12.657 -0.3199 -0.5701 -0.2444
   10DOPE   C29 1215   2.613   1.124  12.695 -0.0973 -0.0823  0.6487
   10DOPE   H9R 1216   2.639   1.059  12.780  0.3190 -0.3322  0.3286
   10DOPE  C210 1217   2.643   1.084  12.569 -0.2595 -0.8648 -0.3477
   10DOPE  H10R 1218   2.697   0.989  12.559  1.7986  0.1579  0.5391
   10DOPE  C211 1219   2.632   1.175  12.447  0.4840  0.4359  0.7304
   10DOPE  H11R 1220   2.731   1.163  12.398  0.8960  2.5730  0.9747
   10DOPE  H11S 1221   2.630   1.283  12.472  1.2907  0.5015  0.5340
   10DOPE  C212 1222   2.539   1.132  12.331 -0.3410 -0.2402  0.2422
   10DOPE  H12R 1223   2.433   1.136  12.366 -0.4852 -0.3130 -0.1763
   10DOPE  H12S 1224   2.569   1.031  12.297  1.2472 -0.1557  1.2949
   10DOPE  C213 1225   2.537   1.237  12.215 -0.2697  0.1446  0.4917
   10DOPE  H13R 1226   2.645   1.246  12.191  0.0549 -0.9938  1.4560
   10DOPE  H13S 1227   2.498   1.333  12.257  1.4602  1.4835 -0.8021
   10DOPE  C214 1228   2.442   1.212  12.094  0.1570  0.4783 -0.1118
   10DOPE  H14R 1229   2.441   1.296  12.021 -0.1147 -0.1294 -0.8185
   10DOPE  H14S 1230   2.338   1.194  12.130  0.8408 -0.2632  1.5876
   10DOPE  C215 1231   2.481   1.083  12.020  0.0396 -0.0248  0.0280
   10DOPE  H15R 1232   2.440   0.998  12.079  0.3942  0.0239  0.3411
   10DOPE  H15S 1233   2.591   1.077  12.025 -0.0067 -0.1423  0.9826
   10DOPE  C216 1234   2.427   1.077  11.876 -0.1570 -0.2760  0.2715
   10DOPE  H16R 1235   2.317   1.068  11.889 -0.2013  1.7907  1.9394
   10DOPE  H16S 1236   2.466   0.984  11.829  0.8540 -0.1281  0.7916
   10DOPE  C217 1237   2.473   1.193  11.783 -0.0536  0.0474 -0.7613
   10DOPE  H17R 1238   2.583   1.209  11.777  0.2051  0.8044  3.3398
   10DOPE  H17S 1239   2.425   1.284  11.823  1.4481  0.1886  0.8107
   10DOPE  C218 1240   2.411   1.178  11.644  0.6709  0.7517  0.2645
   10DOPE  H18R 1241   2.462   1.085  11.613  2.5886  1.6950  0.4454
   10DOPE  H18S 1242   2.455   1.262  11.586  2.4477  0.4950  1.1575
   10DOPE  H18T 1243   2.301   1.168  11.652  0.5654 -1.2514 -2.5461
   10DOPE   C33 1244   2.200   0.679  12.544 -0.4300  0.0356 -0.3864
   10DOPE   H3X 1245   2.171   0.785  12.531 -4.3642 -0.9390 -0.9717
   10DOPE   H3Y 1246   2.106   0.621  12.528 -0.6554  0.3731 -0.2833
   10DOPE   C34 1247   2.302   0.641  12.439 -0.2843  0.3665 -0.5941
   10DOPE   H4X 1248   2.401   0.684  12.465 -0.3800  2.7271 -3.5039
   10DOPE   H4Y 1249   2.311   0.530  12.440  0.0811  0.3964 -0.1011
   10DOPE   C35 1250   2.275   0.691  12.295  0.6587  0.6416  0.3641
   10DOPE   H5X 1251   2.346   0.648  12.221 -1.1649  0.4359 -1.3613
   10DOPE   H5Y 1252   2.282   0.802  12.286  1.4226  0.5237 -0.6050
   10DOPE   C36 1253   2.136   0.639  12.252  0.2017  0.4754  0.4013
   10DOPE   H6X 1254   2.064   0.707  12.302 -1.6790 -0.9496 -0.2743
   10DOPE   H6Y 1255   2.132   0.539  12.301 -0.1639  2.0310  3.8674
   10DOPE   C37 1256   2.122   0.622  12.102  0.3124 -0.8677  0.2159
   10DOPE   H7X 1257   2.013   0.627  12.083  0.0537  0.5973  1.8600
   10DOPE   H7Y 1258   2.158   0.714  12.051 -0.5142  0.0554  1.2702
   10DOPE   C38 1259   2.192   0.502  12.034  0.7520  0.1485 -0.5288
   10DOPE   H8X 1260   2.163   0.419  12.101 -2.2110 -0.3254 -2.2152
   10DOPE   H8Y 1261   2.303   0.505  12.044  0.5785  0.5327  1.8098
   10DOPE   C39 1262   2.146   0.461  11.900 -0.0807  0.3041 -0.1411
   10DOPE   H9X 1263   2.041   0.429  11.897 -0.1374  0.5820 -1.5194
   10DOPE  C310 1264   2.199   0.493  11.787  0.3375  0.5352  0.4680
   10DOPE  H10X 1265   2.145   0.459  11.696  0.0269  1.2608  0.3716
   10DOPE  C311 1266   2.331   0.566  11.756  0.4231 -0.7014 -0.4127
   10DOPE  H11X 1267   2.322   0.674  11.735  4.8395  0.0366  0.4094
   10DOPE  H11Y 1268   2.396   0.579  11.845 -2.6447 -2.6689  2.3530
   10DOPE  C312 1269   2.404   0.490  11.639  0.4520 -0.6013 -0.9325
   10DOPE  H12X 1270   2.403   0.382  11.666 -0.3002 -0.8284 -1.8609
   10DOPE  H12Y 1271   2.513   0.513  11.643  0.2984  0.5902 -2.8851
   10DOPE  C313 1272   2.348   0.504  11.494 -0.3442  0.4744 -0.5437
   10DOPE  H13X 1273   2.414   0.439  11.433  0.0418  0.4181 -0.0737
   10DOPE  H13Y 1274   2.243   0.470  11.502 -0.1916 -0.3358 -1.7949
   10DOPE  C314 1275   2.349   0.644  11.440  0.3089  0.1550  0.4926
   10DOPE  H14X 1276   2.458   0.662  11.431  0.1431  1.0204  0.0881
   10DOPE  H14Y 1277   2.317   0.716  11.519  1.2170 -0.1075  1.1147
   10DOPE  C315 1278   2.272   0.667  11.310 -0.4385 -0.0396 -0.2223
   10DOPE  H15X 1279   2.163   0.654  11.323 -0.5841  1.0906 -0.1695
   10DOPE  H15Y 1280   2.303   0.588  11.239 -1.7117  0.8469 -1.8396
   10DOPE  C316 1281   2.305   0.807  11.253 -0.3840  0.3198 -0.0839
   10DOPE  H16X 1282   2.246   0.804  11.159 -2.1191 -1.4593  0.9807
   10DOPE  H16Y 1283   2.411   0.795  11.223  0.6242  0.8729  2.8520
   10DOPE  C317 1284   2.260   0.933  11.324  0.7018  0.2920 -0.5577
   10DOPE  H17X 1285   2.151   0.918  11.341  0.8650 -1.6179 -0.9915
   10DOPE  H17Y 1286   2.293   0.937  11.430 -0.0553  0.6579 -0.3284
   10DOPE  C318 1287   2.287   1.063  11.254  0.2721 -0.0623 -0.6095
   10DOPE  H18X 1288   2.259   1.050  11.147  0.0197 -1.1732 -0.4273
   10DOPE  H18Y 1289   2.218   1.142  11.290 -0.3065 -0.3455 -1.0625
   10DOPE  H18Z 1290   2.396   1.084  11.258  0.2108  0.0783  2.0523
   11DOPE     N 1291   6.464   4.842  13.827  0.2443 -0.3898 -0.6467
   11DOPE   HN1 1292   6.445   4.778  13.907 -0.1933  1.4861  0.8085
   11DOPE   HN2 1293   6.553   4.893  13.843  0.1989 -0.3329 -0.5770
   11DOPE   HN3 1294   6.386   4.911  13.829 -1.7238 -2.4867 -0.4795
   11DOPE   C12 1295   6.443   4.780  13.688 -0.6517 -0.3383 -0.0546
   11DOPE  H12A 1296   6.340   4.738  13.675 -0.5820 -1.0991  1.5504
   11DOPE  H12B 1297   6.519   4.701  13.673  1.4910  2.0371 -2.6602
   11DOPE   C11 1298   6.468   4.896  13.585 -0.5209  0.0663 -0.9404
   11DOPE  H11A 1299   6.393   4.977  13.596 -1.3898 -0.4316 -2.8564
   11DOPE  H11B 1300   6.469   4.858  13.480  3.1852 -1.9697 -0.3497
   11DOPE     P 1301   6.637   5.100  13.568 -0.1274  0.3638  0.6536
   11DOPE   O13 1302   6.732   5.146  13.673  0.4436  0.4194  0.4882
   11DOPE   O14 1303   6.513   5.177  13.540 -0.5339  0.6425 -0.0392
   11DOPE   O11 1304   6.712   5.077  13.432  0.4544 -0.2430 -0.5854
   11DOPE   O12 1305   6.598   4.946  13.599 -0.5843  0.4634 -0.2575
   11DOPE    C1 1306   6.831   4.997  13.430 -1.0177 -0.3273 -0.1995
   11DOPE    HA 1307   6.809   4.889  13.434  0.4873 -0.6444 -0.0635
   11DOPE    HB 1308   6.906   5.025  13.507 -0.7484  0.7864 -0.8319
   11DOPE    C2 1309   6.905   5.029  13.300  0.2145  0.2897  0.3154
   11DOPE    HS 1310   6.936   5.134  13.317  1.2497 -0.2696  2.1883
   11DOPE   O21 1311   6.820   5.010  13.186  0.8060 -0.3757 -0.3683
   11DOPE   C21 1312   6.859   5.070  13.077 -0.1915 -0.0934  0.2195
   11DOPE   O22 1313   6.938   5.162  13.082  0.4865  0.5988 -0.6528
   11DOPE   C22 1314   6.790   5.003  12.955  0.7404  0.0678 -0.8743
   11DOPE   H2R 1315   6.685   4.980  12.979  0.6825  0.1372 -1.0596
   11DOPE   H2S 1316   6.845   4.909  12.932  1.5223  0.3901 -0.3842
   11DOPE    C3 1317   7.029   4.935  13.292  0.6177 -0.2787  0.5562
   11DOPE    HX 1318   7.009   4.826  13.281  3.2994 -0.6999 -1.0757
   11DOPE    HY 1319   7.085   4.934  13.388  1.4281  0.4436  0.0988
   11DOPE   O31 1320   7.111   4.952  13.177 -0.1369 -0.2371 -0.1845
   11DOPE   C31 1321   7.188   5.061  13.192  0.6927  0.8851 -0.2149
   11DOPE   O32 1322   7.194   5.122  13.296 -0.2340 -0.4135  0.2060
   11DOPE   C32 1323   7.248   5.103  13.070  0.1981 -0.2697  0.1289
   11DOPE   H2X 1324   7.197   5.199  13.050 -0.5110 -0.0163  2.7469
   11DOPE   H2Y 1325   7.354   5.135  13.068 -0.0614  0.8186 -3.4616
   11DOPE   C23 1326   6.800   5.106  12.839 -0.1086 -0.5582 -0.7438
   11DOPE   H3R 1327   6.903   5.142  12.816 -1.1857  3.8316  0.3297
   11DOPE   H3S 1328   6.745   5.198  12.868  1.4804 -0.6320  3.2062
   11DOPE   C24 1329   6.742   5.060  12.705  0.4201  0.1429  0.6604
   11DOPE   H4R 1330   6.727   5.151  12.643 -0.3751  1.5289  2.7888
   11DOPE   H4S 1331   6.644   5.010  12.718 -0.2784  1.1398 -0.6044
   11DOPE   C25 1332   6.828   4.956  12.637 -0.3371 -0.0688 -0.2640
   11DOPE   H5R 1333   6.813   4.860  12.689 -0.3599  1.2232  2.2507
   11DOPE   H5S 1334   6.932   4.986  12.658 -0.5069  0.7382 -0.5418
   11DOPE   C26 1335   6.798   4.950  12.482 -0.3032 -0.1194 -0.0328
   11DOPE   H6R 1336   6.693   4.916  12.473 -0.7463  1.0600  0.5367
   11DOPE   H6S 1337   6.865   4.877  12.432  2.4397  1.2304  1.4267
   11DOPE   C27 1338   6.813   5.079  12.400  0.0605  0.1197 -0.3500
   11DOPE   H7R 1339   6.899   5.135  12.443 -1.0340 -0.3326  2.6337
   11DOPE   H7S 1340   6.722   5.142  12.411  1.0017  1.6781 -1.0996
   11DOPE   C28 1341   6.852   5.051  12.257  0.1124  0.1017 -0.1026
   11DOPE   H8R 1342   6.764   4.990  12.225 -0.9519  0.3324  2.1290
   11DOPE   H8S 1343   6.922   4.965  12.261 -2.2890 -1.9604  0.4896
   11DOPE   C29 1344   6.889   5.173  12.175 -0.4603  0.7011  0.6532
   11DOPE   H9R 1345   6.905   5.270  12.226 -0.9462  1.6609 -0.9482
   11DOPE  C210 1346   6.904   5.166  12.043 -0.5177  0.4533 -0.0457
   11DOPE  H10R 1347   6.954   5.247  11.989  1.9854 -0.6404  0.4998
   11DOPE  C211 1348   6.898   5.047  11.957 -0.0573  0.4892 -0.7857
   11DOPE  H11R 1349   6.848   4.958  12.002  0.7089  0.9887  1.1619
   11DOPE  H11S 1350   6.997   5.009  11.923 -0.3801 -1.4863  0.3163
   11DOPE  C212 1351   6.820   5.085  11.834  0.1391  0.3227  0.4595
   11DOPE  H12R 1352   6.877   5.162  11.778  0.6905 -0.4933 -0.1237
   11DOPE  H12S 1353   6.719   5.126  11.856  0.7006  1.5700  0.8625
   11DOPE  C213 1354   6.790   4.964  11.744 -0.4094 -0.0853 -0.4516
   11DOPE  H13R 1355   6.739   4.880  11.797  1.8644  0.0858  2.2193
   11DOPE  H13S 1356   6.889   4.921  11.719  1.0883  1.5481  2.2176
   11DOPE  C214 1357   6.722   5.012  11.616  0.3018 -0.5780 -0.1751
   11DOPE  H14R 1358   6.773   5.107  11.593 -2.1452  0.7878 -0.3490
   11DOPE  H14S 1359   6.612   5.027  11.629 -0.2317  0.2018 -4.3192
   11DOPE  C215 1360   6.730   4.921  11.490  0.0325 -0.0463 -0.4164
   11DOPE  H15R 1361   6.706   4.814  11.507 -1.6787  0.3929  0.0542
   11DOPE  H15S 1362   6.832   4.936  11.447 -0.5281  1.8993 -1.1962
   11DOPE  C216 1363   6.642   4.974  11.370  0.3951 -0.1760 -0.6316
   11DOPE  H16R 1364   6.647   5.082  11.345 -1.8179 -0.1842 -1.3717
   11DOPE  H16S 1365   6.537   4.951  11.397  0.6921  0.3413  1.0826
   11DOPE  C217 1366   6.678   4.888  11.238  0.0538  0.1102 -0.1980
   11DOPE  H17R 1367   6.641   4.785  11.260 -0.3514 -0.1743 -2.0336
   11DOPE  H17S 1368   6.784   4.904  11.210 -0.5190  0.1778 -2.4844
   11DOPE  C218 1369   6.603   4.948  11.122 -0.1457  0.3729  0.0838
   11DOPE  H18R 1370   6.493   4.935  11.133 -0.5045  1.1768 -2.0818
   11DOPE  H18S 1371   6.623   4.891  11.029 -2.2612 -0.4284  0.0709
   11DOPE  H18T 1372   6.640   5.050  11.096  0.7928 -0.0847 -0.4195
   11DOPE   C33 1373   7.235   5.001  12.953  0.2580  0.0306 -0.1650
   11DOPE   H3X 1374   7.133   4.956  12.949  0.3200 -0.0416 -0.9636
   11DOPE   H3Y 1375   7.305   4.918  12.976 -0.4317  0.1854  2.9972
   11DOPE   C34 1376   7.260   5.067  12.820  0.2594  0.0636  0.4844
   11DOPE   H4X 1377   7.187   5.151  12.814 -2.3844 -2.1780 -1.9619
   11DOPE   H4Y 1378   7.362   5.110  12.824  0.2249  0.0856  1.1919
   11DOPE   C35 1379   7.250   4.958  12.711 -0.3786 -0.2164 -0.2823
   11DOPE   H5X 1380   7.150   4.910  12.707  1.3278 -4.3133  1.4551
   11DOPE   H5Y 1381   7.329   4.883  12.729 -1.1062 -1.3845 -1.7604
   11DOPE   C36 1382   7.272   5.011  12.568 -0.1063  0.2184  0.0771
   11DOPE   H6X 1383   7.370   5.063  12.558 -0.2244  0.1547 -1.6428
   11DOPE   H6Y 1384   7.195   5.085  12.536 -0.2792 -0.3867 -0.9551
   11DOPE   C37 1385   7.265   4.899  12.462 -0.1490  0.4246 -0.8805
   11DOPE   H7X 1386   7.332   4.817  12.494 -0.0883 -0.5739 -3.3780
   11DOPE   H7Y 1387   7.158   4.869  12.467 -0.1083  0.3820 -0.1315
   11DOPE   C38 1388   7.298   4.933  12.318 -0.0317 -0.2437  0.1148
   11DOPE   H8X 1389   7.282   4.839  12.261  2.4024 -0.7912  0.1845
   11DOPE   H8Y 1390   7.409   4.937  12.320 -0.0349  0.1454  2.2711
   11DOPE   C39 1391   7.237   5.057  12.249  0.1133  0.0634 -0.2436
   11DOPE   H9X 1392   7.187   5.131  12.313  1.9094  3.0386 -2.0561
   11DOPE  C310 1393   7.264   5.097  12.120  0.3454  0.2371  0.5406
   11DOPE  H10X 1394   7.239   5.201  12.095  1.0709  0.4107  0.5240
   11DOPE  C311 1395   7.341   5.036  12.004  0.3007 -0.3027  0.5860
   11DOPE  H11X 1396   7.413   5.108  11.962 -0.3953 -0.6583 -1.3180
   11DOPE  H11Y 1397   7.401   4.949  12.038  1.0113 -0.2002 -0.3828
   11DOPE  C312 1398   7.260   4.982  11.886 -1.0181 -0.2889 -0.6211
   11DOPE  H12X 1399   7.193   5.059  11.841 -1.2133  1.6578  2.6988
   11DOPE  H12Y 1400   7.201   4.893  11.917 -2.1781  0.8141  0.4312
   11DOPE  C313 1401   7.370   4.937  11.786  1.0357 -0.5703  0.5905
   11DOPE  H13X 1402   7.412   5.032  11.747  2.3510 -0.9093  1.1391
   11DOPE  H13Y 1403   7.442   4.867  11.833  0.6116 -0.2702  1.7433
   11DOPE  C314 1404   7.305   4.878  11.658  0.0091  0.2556 -0.0493
   11DOPE  H14X 1405   7.230   4.951  11.621  0.5215  0.0969 -1.4610
   11DOPE  H14Y 1406   7.250   4.785  11.685  2.5758 -1.9302 -1.7344
   11DOPE  C315 1407   7.410   4.849  11.545  0.6735 -0.3891 -0.6225
   11DOPE  H15X 1408   7.489   4.781  11.584  0.0849  0.5477  2.5532
   11DOPE  H15Y 1409   7.449   4.949  11.518  2.8664 -1.3141 -1.0502
   11DOPE  C316 1410   7.335   4.792  11.425  0.0118 -0.2619  0.3254
   11DOPE  H16X 1411   7.259   4.868  11.398  0.6164 -0.1226 -1.0937
   11DOPE  H16Y 1412   7.280   4.699  11.449 -2.1378  0.7452 -0.4483
   11DOPE  C317 1413   7.415   4.774  11.299  0.3386  0.8067 -0.4914
   11DOPE  H17X 1414   7.502   4.714  11.331 -0.1407  0.7314  0.7428
   11DOPE  H17Y 1415   7.367   4.716  11.217 -0.2279  0.5117  0.0336
   11DOPE  C318 1416   7.463   4.904  11.235  0.3219 -0.0718 -0.2151
   11DOPE  H18X 1417   7.378   4.971  11.210  1.0365  1.5402  1.4072
   11DOPE  H18Y 1418   7.546   4.954  11.290 -0.5500  0.8217  0.3233
   11DOPE  H18Z 1419   7.511   4.883  11.137 -1.8801  2.1009 -1.8891
   12DOPE     N 1420   3.146   1.063  13.736  0.1054  0.4298  0.0507
   12DOPE   HN1 1421   3.174   1.147  13.790 -2.9509  0.6040  1.6019
   12DOPE   HN2 1422   3.104   1.008  13.815 -0.8215 -0.9636 -1.3425
   12DOPE   HN3 1423   3.216   0.993  13.704  0.5358  0.9319 -0.1024
   12DOPE   C12 1424   3.031   1.087  13.637  0.0691  0.1330 -0.0289
   12DOPE  H12A 1425   3.056   1.174  13.573 -0.4368  0.8729  0.7612
   12DOPE  H12B 1426   2.944   1.112  13.701  1.9653  0.6267  2.5068
   12DOPE   C11 1427   3.017   0.957  13.554  0.6265  0.1175 -0.0114
   12DOPE  H11A 1428   2.961   0.994  13.465  0.3779  2.4469  1.0418
   12DOPE  H11B 1429   2.957   0.884  13.611  0.2301 -0.8092 -1.5711
   12DOPE     P 1430   3.206   0.929  13.387  0.1143  0.3081 -0.1976
   12DOPE   O13 1431   3.352   0.926  13.412  0.8937  0.5553 -0.2534
   12DOPE   O14 1432   3.152   1.053  13.331 -0.4593 -0.0908  0.1497
   12DOPE   O11 1433   3.173   0.813  13.300  0.0106  0.5581  0.6786
   12DOPE   O12 1434   3.145   0.899  13.531 -0.1704  0.0076  0.5368
   12DOPE    C1 1435   3.047   0.814  13.226  0.7285  0.0245  0.2608
   12DOPE    HA 1436   2.978   0.894  13.259  0.6592 -0.5455  1.5365
   12DOPE    HB 1437   2.994   0.717  13.239  0.2557  0.1617 -0.5999
   12DOPE    C2 1438   3.062   0.831  13.068 -0.3770 -0.0485  0.2562
   12DOPE    HS 1439   2.967   0.803  13.016 -0.3209 -1.8573  1.0693
   12DOPE   O21 1440   3.172   0.748  13.030 -0.6864 -0.2729  0.4127
   12DOPE   C21 1441   3.145   0.621  12.991 -0.3319  0.4999  0.0699
   12DOPE   O22 1442   3.037   0.577  12.974  0.1261  0.4411  0.3463
   12DOPE   C22 1443   3.275   0.541  12.954 -0.1098  0.6556 -0.0766
   12DOPE   H2R 1444   3.245   0.434  12.943 -0.5500  0.7600  0.0834
   12DOPE   H2S 1445   3.341   0.537  13.043  2.1060  0.8061 -1.6168
   12DOPE    C3 1446   3.096   0.981  13.041  0.2169  0.9683  0.1725
   12DOPE    HX 1447   3.195   0.998  13.089 -1.0138  0.2462  3.2420
   12DOPE    HY 1448   3.027   1.044  13.102 -1.4504 -1.3862  0.8707
   12DOPE   O31 1449   3.100   1.012  12.902 -0.4459  0.7201 -0.1033
   12DOPE   C31 1450   2.983   1.052  12.860 -1.2208  0.4871 -0.3259
   12DOPE   O32 1451   2.884   1.061  12.929 -0.7139  0.0486  0.3180
   12DOPE   C32 1452   3.001   1.069  12.706  0.4816 -1.0353  0.1246
   12DOPE   H2X 1453   2.905   1.048  12.656 -0.1648  0.1785  0.8118
   12DOPE   H2Y 1454   3.039   1.173  12.695 -3.2227  0.7239  2.1672
   12DOPE   C23 1455   3.335   0.592  12.822 -0.2528 -0.1540  0.8614
   12DOPE   H3R 1456   3.426   0.535  12.795  0.3627  1.2521 -0.1704
   12DOPE   H3S 1457   3.355   0.701  12.836 -0.9781  0.3699 -1.6887
   12DOPE   C24 1458   3.250   0.563  12.702  0.7369  0.1202 -0.3922
   12DOPE   H4R 1459   3.153   0.616  12.707  0.5227  0.0774 -2.7781
   12DOPE   H4S 1460   3.232   0.453  12.698 -0.6932  0.1952  2.2550
   12DOPE   C25 1461   3.313   0.610  12.572 -0.3855 -1.0280  0.1823
   12DOPE   H5R 1462   3.406   0.550  12.561 -1.1730 -2.0218 -1.6511
   12DOPE   H5S 1463   3.325   0.720  12.578 -1.5320 -0.6235 -3.0018
   12DOPE   C26 1464   3.242   0.577  12.445  0.6421 -0.1123  0.3036
   12DOPE   H6R 1465   3.144   0.629  12.454 -0.3638 -2.1081  1.6711
   12DOPE   H6S 1466   3.214   0.470  12.435  0.5512 -0.0488 -0.1625
   12DOPE   C27 1467   3.312   0.622  12.321 -0.1572  0.5013  0.2648
   12DOPE   H7R 1468   3.408   0.567  12.312  1.0875  2.7599 -1.3592
   12DOPE   H7S 1469   3.333   0.730  12.333  0.3633  0.5541 -0.9764
   12DOPE   C28 1470   3.218   0.594  12.197  0.3266  0.0488 -0.7185
   12DOPE   H8R 1471   3.118   0.629  12.229  0.5339  1.1136 -1.2025
   12DOPE   H8S 1472   3.195   0.487  12.179 -0.8452  0.0723  0.5121
   12DOPE   C29 1473   3.268   0.659  12.079  0.0291 -0.6340 -0.2339
   12DOPE   H9R 1474   3.321   0.752  12.106 -1.0340  0.0463 -0.3944
   12DOPE  C210 1475   3.289   0.602  11.961 -0.7955  0.6249 -0.2348
   12DOPE  H10R 1476   3.326   0.669  11.882  0.1098 -1.1653 -1.4156
   12DOPE  C211 1477   3.253   0.457  11.921 -0.2861 -0.0770 -0.2736
   12DOPE  H11R 1478   3.171   0.410  11.978 -1.3370  1.7393 -0.1931
   12DOPE  H11S 1479   3.333   0.384  11.945 -1.2382 -1.2308 -0.5619
   12DOPE  C212 1480   3.212   0.451  11.775  0.6737 -0.3186 -0.2251
   12DOPE  H12R 1481   3.140   0.530  11.744  0.4959 -0.9000 -1.3331
   12DOPE  H12S 1482   3.161   0.353  11.765  1.7852 -1.0607  0.9600
   12DOPE  C213 1483   3.331   0.453  11.678  0.1012  0.3194  0.7907
   12DOPE  H13R 1484   3.420   0.408  11.727 -2.0923 -3.3616  1.8154
   12DOPE  H13S 1485   3.348   0.558  11.647 -0.8328 -0.1410 -1.4976
   12DOPE  C214 1486   3.300   0.373  11.550 -0.0214 -0.4151  0.5691
   12DOPE  H14R 1487   3.198   0.410  11.528  0.4361  1.3447  1.2534
   12DOPE  H14S 1488   3.297   0.262  11.563  1.9775 -0.5308  0.3838
   12DOPE  C215 1489   3.393   0.424  11.441 -0.3968 -0.0790 -0.1635
   12DOPE  H15R 1490   3.493   0.384  11.464 -1.8796 -3.6868  0.6440
   12DOPE  H15S 1491   3.406   0.534  11.450  2.6892 -0.4186  0.3274
   12DOPE  C216 1492   3.365   0.382  11.296  0.0059  0.3333  0.1970
   12DOPE  H16R 1493   3.259   0.408  11.274 -0.5858 -0.5409  1.8412
   12DOPE  H16S 1494   3.372   0.271  11.299 -0.9656  0.2601  0.1296
   12DOPE  C217 1495   3.452   0.440  11.184  0.3427 -0.2179  0.2483
   12DOPE  H17R 1496   3.553   0.403  11.211  1.1815 -0.7604 -3.1062
   12DOPE  H17S 1497   3.433   0.549  11.190 -3.0023 -0.7505  2.0166
   12DOPE  C218 1498   3.422   0.375  11.042  0.5144  0.4020 -0.0274
   12DOPE  H18R 1499   3.477   0.433  10.964  1.0852 -0.6504 -0.4368
   12DOPE  H18S 1500   3.319   0.362  11.004  0.0035 -3.2424  2.1336
   12DOPE  H18T 1501   3.461   0.271  11.033 -1.1869 -0.4781  2.0812
   12DOPE   C33 1502   3.099   0.956  12.657  0.5577 -0.0719 -0.3194
   12DOPE   H3X 1503   3.073   0.861  12.709 -0.3852 -1.3185 -2.9116
   12DOPE   H3Y 1504   3.199   0.991  12.688  0.3143  0.2882  0.0749
   12DOPE   C34 1505   3.098   0.931  12.506  0.3605 -0.4503 -0.1305
   12DOPE   H4X 1506   3.157   0.838  12.494  2.1650  0.5756  0.4128
   12DOPE   H4Y 1507   2.990   0.917  12.482 -0.0435  0.8742  0.7880
   12DOPE   C35 1508   3.154   1.045  12.420 -0.3015 -0.4593 -0.0868
   12DOPE   H5X 1509   3.260   1.054  12.450 -0.0046  3.0071 -1.6676
   12DOPE   H5Y 1510   3.095   1.135  12.450  0.5945 -0.1496  0.7902
   12DOPE   C36 1511   3.152   1.018  12.275 -0.1131 -0.1000 -0.0192
   12DOPE   H6X 1512   3.188   0.913  12.272  0.1345 -0.0044 -1.2398
   12DOPE   H6Y 1513   3.224   1.080  12.217 -0.4755 -0.4950 -0.9070
   12DOPE   C37 1514   3.019   1.034  12.198 -0.6313  0.0440 -0.4110
   12DOPE   H7X 1515   2.959   0.953  12.245  1.3410 -0.4658  1.3902
   12DOPE   H7Y 1516   2.986   1.140  12.210  1.2775  0.9251 -2.3150
   12DOPE   C38 1517   3.017   1.003  12.050 -0.3687  0.3659  0.1342
   12DOPE   H8X 1518   2.916   1.027  12.010 -0.5614  1.3748  1.1693
   12DOPE   H8Y 1519   3.047   0.897  12.034 -0.9656  0.2764 -0.4425
   12DOPE   C39 1520   3.121   1.090  11.981 -0.7528  0.2364 -0.2515
   12DOPE   H9X 1521   3.121   1.189  12.029  1.6404 -0.1479  0.6505
   12DOPE  C310 1522   3.195   1.066  11.867 -0.3717 -0.2612 -0.9756
   12DOPE  H10X 1523   3.275   1.136  11.837 -1.4638  0.8242 -1.4457
   12DOPE  C311 1524   3.193   0.949  11.772 -0.6217  0.5383  0.2966
   12DOPE  H11X 1525   3.297   0.910  11.761 -0.3975  0.7546  1.5455
   12DOPE  H11Y 1526   3.122   0.872  11.810 -1.4265  1.3841  0.5192
   12DOPE  C312 1527   3.137   0.991  11.633 -0.0645  0.0494 -0.1247
   12DOPE  H12X 1528   3.174   1.093  11.609  0.9988 -0.4442 -0.6317
   12DOPE  H12Y 1529   3.026   0.996  11.627 -0.3756 -3.9461 -0.5132
   12DOPE  C313 1530   3.186   0.893  11.524 -0.1134  0.4390  0.0249
   12DOPE  H13X 1531   3.297   0.890  11.527  0.0459  3.3059  2.8891
   12DOPE  H13Y 1532   3.144   0.797  11.561  1.3379  0.1213  0.9612
   12DOPE  C314 1533   3.159   0.934  11.386  0.4766 -0.4569  0.4539
   12DOPE  H14X 1534   3.196   1.038  11.372  1.1267 -0.6780  0.5257
   12DOPE  H14Y 1535   3.049   0.939  11.371  0.7429 -0.8716 -2.1451
   12DOPE  C315 1536   3.226   0.836  11.286  0.3937 -0.0591 -0.4317
   12DOPE  H15X 1537   3.225   0.737  11.336  0.8756 -0.5794 -1.4216
   12DOPE  H15Y 1538   3.333   0.866  11.286  0.5566 -0.5536 -1.7730
   12DOPE  C316 1539   3.172   0.840  11.147 -0.1015 -0.0885 -0.1044
   12DOPE  H16X 1540   3.160   0.947  11.121 -0.6324 -0.5497 -1.9042
   12DOPE  H16Y 1541   3.077   0.785  11.130 -0.2437  0.8930 -2.9586
   12DOPE  C317 1542   3.267   0.773  11.046  0.0217 -0.6237 -0.2904
   12DOPE  H17X 1543   3.365   0.826  11.042 -1.1807  1.6855 -1.1688
   12DOPE  H17Y 1544   3.289   0.668  11.074 -0.0109 -1.0153 -1.6633
   12DOPE  C318 1545   3.216   0.780  10.900  0.1720  0.2655 -0.7887
   12DOPE  H18X 1546   3.201   0.882  10.858  0.6084  0.5522 -0.2611
   12DOPE  H18Y 1547   3.286   0.724  10.835 -0.9370 -1.4052 -0.5891
   12DOPE  H18Z 1548   3.117   0.730  10.905 -0.3893  1.4326  0.6686
   13DOPE     N 1549   1.214   3.268  13.595  0.3298 -0.3027  0.4086
   13DOPE   HN1 1550   1.233   3.166  13.598  0.6832 -0.2753 -0.5389
   13DOPE   HN2 1551   1.115   3.295  13.579  0.6543 -0.1467 -1.5232
   13DOPE   HN3 1552   1.280   3.308  13.526 -1.1268  0.8402 -0.3705
   13DOPE   C12 1553   1.246   3.314  13.739  0.4099  0.4189 -0.0410
   13DOPE  H12A 1554   1.344   3.270  13.768 -0.1718 -1.2188 -0.4523
   13DOPE  H12B 1555   1.170   3.264  13.802  1.5323 -0.1365  0.9257
   13DOPE   C11 1556   1.241   3.465  13.752 -0.3730  0.0692  0.0090
   13DOPE  H11A 1557   1.259   3.478  13.861  2.0890 -0.1946 -0.3068
   13DOPE  H11B 1558   1.141   3.504  13.722  0.0837 -0.3573 -2.2262
   13DOPE     P 1559   1.500   3.512  13.726  0.2251 -0.2017  0.1342
   13DOPE   O13 1560   1.576   3.415  13.639  0.1247 -0.1923  0.1353
   13DOPE   O14 1561   1.502   3.494  13.871  0.9276 -0.0478  0.0580
   13DOPE   O11 1562   1.558   3.650  13.684 -0.2533 -0.3885  0.2004
   13DOPE   O12 1563   1.347   3.516  13.675  0.1423  0.1767 -0.0684
   13DOPE    C1 1564   1.487   3.754  13.620  0.0104  0.3666 -0.0382
   13DOPE    HA 1565   1.539   3.851  13.636  1.5210 -0.4709  0.3154
   13DOPE    HB 1566   1.384   3.769  13.657 -0.2386  1.3443 -1.0874
   13DOPE    C2 1567   1.490   3.733  13.466 -0.0176  0.0593  0.1717
   13DOPE    HS 1568   1.479   3.833  13.418 -1.5525 -1.3486 -2.7089
   13DOPE   O21 1569   1.385   3.649  13.420  0.0828 -0.5414  0.0775
   13DOPE   C21 1570   1.261   3.701  13.418 -0.7830 -0.4521  0.3320
   13DOPE   O22 1571   1.228   3.816  13.441 -0.0317 -0.1897 -0.4741
   13DOPE   C22 1572   1.171   3.591  13.359  0.2478  0.0475 -0.0488
   13DOPE   H2R 1573   1.087   3.593  13.432 -0.7666  1.2300 -1.1981
   13DOPE   H2S 1574   1.228   3.496  13.355  0.6154  0.2291  0.6838
   13DOPE    C3 1575   1.622   3.671  13.412  1.0008 -0.2094 -0.0785
   13DOPE    HX 1576   1.648   3.572  13.455  0.6872 -0.1678  0.2040
   13DOPE    HY 1577   1.708   3.727  13.454  0.0596  2.4397 -1.4877
   13DOPE   O31 1578   1.623   3.677  13.265  0.1790 -0.3207  0.4633
   13DOPE   C31 1579   1.592   3.565  13.202  0.1233 -0.2874 -0.4578
   13DOPE   O32 1580   1.579   3.458  13.256  0.1145  0.6014 -0.0379
   13DOPE   C32 1581   1.580   3.591  13.048  0.1320 -1.0314  0.1538
   13DOPE   H2X 1582   1.490   3.655  13.041 -0.3157 -1.7246 -0.5180
   13DOPE   H2Y 1583   1.660   3.659  13.014 -0.3423 -0.2527  0.5609
   13DOPE   C23 1584   1.106   3.640  13.222  0.0476 -0.0756  0.3698
   13DOPE   H3R 1585   1.071   3.745  13.237 -1.0883 -0.3178 -0.5318
   13DOPE   H3S 1586   1.012   3.586  13.202  1.1154 -1.5055 -1.0418
   13DOPE   C24 1587   1.189   3.633  13.093 -0.2860 -0.3890 -0.1147
   13DOPE   H4R 1588   1.208   3.527  13.068 -2.4095 -0.8532  0.0803
   13DOPE   H4S 1589   1.283   3.692  13.104 -0.1970 -0.4298 -0.6460
   13DOPE   C25 1590   1.109   3.690  12.978 -0.6164 -0.2981  0.1217
   13DOPE   H5R 1591   1.107   3.801  12.988  0.2251 -0.1856 -0.8133
   13DOPE   H5S 1592   1.005   3.652  12.985 -0.2263 -1.6248 -0.8754
   13DOPE   C26 1593   1.174   3.654  12.841  0.0439  0.1974 -0.1548
   13DOPE   H6R 1594   1.200   3.546  12.841  0.4953  0.2738 -1.9922
   13DOPE   H6S 1595   1.270   3.709  12.834  0.7628 -0.5469  2.6489
   13DOPE   C27 1596   1.090   3.686  12.721  0.0617 -0.8409  0.1291
   13DOPE   H7R 1597   1.066   3.795  12.725 -1.4317 -1.0987 -1.0884
   13DOPE   H7S 1598   0.992   3.635  12.730 -0.0527 -0.3763  1.9102
   13DOPE   C28 1599   1.142   3.639  12.584 -0.1827 -0.3441 -0.5840
   13DOPE   H8R 1600   1.065   3.667  12.509  0.6506 -1.5633 -1.9490
   13DOPE   H8S 1601   1.143   3.528  12.589  1.9854 -0.3208  1.8751
   13DOPE   C29 1602   1.281   3.665  12.531 -0.3077  0.0608 -0.2374
   13DOPE   H9R 1603   1.353   3.592  12.572  0.4168  1.5100  1.2228
   13DOPE  C210 1604   1.313   3.766  12.447 -0.3261  0.1921 -0.1806
   13DOPE  H10R 1605   1.417   3.780  12.416 -0.2320  0.2454  0.1511
   13DOPE  C211 1606   1.223   3.867  12.387  0.1451 -0.0778  0.1290
   13DOPE  H11R 1607   1.269   3.968  12.393 -0.0539  0.0715 -0.6720
   13DOPE  H11S 1608   1.128   3.874  12.443 -0.4578 -0.7502 -0.7774
   13DOPE  C212 1609   1.198   3.838  12.239  0.4086 -0.2918 -0.0736
   13DOPE  H12R 1610   1.119   3.908  12.202 -1.6701 -0.7066  3.1671
   13DOPE  H12S 1611   1.149   3.739  12.230 -0.1251 -0.0977  0.5896
   13DOPE  C213 1612   1.324   3.849  12.149  0.6835  0.6285 -0.1319
   13DOPE  H13R 1613   1.402   3.778  12.186 -0.9537 -1.5434 -0.6896
   13DOPE  H13S 1614   1.370   3.950  12.137  0.7642  0.4347 -1.5267
   13DOPE  C214 1615   1.282   3.813  12.004 -0.2710  0.3190 -0.5453
   13DOPE  H14R 1616   1.183   3.854  11.976 -0.7742  0.8965  1.8562
   13DOPE  H14S 1617   1.258   3.704  12.013 -0.5403  0.4280  0.1297
   13DOPE  C215 1618   1.389   3.836  11.901  0.0203  0.3042  0.1089
   13DOPE  H15R 1619   1.477   3.785  11.946  0.3092  1.0601  0.4137
   13DOPE  H15S 1620   1.413   3.944  11.900  1.0820  0.0695 -0.8092
   13DOPE  C216 1621   1.355   3.793  11.759  0.0590 -0.4170  0.1525
   13DOPE  H16R 1622   1.445   3.809  11.695 -0.5041  1.7620 -0.1855
   13DOPE  H16S 1623   1.285   3.861  11.705  0.7180 -1.6609 -2.4225
   13DOPE  C217 1624   1.315   3.648  11.744 -0.5756 -0.1687  0.5129
   13DOPE  H17R 1625   1.222   3.638  11.804 -0.0716  2.0569  1.7825
   13DOPE  H17S 1626   1.393   3.584  11.790  2.0519  1.4556 -1.3802
   13DOPE  C218 1627   1.289   3.594  11.604 -0.2764 -0.4825 -0.1276
   13DOPE  H18R 1628   1.209   3.650  11.552  0.9890  0.0208 -1.6349
   13DOPE  H18S 1629   1.268   3.485  11.596  0.6222 -0.8227  1.7259
   13DOPE  H18T 1630   1.373   3.609  11.532  0.1454 -2.3671 -0.0974
   13DOPE   C33 1631   1.557   3.455  12.975 -0.6815 -0.6161  0.0186
   13DOPE   H3X 1632   1.476   3.399  13.026  0.1454 -2.2401 -0.3864
   13DOPE   H3Y 1633   1.653   3.399  12.981  0.2808  1.0576  1.5197
   13DOPE   C34 1634   1.533   3.462  12.822 -0.4033 -0.4863 -0.4440
   13DOPE   H4X 1635   1.439   3.521  12.812  0.0525  1.3254  3.7719
   13DOPE   H4Y 1636   1.609   3.526  12.773  0.2929  2.1610  3.6629
   13DOPE   C35 1637   1.543   3.320  12.759 -0.3996 -0.2897  0.3261
   13DOPE   H5X 1638   1.467   3.258  12.810  0.3896 -2.2630 -0.7655
   13DOPE   H5Y 1639   1.638   3.269  12.783 -1.6413 -1.3380  3.5121
   13DOPE   C36 1640   1.513   3.299  12.609  0.7244 -0.1890 -0.4925
   13DOPE   H6X 1641   1.422   3.356  12.580 -0.2094 -1.7070 -0.6797
   13DOPE   H6Y 1642   1.493   3.192  12.588 -1.3526  0.1064 -0.2814
   13DOPE   C37 1643   1.631   3.341  12.515 -0.0980 -0.6083  0.2160
   13DOPE   H7X 1644   1.661   3.447  12.530 -1.0710 -0.4505  1.2053
   13DOPE   H7Y 1645   1.725   3.285  12.535  0.6329 -0.5534 -2.6414
   13DOPE   C38 1646   1.596   3.324  12.366 -0.1194 -0.0632 -0.2507
   13DOPE   H8X 1647   1.555   3.224  12.340 -0.2933  0.4601 -2.1413
   13DOPE   H8Y 1648   1.692   3.329  12.310  1.3834 -1.4005  2.0535
   13DOPE   C39 1649   1.517   3.442  12.308 -0.4317 -0.0998  0.5350
   13DOPE   H9X 1650   1.565   3.541  12.320 -1.0520 -0.0025  2.5749
   13DOPE  C310 1651   1.412   3.433  12.226  0.6032 -0.3839 -0.4116
   13DOPE  H10X 1652   1.354   3.522  12.199 -1.0396 -1.0339  0.8447
   13DOPE  C311 1653   1.347   3.308  12.175 -0.7134  0.5328  0.7265
   13DOPE  H11X 1654   1.324   3.234  12.255 -1.6127 -2.5529 -2.1409
   13DOPE  H11Y 1655   1.245   3.327  12.136  0.0698 -0.0230 -1.7982
   13DOPE  C312 1656   1.438   3.239  12.069 -0.0748 -0.5609  0.3139
   13DOPE  H12X 1657   1.399   3.137  12.047 -3.0048  0.3864  0.6792
   13DOPE  H12Y 1658   1.542   3.227  12.106  0.4594  0.2354 -0.8742
   13DOPE  C313 1659   1.457   3.317  11.935 -0.9152  0.1026 -0.2707
   13DOPE  H13X 1660   1.355   3.343  11.900 -0.3468  0.8910 -1.3902
   13DOPE  H13Y 1661   1.504   3.415  11.956  0.2381 -0.4910 -0.0242
   13DOPE  C314 1662   1.547   3.243  11.837 -0.5673  0.3359 -0.0492
   13DOPE  H14X 1663   1.519   3.136  11.824 -0.7711  0.2097  1.2453
   13DOPE  H14Y 1664   1.656   3.248  11.862 -0.4228 -0.3248 -0.5318
   13DOPE  C315 1665   1.544   3.309  11.702  0.0424  0.2420 -0.3121
   13DOPE  H15X 1666   1.591   3.408  11.722  0.7495 -0.4361  1.4849
   13DOPE  H15Y 1667   1.435   3.325  11.684  0.2756  0.8479 -1.2814
   13DOPE  C316 1668   1.606   3.233  11.584  0.3007 -0.2760  0.0264
   13DOPE  H16X 1669   1.606   3.123  11.604  1.4351 -0.4383 -0.7389
   13DOPE  H16Y 1670   1.713   3.259  11.572  0.5097 -1.1541 -0.0916
   13DOPE  C317 1671   1.524   3.259  11.450 -0.6947  0.0532  0.3826
   13DOPE  H17X 1672   1.543   3.170  11.387 -1.9407  0.5665 -0.7673
   13DOPE  H17Y 1673   1.415   3.264  11.472 -0.5433  0.3030  1.1089
   13DOPE  C318 1674   1.580   3.389  11.376  0.8452 -0.3019  0.4688
   13DOPE  H18X 1675   1.549   3.466  11.450 -2.3752 -1.5425  0.5698
   13DOPE  H18Y 1676   1.690   3.389  11.366  0.7107  0.1930 -1.2442
   13DOPE  H18Z 1677   1.526   3.408  11.281 -1.3646  1.0205  1.8990
   14DOPE     N 1678   5.245   6.650  13.686  0.1635  0.4661  0.0652
   14DOPE   HN1 1679   5.330   6.657  13.627  0.1322  0.4784  0.0220
   14DOPE   HN2 1680   5.218   6.742  13.726 -1.4923  1.5988 -3.3011
   14DOPE   HN3 1681   5.270   6.575  13.754  0.6363 -0.3889 -1.0126
   14DOPE   C12 1682   5.124   6.591  13.624 -0.0604 -0.5047 -0.5145
   14DOPE  H12A 1683   5.098   6.648  13.532 -0.0816  0.4872  0.0833
   14DOPE  H12B 1684   5.034   6.596  13.689 -0.7953  0.3480 -1.5489
   14DOPE   C11 1685   5.128   6.437  13.604  0.3027 -0.5101  0.8032
   14DOPE  H11A 1686   5.065   6.416  13.515 -0.8985  1.4941  1.1442
   14DOPE  H11B 1687   5.072   6.387  13.686 -0.7957 -1.1756 -0.3204
   14DOPE     P 1688   5.298   6.243  13.568  0.3913  0.1506 -0.2503
   14DOPE   O13 1689   5.205   6.170  13.660  0.1732 -0.1241 -0.1112
   14DOPE   O14 1690   5.445   6.231  13.578 -0.0230  0.6647  0.2824
   14DOPE   O11 1691   5.254   6.221  13.415  0.1220  0.3791 -0.6216
   14DOPE   O12 1692   5.262   6.393  13.589  0.1357  0.1336  0.6189
   14DOPE    C1 1693   5.272   6.315  13.307 -0.0504  0.2513  0.2175
   14DOPE    HA 1694   5.310   6.412  13.346  0.9477 -0.2687  0.5673
   14DOPE    HB 1695   5.170   6.340  13.268  0.2431  0.4023 -0.4676
   14DOPE    C2 1696   5.361   6.255  13.194  0.4633 -0.2814 -0.4771
   14DOPE    HS 1697   5.349   6.328  13.112  1.5188 -0.7319 -1.0551
   14DOPE   O21 1698   5.306   6.129  13.164 -0.1958  1.1182  0.6371
   14DOPE   C21 1699   5.210   6.129  13.072 -0.3668 -0.3647 -0.3429
   14DOPE   O22 1700   5.182   6.216  12.994  0.0295 -0.0966  0.3049
   14DOPE   C22 1701   5.131   5.999  13.079 -0.0733  0.6252 -0.1754
   14DOPE   H2R 1702   5.027   6.020  13.048  0.0245  1.0356 -0.2224
   14DOPE   H2S 1703   5.133   5.978  13.188 -1.3290  2.2852  0.1968
   14DOPE    C3 1704   5.509   6.248  13.218 -0.6160  0.6466 -0.2826
   14DOPE    HX 1705   5.525   6.182  13.306  0.8901  1.7467  0.3112
   14DOPE    HY 1706   5.566   6.342  13.237 -1.3316  0.8079  1.2297
   14DOPE   O31 1707   5.570   6.177  13.104  0.3030  0.0855  0.0068
   14DOPE   C31 1708   5.697   6.129  13.121  1.4288 -0.0393 -0.9369
   14DOPE   O32 1709   5.752   6.134  13.231  0.0633 -0.2653  0.1301
   14DOPE   C32 1710   5.741   6.069  12.999 -0.4579  0.4561 -0.0989
   14DOPE   H2X 1711   5.754   6.144  12.918  2.6667 -0.0656 -0.1781
   14DOPE   H2Y 1712   5.844   6.036  13.024  0.0957  1.0989 -1.4446
   14DOPE   C23 1713   5.211   5.891  13.004  0.2039 -0.3243 -0.5625
   14DOPE   H3R 1714   5.178   5.787  13.024 -1.1054 -0.0438 -1.1507
   14DOPE   H3S 1715   5.317   5.900  13.037  0.4131  0.7801 -1.4626
   14DOPE   C24 1716   5.214   5.923  12.852 -0.2771  0.0702  0.1727
   14DOPE   H4R 1717   5.291   5.999  12.824 -0.4213  1.1864  2.5552
   14DOPE   H4S 1718   5.110   5.946  12.821 -0.9265 -0.3127  1.9676
   14DOPE   C25 1719   5.262   5.797  12.773  0.4778  0.3747 -0.2028
   14DOPE   H5R 1720   5.202   5.712  12.813  1.5659 -0.8972 -1.1760
   14DOPE   H5S 1721   5.368   5.785  12.806  0.9321  0.2124 -1.6665
   14DOPE   C26 1722   5.247   5.834  12.628 -0.9703 -0.9286 -0.6850
   14DOPE   H6R 1723   5.310   5.923  12.605 -0.0931 -1.4237 -0.2710
   14DOPE   H6S 1724   5.143   5.865  12.604 -0.2912  0.9021 -1.4557
   14DOPE   C27 1725   5.288   5.721  12.543 -0.4432  0.8814 -0.6382
   14DOPE   H7R 1726   5.214   5.643  12.571 -1.6772  2.1103 -0.3658
   14DOPE   H7S 1727   5.385   5.683  12.583 -0.9702 -1.1357 -1.1562
   14DOPE   C28 1728   5.304   5.756  12.398  0.4046  0.4790 -1.0700
   14DOPE   H8R 1729   5.377   5.689  12.348 -0.6909  0.8668 -3.3627
   14DOPE   H8S 1730   5.348   5.857  12.409 -1.6180  1.1150  3.4599
   14DOPE   C29 1731   5.172   5.759  12.339  0.0663  0.2563  1.2783
   14DOPE   H9R 1732   5.098   5.816  12.397 -1.3604 -0.0275 -0.2013
   14DOPE  C210 1733   5.147   5.700  12.217 -0.1079  0.2875  0.2904
   14DOPE  H10R 1734   5.045   5.708  12.178 -0.2649 -0.6033  0.4812
   14DOPE  C211 1735   5.241   5.623  12.130 -0.4295  0.1929 -0.0076
   14DOPE  H11R 1736   5.177   5.545  12.085 -0.8359 -0.3016  1.3626
   14DOPE  H11S 1737   5.322   5.578  12.192  0.1272  2.5362  1.0740
   14DOPE  C212 1738   5.299   5.714  12.023  0.4916  0.4304 -0.6746
   14DOPE  H12R 1739   5.384   5.656  11.981 -1.4152 -1.8838 -1.6014
   14DOPE  H12S 1740   5.330   5.808  12.073 -1.9112  0.9776 -0.0903
   14DOPE  C213 1741   5.215   5.744  11.902  0.5864 -0.7280  0.1242
   14DOPE  H13R 1742   5.281   5.809  11.841 -0.2090 -0.1879 -0.1851
   14DOPE  H13S 1743   5.123   5.799  11.932  0.4936 -0.1941 -1.0716
   14DOPE  C214 1744   5.189   5.611  11.824  0.5008 -0.0744 -0.2589
   14DOPE  H14R 1745   5.111   5.547  11.869  1.9381 -1.6947  0.0525
   14DOPE  H14S 1746   5.283   5.553  11.817  0.0928 -1.0128  1.5822
   14DOPE  C215 1747   5.140   5.647  11.677 -0.7019 -0.3101 -0.1395
   14DOPE  H15R 1748   5.217   5.697  11.614 -0.6165 -0.9356 -0.5372
   14DOPE  H15S 1749   5.052   5.714  11.692  0.1572  0.5501  1.3549
   14DOPE  C216 1750   5.101   5.518  11.612  0.4342 -0.6588  0.8881
   14DOPE  H16R 1751   5.021   5.467  11.671 -0.1375  0.2397  0.9138
   14DOPE  H16S 1752   5.189   5.452  11.598 -0.2477 -0.8257 -4.9865
   14DOPE  C217 1753   5.057   5.548  11.472  0.1806  0.6424  0.0355
   14DOPE  H17R 1754   5.149   5.592  11.428  1.7894  0.7483  3.2137
   14DOPE  H17S 1755   4.987   5.633  11.484 -1.4801 -0.7644  0.6999
   14DOPE  C218 1756   5.004   5.438  11.383 -0.0417 -0.3313 -0.4728
   14DOPE  H18R 1757   4.937   5.377  11.448 -1.7545  2.3046  0.3769
   14DOPE  H18S 1758   5.086   5.373  11.346 -1.2353 -1.6688 -0.9041
   14DOPE  H18T 1759   4.947   5.476  11.296 -2.1286 -1.8820  0.1237
   14DOPE   C33 1760   5.658   5.952  12.950  0.1875  0.0027  0.3588
   14DOPE   H3X 1761   5.554   5.976  12.920  0.6127 -1.0351 -2.1801
   14DOPE   H3Y 1762   5.662   5.883  13.037  2.3313 -1.8895 -1.1342
   14DOPE   C34 1763   5.729   5.892  12.825 -0.6470  0.0384 -0.2222
   14DOPE   H4X 1764   5.834   5.884  12.861 -0.9306 -1.2003  0.4126
   14DOPE   H4Y 1765   5.696   5.787  12.806 -2.6332  0.6299 -0.2127
   14DOPE   C35 1766   5.724   5.967  12.693  0.0207  0.2354  0.2752
   14DOPE   H5X 1767   5.813   6.031  12.674 -1.3502  1.6048 -1.9325
   14DOPE   H5Y 1768   5.640   6.039  12.688 -0.7807 -0.6890  0.0146
   14DOPE   C36 1769   5.683   5.886  12.572 -0.1655  0.0726 -0.2397
   14DOPE   H6X 1770   5.578   5.855  12.592  0.2529  0.5107  3.2311
   14DOPE   H6Y 1771   5.758   5.804  12.583 -1.2447 -0.7249  1.7357
   14DOPE   C37 1772   5.705   5.935  12.422  0.2792 -0.3139  0.1198
   14DOPE   H7X 1773   5.627   6.008  12.392  0.6631 -0.3494 -0.9702
   14DOPE   H7Y 1774   5.807   5.977  12.429  0.3660 -0.4141 -0.5208
   14DOPE   C38 1775   5.709   5.808  12.335 -0.9773 -0.1301 -0.2487
   14DOPE   H8X 1776   5.607   5.766  12.343 -0.6503 -0.6204  2.3000
   14DOPE   H8Y 1777   5.773   5.726  12.374  0.2654  0.4090 -1.0692
   14DOPE   C39 1778   5.760   5.848  12.204  0.0225  0.0165 -0.3687
   14DOPE   H9X 1779   5.840   5.922  12.217 -2.2469  2.3076  1.5312
   14DOPE  C310 1780   5.724   5.810  12.080 -0.8301 -0.5793 -0.1002
   14DOPE  H10X 1781   5.769   5.864  11.995 -2.0486 -0.5508 -0.7428
   14DOPE  C311 1782   5.617   5.719  12.023 -1.1548 -0.4308 -0.3516
   14DOPE  H11X 1783   5.555   5.679  12.106 -0.1163  0.6117  0.9580
   14DOPE  H11Y 1784   5.549   5.776  11.956 -0.2403  1.7004  0.4810
   14DOPE  C312 1785   5.674   5.604  11.931  0.0931  0.0287 -0.7647
   14DOPE  H12X 1786   5.588   5.563  11.874 -1.6328  1.6336  0.5342
   14DOPE  H12Y 1787   5.713   5.522  11.995 -1.7829 -1.3828 -1.3596
   14DOPE  C313 1788   5.791   5.629  11.832  0.3482  0.2947  0.5212
   14DOPE  H13X 1789   5.885   5.650  11.888 -0.6063  1.3512  1.7840
   14DOPE  H13Y 1790   5.800   5.533  11.778 -0.3927  1.0203 -0.9557
   14DOPE  C314 1791   5.743   5.723  11.724 -0.2154  0.0193  0.3368
   14DOPE  H14X 1792   5.741   5.825  11.768 -1.2487 -1.0315  2.8776
   14DOPE  H14Y 1793   5.642   5.701  11.685  0.5077 -2.3064 -0.3930
   14DOPE  C315 1794   5.831   5.706  11.605 -0.2129 -0.6334 -0.2230
   14DOPE  H15X 1795   5.835   5.600  11.573 -0.8233 -1.5114  2.3532
   14DOPE  H15Y 1796   5.928   5.746  11.642 -0.4740 -0.4487  0.2662
   14DOPE  C316 1797   5.774   5.799  11.490 -0.7660 -0.1110 -0.3734
   14DOPE  H16X 1798   5.748   5.896  11.536 -0.3699  0.7583 -1.9075
   14DOPE  H16Y 1799   5.678   5.761  11.450 -0.7002 -1.7197  0.8697
   14DOPE  C317 1800   5.878   5.823  11.385 -0.3232 -0.7413  0.7498
   14DOPE  H17X 1801   5.817   5.847  11.295  0.4945 -3.8838 -0.7706
   14DOPE  H17Y 1802   5.940   5.914  11.400 -0.9753 -0.0454 -0.5784
   14DOPE  C318 1803   5.969   5.707  11.341  0.3193  0.0033  0.1390
   14DOPE  H18X 1804   6.010   5.738  11.243 -0.4493  0.1063 -0.1606
   14DOPE  H18Y 1805   6.056   5.709  11.410  1.1469  3.1074 -0.8358
   14DOPE  H18Z 1806   5.911   5.612  11.333  1.9751 -1.1011  0.7627
   15DOPE     N 1807   0.235   5.292  13.733  0.1690 -0.4020 -0.1585
   15DOPE   HN1 1808   0.199   5.387  13.751  0.4061 -0.7749  2.8328
   15DOPE   HN2 1809   0.295   5.281  13.648  1.4998  1.1644  0.5326
   15DOPE   HN3 1810   0.145   5.243  13.713  0.2878 -0.1828 -1.3455
   15DOPE   C12 1811   0.308   5.246  13.855  0.1632 -0.1606 -0.9732
   15DOPE  H12A 1812   0.255   5.300  13.936  1.2805  0.1404 -0.4235
   15DOPE  H12B 1813   0.411   5.282  13.836 -0.0870  1.4499  0.4678
   15DOPE   C11 1814   0.289   5.094  13.882  0.0598  0.2361 -0.4144
   15DOPE  H11A 1815   0.311   5.037  13.789 -1.4551  1.6049 -1.6797
   15DOPE  H11B 1816   0.185   5.067  13.912  0.3545 -0.0635  0.3532
   15DOPE     P 1817   0.461   4.920  13.990 -0.1262  0.0687 -0.5320
   15DOPE   O13 1818   0.365   4.824  14.053 -0.3124 -0.1031 -0.0196
   15DOPE   O14 1819   0.581   4.944  14.072 -0.8935 -0.2299 -0.1681
   15DOPE   O11 1820   0.492   4.873  13.845  0.1083 -0.1930 -0.0362
   15DOPE   O12 1821   0.379   5.056  13.984 -0.0569 -0.4983 -0.4583
   15DOPE    C1 1822   0.586   4.947  13.766 -0.3419  0.0948  0.5225
   15DOPE    HA 1823   0.692   4.919  13.784  0.1413  2.1201  1.0587
   15DOPE    HB 1824   0.569   5.057  13.770 -2.7135 -0.2248  0.5925
   15DOPE    C2 1825   0.577   4.918  13.610  0.5196 -0.6795 -0.4983
   15DOPE    HS 1826   0.489   4.974  13.574  1.1346  2.1784  2.0702
   15DOPE   O21 1827   0.560   4.777  13.594 -0.7916  0.2242  0.7303
   15DOPE   C21 1828   0.443   4.726  13.591 -0.2541  1.0073  0.7842
   15DOPE   O22 1829   0.335   4.778  13.586  0.4208  0.2278  0.0533
   15DOPE   C22 1830   0.460   4.569  13.578 -0.2417 -0.3438 -0.3544
   15DOPE   H2R 1831   0.401   4.525  13.662  1.5028 -0.7696  0.6986
   15DOPE   H2S 1832   0.566   4.541  13.597 -0.5298 -1.7274 -0.6308
   15DOPE    C3 1833   0.703   4.972  13.528 -0.2489  0.3689  0.2424
   15DOPE    HX 1834   0.788   4.950  13.596  0.5489  0.8838 -0.5467
   15DOPE    HY 1835   0.693   5.083  13.520 -0.1374  0.4913  1.6052
   15DOPE   O31 1836   0.715   4.917  13.393 -0.2773 -0.3056 -0.7818
   15DOPE   C31 1837   0.786   4.806  13.381 -0.3566 -0.8489 -0.2362
   15DOPE   O32 1838   0.844   4.748  13.470  0.5707 -0.1899 -0.1516
   15DOPE   C32 1839   0.795   4.770  13.241  0.1951  0.2541 -1.2584
   15DOPE   H2X 1840   0.756   4.859  13.186  1.4073  1.5873 -0.0555
   15DOPE   H2Y 1841   0.903   4.766  13.213  1.0584  0.0828  1.7925
   15DOPE   C23 1842   0.394   4.508  13.450 -0.4463 -0.3623 -0.4071
   15DOPE   H3R 1843   0.432   4.518  13.346  2.1051 -0.2878  0.4507
   15DOPE   H3S 1844   0.298   4.563  13.442  0.4760  1.3089 -0.3733
   15DOPE   C24 1845   0.379   4.358  13.463  0.0395  0.1280 -0.1456
   15DOPE   H4R 1846   0.309   4.334  13.545 -0.6308  1.0548 -0.4249
   15DOPE   H4S 1847   0.477   4.308  13.481 -1.3003 -2.1922  1.1482
   15DOPE   C25 1848   0.347   4.271  13.336  0.2078 -0.3571  0.4864
   15DOPE   H5R 1849   0.423   4.308  13.264 -0.3272  0.6743  0.4266
   15DOPE   H5S 1850   0.243   4.296  13.303  1.2434  1.0797 -1.9819
   15DOPE   C26 1851   0.355   4.124  13.341 -0.4449 -0.4739 -0.1312
   15DOPE   H6R 1852   0.309   4.089  13.436 -1.1579 -1.3687 -0.7896
   15DOPE   H6S 1853   0.464   4.106  13.348  0.1770  2.9099  0.3976
   15DOPE   C27 1854   0.291   4.049  13.224  0.4628  0.9990 -0.8710
   15DOPE   H7R 1855   0.183   4.040  13.248  0.8346  0.6155  0.8374
   15DOPE   H7S 1856   0.319   3.942  13.216  1.3934  1.2043 -0.4876
   15DOPE   C28 1857   0.305   4.115  13.086 -0.0605  0.6265  0.4931
   15DOPE   H8R 1858   0.250   4.211  13.081 -1.4757 -0.1140  1.0729
   15DOPE   H8S 1859   0.261   4.044  13.013  3.1342 -0.7990 -0.2294
   15DOPE   C29 1860   0.454   4.125  13.048 -0.2719  0.5602 -0.5257
   15DOPE   H9R 1861   0.525   4.157  13.125 -1.0769 -0.6202  0.7646
   15DOPE  C210 1862   0.509   4.077  12.945  0.2932  1.0755 -0.4040
   15DOPE  H10R 1863   0.618   4.086  12.932  0.6642 -0.2911  1.3945
   15DOPE  C211 1864   0.457   4.005  12.823 -0.0973 -0.1470  0.0468
   15DOPE  H11R 1865   0.356   3.964  12.844 -0.0232  0.1579  1.0505
   15DOPE  H11S 1866   0.526   3.923  12.793  1.8405  1.3842  0.1453
   15DOPE  C212 1867   0.444   4.112  12.717  0.2987  0.0974 -0.6769
   15DOPE  H12R 1868   0.530   4.178  12.691 -0.1555  1.3919  1.0037
   15DOPE  H12S 1869   0.362   4.180  12.746  0.7805  0.4765 -0.1765
   15DOPE  C213 1870   0.410   4.047  12.578 -0.3388  0.1409 -0.0157
   15DOPE  H13R 1871   0.334   3.966  12.586 -1.9239  1.4033 -1.5040
   15DOPE  H13S 1872   0.500   3.991  12.545  0.1189  0.4013  0.7730
   15DOPE  C214 1873   0.346   4.142  12.475  0.5124 -0.5523 -0.2271
   15DOPE  H14R 1874   0.353   4.250  12.501 -0.9416 -0.4740 -0.0466
   15DOPE  H14S 1875   0.237   4.117  12.477 -0.0248  1.6035  1.5269
   15DOPE  C215 1876   0.395   4.110  12.338  0.0058 -0.0160 -0.3599
   15DOPE  H15R 1877   0.368   4.004  12.317 -2.6720  0.5576 -0.1167
   15DOPE  H15S 1878   0.504   4.131  12.330 -0.5236  3.1941 -0.3068
   15DOPE  C216 1879   0.308   4.202  12.248 -0.6066  0.3356 -0.3650
   15DOPE  H16R 1880   0.344   4.306  12.264  0.3324  0.1619 -1.1761
   15DOPE  H16S 1881   0.204   4.204  12.284 -0.8699 -1.6391 -0.8855
   15DOPE  C217 1882   0.347   4.166  12.101 -0.0675  0.1651  0.1852
   15DOPE  H17R 1883   0.455   4.152  12.081 -0.3192 -2.1715  0.1517
   15DOPE  H17S 1884   0.326   4.259  12.045 -1.9024 -0.0537  0.4520
   15DOPE  C218 1885   0.262   4.049  12.047 -0.0982 -0.3018  0.4671
   15DOPE  H18R 1886   0.284   4.034  11.939 -0.3516 -0.0898  0.3839
   15DOPE  H18S 1887   0.156   4.082  12.047  1.0414  4.1049  0.9373
   15DOPE  H18T 1888   0.268   3.954  12.103  0.5846 -1.6603 -1.7685
   15DOPE   C33 1889   0.720   4.644  13.207  0.1987  0.0454 -0.1063
   15DOPE   H3X 1890   0.612   4.656  13.231  0.4259 -0.6066  1.3601
   15DOPE   H3Y 1891   0.775   4.563  13.260 -0.0208 -0.6300 -0.9002
   15DOPE   C34 1892   0.726   4.632  13.056 -0.8577  0.2040 -0.2610
   15DOPE   H4X 1893   0.673   4.715  13.005 -2.1200  0.3861  1.2741
   15DOPE   H4Y 1894   0.833   4.639  13.027 -0.7454  0.0741  0.1172
   15DOPE   C35 1895   0.673   4.494  13.015 -0.2481  0.6950 -0.3455
   15DOPE   H5X 1896   0.572   4.479  13.059  0.1708 -0.4979  0.2542
   15DOPE   H5Y 1897   0.729   4.409  13.060 -1.0679  0.4517  0.2324
   15DOPE   C36 1898   0.651   4.482  12.867  0.1958 -0.3912  0.0959
   15DOPE   H6X 1899   0.600   4.579  12.853  0.5853 -0.2700 -0.4997
   15DOPE   H6Y 1900   0.588   4.398  12.832  2.0648 -2.8128  2.1323
   15DOPE   C37 1901   0.775   4.504  12.784 -0.3841  0.5439  0.2366
   15DOPE   H7X 1902   0.846   4.575  12.833 -2.8002  4.2638 -1.1598
   15DOPE   H7Y 1903   0.830   4.412  12.754  0.8699  0.8633  1.4286
   15DOPE   C38 1904   0.749   4.581  12.655  0.6428  0.1578 -0.3725
   15DOPE   H8X 1905   0.846   4.615  12.612  1.3630 -1.5555 -0.1918
   15DOPE   H8Y 1906   0.700   4.674  12.690 -0.0691  0.1591 -1.3019
   15DOPE   C39 1907   0.666   4.509  12.551 -0.2019  0.2489 -0.0544
   15DOPE   H9X 1908   0.561   4.492  12.576  0.2092 -2.4973  0.1239
   15DOPE  C310 1909   0.711   4.458  12.431 -0.2841  0.0703 -0.0116
   15DOPE  H10X 1910   0.635   4.423  12.359 -0.7899  1.7729 -0.3399
   15DOPE  C311 1911   0.847   4.486  12.362 -1.0399 -1.2283  0.2749
   15DOPE  H11X 1912   0.906   4.562  12.417 -1.2825  1.8076 -3.2733
   15DOPE  H11Y 1913   0.902   4.391  12.347  1.6552  0.3705 -0.7540
   15DOPE  C312 1914   0.816   4.543  12.223  0.2082  0.4176  0.2580
   15DOPE  H12X 1915   0.907   4.591  12.181  0.6678 -0.7451 -0.1276
   15DOPE  H12Y 1916   0.744   4.627  12.231  0.2277  0.4527  0.0786
   15DOPE  C313 1917   0.770   4.434  12.126 -0.4426 -0.3072  0.4192
   15DOPE  H13X 1918   0.850   4.374  12.077  0.3696  1.6407 -0.7695
   15DOPE  H13Y 1919   0.696   4.362  12.166 -2.7618  2.0829  0.7023
   15DOPE  C314 1920   0.693   4.500  12.012  0.4876 -0.2337 -0.1142
   15DOPE  H14X 1921   0.746   4.584  11.963 -3.2950  1.0706 -2.4254
   15DOPE  H14Y 1922   0.602   4.549  12.050  0.7493 -0.3023  0.6019
   15DOPE  C315 1923   0.632   4.399  11.910 -0.2349  0.2819 -0.6076
   15DOPE  H15X 1924   0.554   4.344  11.967  0.9333 -0.3623  0.4470
   15DOPE  H15Y 1925   0.711   4.327  11.879  1.0371  1.1734  0.4276
   15DOPE  C316 1926   0.564   4.467  11.796  0.1299  0.4524 -0.0720
   15DOPE  H16X 1927   0.637   4.529  11.739  1.0609 -0.5663 -0.0265
   15DOPE  H16Y 1928   0.494   4.539  11.842  0.2797  0.9100 -0.5509
   15DOPE  C317 1929   0.494   4.356  11.718 -0.0060 -0.2739 -0.0264
   15DOPE  H17X 1930   0.414   4.312  11.782 -1.6662  0.8344 -1.2711
   15DOPE  H17Y 1931   0.431   4.393  11.634 -0.9719 -1.5097  0.1179
   15DOPE  C318 1932   0.575   4.236  11.664 -0.3869 -0.1766 -0.8155
   15DOPE  H18X 1933   0.663   4.275  11.609  0.4566  0.1676  0.7157
   15DOPE  H18Y 1934   0.621   4.171  11.741  0.2226  1.1454 -0.0392
   15DOPE  H18Z 1935   0.513   4.171  11.599 -1.1701 -1.1889  0.8686
   16DOPE     N 1936   6.291   5.311  13.574  0.4492 -0.1788  0.0152
   16DOPE   HN1 1937   6.386   5.270  13.563 -0.6195 -3.2411  1.2367
   16DOPE   HN2 1938   6.218   5.237  13.576 -1.2449  1.4146  1.2687
   16DOPE   HN3 1939   6.285   5.374  13.492  0.5835 -2.5263 -1.9023
   16DOPE   C12 1940   6.291   5.406  13.687  0.4162  0.0149 -0.2339
   16DOPE  H12A 1941   6.306   5.349  13.781 -0.9687 -0.6317 -0.3723
   16DOPE  H12B 1942   6.192   5.455  13.689  0.5464  0.2754  1.6912
   16DOPE   C11 1943   6.394   5.526  13.672  0.5086  1.0996 -0.4685
   16DOPE  H11A 1944   6.381   5.609  13.745  4.2446  0.3374  1.3134
   16DOPE  H11B 1945   6.377   5.560  13.568  0.5731 -1.0965 -1.2455
   16DOPE     P 1946   6.651   5.563  13.664 -0.3829 -0.0673  0.2889
   16DOPE   O13 1947   6.767   5.491  13.728 -0.1335  0.0495 -0.3948
   16DOPE   O14 1948   6.628   5.696  13.718 -0.0278 -0.6702  0.0214
   16DOPE   O11 1949   6.663   5.582  13.509 -0.1985  0.0582 -0.2859
   16DOPE   O12 1950   6.530   5.471  13.691  0.5367  0.1171  0.3703
   16DOPE    C1 1951   6.652   5.471  13.417 -0.4738 -0.5874  0.4780
   16DOPE    HA 1952   6.552   5.424  13.425 -1.7790  1.9477  0.3635
   16DOPE    HB 1953   6.714   5.387  13.454 -1.1370 -0.0565  2.9962
   16DOPE    C2 1954   6.698   5.506  13.277 -0.8464 -0.6205 -0.3164
   16DOPE    HS 1955   6.789   5.570  13.281 -1.6299  0.5271 -0.7093
   16DOPE   O21 1956   6.592   5.565  13.205  0.1817  0.0664 -0.3017
   16DOPE   C21 1957   6.583   5.693  13.221 -0.5998  0.8858 -0.0292
   16DOPE   O22 1958   6.651   5.762  13.290 -0.2106 -0.2400  0.2210
   16DOPE   C22 1959   6.464   5.744  13.136  0.4583 -0.5171  0.2422
   16DOPE   H2R 1960   6.376   5.755  13.202 -0.2309  2.1032 -0.9685
   16DOPE   H2S 1961   6.431   5.663  13.068  0.7629  1.0571 -1.8888
   16DOPE    C3 1962   6.740   5.377  13.198 -1.2327 -0.1748  0.1936
   16DOPE    HX 1963   6.656   5.304  13.194 -0.4115 -1.1164 -0.2723
   16DOPE    HY 1964   6.818   5.331  13.263 -2.3785 -0.9893  1.0280
   16DOPE   O31 1965   6.793   5.417  13.069  0.3645  0.5568 -0.3202
   16DOPE   C31 1966   6.920   5.436  13.060  0.0869 -0.9244  0.1961
   16DOPE   O32 1967   6.998   5.450  13.151 -0.3551  0.4829  0.0648
   16DOPE   C32 1968   6.947   5.435  12.916 -0.2916  0.7047  0.4433
   16DOPE   H2X 1969   6.905   5.345  12.867  1.7204  0.7309 -1.5171
   16DOPE   H2Y 1970   6.908   5.531  12.876  0.5330  0.7952 -0.1761
   16DOPE   C23 1971   6.469   5.888  13.063 -0.4818  0.5210 -1.0089
   16DOPE   H3R 1972   6.540   5.951  13.122  0.7416  0.3866 -2.2782
   16DOPE   H3S 1973   6.368   5.933  13.053 -1.0648 -0.6378 -0.5297
   16DOPE   C24 1974   6.510   5.865  12.916  0.2003  0.1072 -0.0387
   16DOPE   H4R 1975   6.427   5.817  12.861  0.7398 -1.0403  0.1357
   16DOPE   H4S 1976   6.602   5.803  12.920 -0.5886 -1.0732  0.2859
   16DOPE   C25 1977   6.520   5.995  12.841  0.0777 -0.0400 -0.2643
   16DOPE   H5R 1978   6.572   6.066  12.908  0.9578 -0.2548 -0.7028
   16DOPE   H5S 1979   6.416   6.029  12.821 -1.3186 -3.6979  0.0573
   16DOPE   C26 1980   6.601   5.990  12.711 -1.3998 -0.1555  0.7608
   16DOPE   H6R 1981   6.706   5.964  12.732 -1.3170  1.2707  2.2649
   16DOPE   H6S 1982   6.607   6.096  12.677 -1.1659 -0.4559 -0.1677
   16DOPE   C27 1983   6.534   5.918  12.593 -0.0787  0.1665  0.3351
   16DOPE   H7R 1984   6.434   5.962  12.573 -0.1884  1.0551  2.5006
   16DOPE   H7S 1985   6.529   5.813  12.630 -1.0616  0.9126  2.5141
   16DOPE   C28 1986   6.613   5.911  12.456 -0.4488  0.1115 -0.8299
   16DOPE   H8R 1987   6.547   5.856  12.385 -2.3145  0.7611  0.3089
   16DOPE   H8S 1988   6.705   5.850  12.468 -1.3665 -1.6125 -2.0328
   16DOPE   C29 1989   6.649   6.054  12.408 -1.2042  0.5162  0.1088
   16DOPE   H9R 1990   6.716   6.114  12.470  1.7049 -2.1912 -0.1953
   16DOPE  C210 1991   6.599   6.120  12.302 -0.2155 -0.6248  0.3722
   16DOPE  H10R 1992   6.647   6.218  12.287  0.7246 -0.8445  1.7742
   16DOPE  C211 1993   6.503   6.067  12.199  0.6485  0.6415  0.2884
   16DOPE  H11R 1994   6.409   6.124  12.184  1.0928  2.0214  2.3092
   16DOPE  H11S 1995   6.468   5.962  12.212 -0.3133  0.4300 -3.0928
   16DOPE  C212 1996   6.567   6.058  12.054 -0.0556  0.4093 -0.0243
   16DOPE  H12R 1997   6.521   5.999  11.971 -0.4364  1.9280 -0.9493
   16DOPE  H12S 1998   6.672   6.024  12.053 -0.0076  0.5587 -0.6463
   16DOPE  C213 1999   6.558   6.198  11.983  0.3093 -0.1372 -0.1801
   16DOPE  H13R 2000   6.580   6.280  12.055 -0.4183  0.0934 -0.2199
   16DOPE  H13S 2001   6.453   6.204  11.949 -0.1429 -0.7121  1.0976
   16DOPE  C214 2002   6.649   6.214  11.860  0.1080 -0.5784 -0.0556
   16DOPE  H14R 2003   6.754   6.241  11.885  0.3378  1.2868 -2.6518
   16DOPE  H14S 2004   6.615   6.308  11.812  1.0004  0.0005  0.4181
   16DOPE  C215 2005   6.636   6.102  11.761 -0.5105  0.8316 -0.4277
   16DOPE  H15R 2006   6.526   6.097  11.749 -0.6650  1.6756  0.4914
   16DOPE  H15S 2007   6.683   6.007  11.794 -0.7606  0.9511  0.2918
   16DOPE  C216 2008   6.695   6.137  11.622  0.2335  0.0741 -0.0174
   16DOPE  H16R 2009   6.656   6.239  11.600 -0.8843 -0.0291  1.3594
   16DOPE  H16S 2010   6.649   6.069  11.547  2.0884 -1.7215  0.3758
   16DOPE  C217 2011   6.848   6.137  11.597  0.1591  0.6548 -0.4236
   16DOPE  H17R 2012   6.878   6.029  11.599 -0.2733  0.4898  3.0807
   16DOPE  H17S 2013   6.898   6.189  11.681  0.9009 -0.7187  0.0321
   16DOPE  C218 2014   6.887   6.202  11.465  0.3370 -0.4005 -0.3905
   16DOPE  H18R 2015   6.856   6.309  11.472  1.9992  0.0494  0.8688
   16DOPE  H18S 2016   6.842   6.157  11.374 -0.2243  1.9502 -1.3394
   16DOPE  H18T 2017   6.998   6.203  11.456  0.3403  0.3727 -0.3595
   16DOPE   C33 2018   7.096   5.443  12.865 -0.5946  0.5776  0.4741
   16DOPE   H3X 2019   7.159   5.364  12.910 -0.0458  1.0817  0.6036
   16DOPE   H3Y 2020   7.138   5.542  12.895  2.4339 -0.7080  0.8624
   16DOPE   C34 2021   7.098   5.443  12.710  0.5951 -0.4426 -0.5605
   16DOPE   H4X 2022   7.068   5.339  12.684  0.2487 -0.1269 -1.4823
   16DOPE   H4Y 2023   7.018   5.512  12.679  1.2989  0.9371  0.5923
   16DOPE   C35 2024   7.242   5.462  12.659  0.1642 -0.4853 -0.5526
   16DOPE   H5X 2025   7.306   5.395  12.720 -0.2931 -1.7568 -1.4480
   16DOPE   H5Y 2026   7.279   5.562  12.691 -0.1063 -0.5584 -0.0029
   16DOPE   C36 2027   7.261   5.436  12.510 -0.4750  0.3400 -0.7024
   16DOPE   H6X 2028   7.237   5.330  12.488 -0.7484 -0.0186  1.1810
   16DOPE   H6Y 2029   7.371   5.449  12.502 -0.1486 -2.1702 -0.8534
   16DOPE   C37 2030   7.186   5.536  12.419 -0.4102 -1.2217 -0.2802
   16DOPE   H7X 2031   7.082   5.539  12.460 -0.3514 -0.8268 -0.1578
   16DOPE   H7Y 2032   7.227   5.638  12.433 -0.8331 -1.3280  2.4099
   16DOPE   C38 2033   7.155   5.473  12.275  0.1429 -0.2758  0.5464
   16DOPE   H8X 2034   7.087   5.545  12.226 -0.3659 -0.5828  0.7941
   16DOPE   H8Y 2035   7.090   5.382  12.280 -0.5039  0.1954  0.8188
   16DOPE   C39 2036   7.276   5.458  12.186 -0.2656  0.6670  0.5113
   16DOPE   H9X 2037   7.376   5.431  12.225  1.3972  0.9589 -3.1072
   16DOPE  C310 2038   7.284   5.491  12.052  0.3805 -0.1288  0.2542
   16DOPE  H10X 2039   7.381   5.479  12.001  1.1239 -2.3184  2.0283
   16DOPE  C311 2040   7.166   5.528  11.971 -0.2599 -0.0904 -0.6298
   16DOPE  H11X 2041   7.072   5.477  12.000  1.0554 -1.2134  2.0177
   16DOPE  H11Y 2042   7.143   5.636  11.977  0.7671  0.1606 -1.0101
   16DOPE  C312 2043   7.178   5.489  11.821 -0.4093  0.7336  0.2273
   16DOPE  H12X 2044   7.254   5.544  11.762 -0.5761  2.4928  1.5667
   16DOPE  H12Y 2045   7.077   5.520  11.786  0.1985  1.2656 -1.1293
   16DOPE  C313 2046   7.201   5.336  11.803  0.3057 -0.5034 -0.1488
   16DOPE  H13X 2047   7.278   5.299  11.875  0.0880  2.8625  2.0390
   16DOPE  H13Y 2048   7.109   5.277  11.826 -0.2964  0.2602 -0.5583
   16DOPE  C314 2049   7.223   5.298  11.653 -0.0859  0.0151  0.2455
   16DOPE  H14X 2050   7.154   5.366  11.599 -1.9684  0.7402  3.2745
   16DOPE  H14Y 2051   7.192   5.193  11.637 -0.1256  0.2035 -1.0185
   16DOPE  C315 2052   7.368   5.314  11.604  0.3687 -0.2717 -0.5018
   16DOPE  H15X 2053   7.422   5.253  11.680  0.1711  0.9325  0.6187
   16DOPE  H15Y 2054   7.402   5.419  11.608 -0.4011 -0.0591  1.0930
   16DOPE  C316 2055   7.383   5.254  11.465 -0.2075 -0.2419 -0.2087
   16DOPE  H16X 2056   7.324   5.161  11.452  0.3481 -0.5024 -0.9305
   16DOPE  H16Y 2057   7.487   5.221  11.444 -0.3035  0.2615 -1.5354
   16DOPE  C317 2058   7.358   5.349  11.346  0.1792 -0.2612  0.1828
   16DOPE  H17X 2059   7.343   5.277  11.262 -0.8812 -1.3513  1.2651
   16DOPE  H17Y 2060   7.266   5.410  11.362  1.7389  1.9430  1.1572
   16DOPE  C318 2061   7.475   5.445  11.319 -0.3651  0.0548 -0.1137
   16DOPE  H18X 2062   7.570   5.389  11.305 -0.6704 -0.7680  0.9683
   16DOPE  H18Y 2063   7.470   5.506  11.226 -0.1030  1.0178  0.4997
   16DOPE  H18Z 2064   7.478   5.524  11.396  0.1981  1.2227 -1.2988
   17DOPE     N 2065   1.278   1.203  13.783  0.1632 -0.8281 -0.0773
   17DOPE   HN1 2066   1.287   1.200  13.887 -0.3627 -1.8122 -0.0485
   17DOPE   HN2 2067   1.286   1.110  13.738  0.6914  0.0056 -1.7960
   17DOPE   HN3 2068   1.351   1.272  13.755  1.2874 -1.0688  2.0371
   17DOPE   C12 2069   1.155   1.268  13.741 -0.0601  0.2282  0.4237
   17DOPE  H12A 2070   1.148   1.371  13.783 -0.2198 -0.5861  2.5593
   17DOPE  H12B 2071   1.069   1.203  13.768  0.0803 -0.2595 -0.2885
   17DOPE   C11 2072   1.161   1.290  13.590 -0.3225 -0.1011  0.1653
   17DOPE  H11A 2073   1.065   1.330  13.550  0.1547  0.0838 -0.8275
   17DOPE  H11B 2074   1.191   1.201  13.532 -0.9143  0.1821 -0.5876
   17DOPE     P 2075   1.322   1.430  13.428 -0.1255  0.0848  0.4146
   17DOPE   O13 2076   1.395   1.552  13.446 -0.4529 -0.4636  0.0013
   17DOPE   O14 2077   1.211   1.441  13.331 -0.4398  0.3235 -0.3779
   17DOPE   O11 2078   1.429   1.319  13.388 -0.5794 -0.2134  0.5530
   17DOPE   O12 2079   1.267   1.389  13.569 -0.2410  0.9546  0.2989
   17DOPE    C1 2080   1.400   1.204  13.313 -0.8683 -0.3860  0.5644
   17DOPE    HA 2081   1.291   1.191  13.298 -0.9444  0.5923  0.2152
   17DOPE    HB 2082   1.434   1.118  13.375  1.5597  1.0165  1.3085
   17DOPE    C2 2083   1.459   1.202  13.173  0.2024  0.2223  0.2029
   17DOPE    HS 2084   1.453   1.103  13.122  0.6454  1.2712 -2.0465
   17DOPE   O21 2085   1.589   1.253  13.172  0.3746 -0.1756  0.0890
   17DOPE   C21 2086   1.678   1.185  13.225 -0.3012  0.4008 -0.0775
   17DOPE   O22 2087   1.671   1.070  13.258  0.1161 -0.1547 -0.5445
   17DOPE   C22 2088   1.802   1.268  13.245  0.4647 -0.1879  0.6983
   17DOPE   H2R 2089   1.820   1.272  13.355 -1.0322  0.8362  0.9457
   17DOPE   H2S 2090   1.785   1.374  13.217 -0.5081 -0.5480 -0.1372
   17DOPE    C3 2091   1.368   1.284  13.078  0.5677  0.3696  0.1309
   17DOPE    HX 2092   1.379   1.392  13.099 -2.3092  0.4523  1.7122
   17DOPE    HY 2093   1.264   1.259  13.108  0.4675 -1.4901 -1.5232
   17DOPE   O31 2094   1.381   1.243  12.939 -0.1813 -0.2812 -0.1076
   17DOPE   C31 2095   1.313   1.141  12.893 -0.3755  0.5223  0.1075
   17DOPE   O32 2096   1.241   1.065  12.957  0.2969 -0.1470 -0.1147
   17DOPE   C32 2097   1.316   1.147  12.739 -0.3095  0.1150 -0.0189
   17DOPE   H2X 2098   1.296   1.252  12.707  2.3469  0.4299 -0.8835
   17DOPE   H2Y 2099   1.422   1.127  12.713  0.4830 -1.0668  3.5661
   17DOPE   C23 2100   1.926   1.208  13.177 -0.1548  0.5590 -0.1838
   17DOPE   H3R 2101   1.951   1.103  13.204 -0.5079  0.2095 -1.1426
   17DOPE   H3S 2102   2.007   1.278  13.207 -0.6878  1.0131  0.2041
   17DOPE   C24 2103   1.908   1.202  13.029 -0.7294 -0.0972 -0.6505
   17DOPE   H4R 2104   2.008   1.233  12.991 -0.2094  2.0611  2.1231
   17DOPE   H4S 2105   1.842   1.280  12.988  0.4365  1.3238  0.0643
   17DOPE   C25 2106   1.864   1.068  12.975 -0.0041 -0.5911 -0.1422
   17DOPE   H5R 2107   1.754   1.060  12.988 -0.2287 -0.2886 -1.7043
   17DOPE   H5S 2108   1.900   0.979  13.031  0.4631 -0.6953 -0.6055
   17DOPE   C26 2109   1.886   1.037  12.828 -0.0847 -0.6531 -0.1478
   17DOPE   H6R 2110   1.834   0.946  12.790 -2.5142  1.7475 -3.0740
   17DOPE   H6S 2111   1.997   1.027  12.826  0.0062  0.1965  0.4066
   17DOPE   C27 2112   1.847   1.150  12.729  0.1902 -0.4994  0.0861
   17DOPE   H7R 2113   1.894   1.246  12.761  0.5540  0.1733 -2.2486
   17DOPE   H7S 2114   1.739   1.178  12.730  0.4533  1.5922 -4.3399
   17DOPE   C28 2115   1.893   1.134  12.581 -0.6792 -0.0505 -0.3614
   17DOPE   H8R 2116   1.842   1.220  12.532 -1.9659 -0.5815 -0.0180
   17DOPE   H8S 2117   1.853   1.036  12.545 -1.6501  0.2422 -0.1198
   17DOPE   C29 2118   2.046   1.126  12.563 -0.0714 -0.7269  0.6330
   17DOPE   H9R 2119   2.106   1.135  12.655 -0.4387 -1.0895  0.9130
   17DOPE  C210 2120   2.111   1.147  12.448  0.6035 -0.1921 -0.0095
   17DOPE  H10R 2121   2.221   1.147  12.442  0.6047  2.2272 -1.9577
   17DOPE  C211 2122   2.042   1.165  12.314 -0.2533 -0.1372 -0.5625
   17DOPE  H11R 2123   2.070   1.266  12.277 -1.6223  1.3069  2.0826
   17DOPE  H11S 2124   1.932   1.168  12.322 -0.1386 -0.1088  2.3183
   17DOPE  C212 2125   2.079   1.042  12.217  0.1175  0.0642  0.1035
   17DOPE  H12R 2126   2.040   0.948  12.263  2.0436 -1.4857 -1.2777
   17DOPE  H12S 2127   2.188   1.027  12.199  0.8008 -0.8971  4.1929
   17DOPE  C213 2128   2.005   1.059  12.085  0.1273 -0.2161  0.8757
   17DOPE  H13R 2129   2.043   1.153  12.040  1.7063  0.0435  2.6274
   17DOPE  H13S 2130   1.898   1.073  12.112 -1.1411 -3.3604 -1.8505
   17DOPE  C214 2131   2.032   0.942  11.991  0.0626  0.5596  0.4007
   17DOPE  H14R 2132   1.997   0.849  12.040 -0.3273  1.9348  2.9301
   17DOPE  H14S 2133   2.142   0.934  11.976  0.1856  1.1456  0.9238
   17DOPE  C215 2134   1.957   0.959  11.859 -0.4012  0.6904 -0.3418
   17DOPE  H15R 2135   1.999   1.054  11.819  0.0484 -0.2282 -2.1564
   17DOPE  H15S 2136   1.850   0.964  11.888 -0.8281 -0.7201 -1.5760
   17DOPE  C216 2137   1.987   0.846  11.758  0.4652 -0.3692 -0.1905
   17DOPE  H16R 2138   1.966   0.750  11.810  1.9272  0.1382  1.4261
   17DOPE  H16S 2139   2.093   0.855  11.727  0.7223 -1.1833  0.4191
   17DOPE  C217 2140   1.903   0.868  11.636  0.8827  0.2746 -0.4762
   17DOPE  H17R 2141   1.916   0.974  11.607  0.3102  0.5198  0.1417
   17DOPE  H17S 2142   1.793   0.865  11.655  1.2494 -0.3539  1.8219
   17DOPE  C218 2143   1.948   0.776  11.518  0.1255 -0.2850 -1.1818
   17DOPE  H18R 2144   1.884   0.686  11.514  0.7398 -0.6968 -1.8518
   17DOPE  H18S 2145   2.051   0.740  11.538 -1.0495 -3.3696  0.0216
   17DOPE  H18T 2146   1.952   0.838  11.426 -0.3116 -2.4540 -2.7354
   17DOPE   C33 2147   1.218   1.045  12.677 -0.4470  0.3329 -0.1723
   17DOPE   H3X 2148   1.124   1.103  12.693 -0.8696 -0.6979  1.3091
   17DOPE   H3Y 2149   1.214   0.941  12.717  0.6403  1.0731  1.9623
   17DOPE   C34 2150   1.242   1.013  12.528 -1.0747  0.1129 -0.0589
   17DOPE   H4X 2151   1.167   0.940  12.491 -2.2795  1.3463 -0.1212
   17DOPE   H4Y 2152   1.228   1.104  12.466 -2.7665  0.3152  0.5792
   17DOPE   C35 2153   1.375   0.953  12.478 -0.0236  0.1606 -0.8793
   17DOPE   H5X 2154   1.370   0.844  12.500 -0.0985  0.2745 -0.2985
   17DOPE   H5Y 2155   1.465   0.985  12.534 -0.9629 -0.1392  0.9033
   17DOPE   C36 2156   1.402   0.975  12.324  0.7068 -0.7833  0.1996
   17DOPE   H6X 2157   1.502   0.933  12.299  0.4407 -1.1597 -0.2346
   17DOPE   H6Y 2158   1.406   1.085  12.306 -1.2047 -0.7072  0.0532
   17DOPE   C37 2159   1.290   0.923  12.238  0.5227  0.2261 -0.0803
   17DOPE   H7X 2160   1.292   0.813  12.222 -2.0103  0.5176 -3.8096
   17DOPE   H7Y 2161   1.194   0.945  12.287  0.6921  0.2446  0.2449
   17DOPE   C38 2162   1.304   0.992  12.096 -0.0869  0.4547 -0.8319
   17DOPE   H8X 2163   1.411   0.982  12.065  0.0429 -2.9691  0.3332
   17DOPE   H8Y 2164   1.285   1.102  12.101 -3.4026 -0.1055  1.6459
   17DOPE   C39 2165   1.208   0.928  12.008  0.3137  0.3561  0.5095
   17DOPE   H9X 2166   1.116   0.906  12.063 -3.6989  4.5404 -3.5977
   17DOPE  C310 2167   1.235   0.878  11.886  0.3127  0.0001 -0.0063
   17DOPE  H10X 2168   1.154   0.829  11.830  0.5556 -0.0965 -0.2728
   17DOPE  C311 2169   1.363   0.898  11.811 -0.8361  0.4458  0.1207
   17DOPE  H11X 2170   1.439   0.951  11.873 -0.5787  0.6821 -0.3955
   17DOPE  H11Y 2171   1.412   0.802  11.784 -3.0034 -0.2021 -1.7141
   17DOPE  C312 2172   1.350   0.971  11.684  0.3273 -0.3025  0.0838
   17DOPE  H12X 2173   1.358   1.081  11.696 -1.3782 -0.1555  0.1151
   17DOPE  H12Y 2174   1.246   0.951  11.649 -0.3371 -1.5241  2.5109
   17DOPE  C313 2175   1.465   0.936  11.582  0.3428 -0.3142 -0.0758
   17DOPE  H13X 2176   1.560   0.977  11.624  0.3248 -1.4121  1.0938
   17DOPE  H13Y 2177   1.475   0.826  11.573 -0.5805 -0.3110 -1.3968
   17DOPE  C314 2178   1.438   1.012  11.455  0.2204  0.1519  0.6666
   17DOPE  H14X 2179   1.441   1.120  11.483 -0.3345  0.6899 -1.1959
   17DOPE  H14Y 2180   1.336   0.991  11.416 -0.7058  2.2306  1.8141
   17DOPE  C315 2181   1.554   0.991  11.356  0.3017 -0.7687 -0.1518
   17DOPE  H15X 2182   1.645   1.023  11.412 -1.0720  1.8328  0.7627
   17DOPE  H15Y 2183   1.544   1.073  11.281 -1.5775 -0.1658  0.6946
   17DOPE  C316 2184   1.578   0.850  11.305  0.0863 -0.3608 -0.4985
   17DOPE  H16X 2185   1.473   0.823  11.283 -0.5458  1.5587 -0.0897
   17DOPE  H16Y 2186   1.609   0.782  11.387  0.8900 -0.2796 -0.7279
   17DOPE  C317 2187   1.668   0.841  11.179 -0.7237 -0.3700 -0.2002
   17DOPE  H17X 2188   1.633   0.906  11.097  1.1582  3.2553  1.6236
   17DOPE  H17Y 2189   1.771   0.879  11.198 -0.6453 -1.1331  1.0304
   17DOPE  C318 2190   1.679   0.700  11.129 -0.3044 -0.1660 -0.0462
   17DOPE  H18X 2191   1.736   0.686  11.035 -1.3650 -0.2874 -0.6862
   17DOPE  H18Y 2192   1.734   0.639  11.204  0.0784  0.6486  0.3538
   17DOPE  H18Z 2193   1.573   0.669  11.122 -0.8054  1.6868 -1.4916
   18DOPE     N 2194   5.938   4.649  13.860  0.3204  0.0487  0.4548
   18DOPE   HN1 2195   5.995   4.604  13.934  1.8853 -0.2475 -0.8766
   18DOPE   HN2 2196   5.871   4.719  13.897 -1.7659 -1.8355  0.4666
   18DOPE   HN3 2197   5.873   4.573  13.831 -1.8440  1.5767  1.0609
   18DOPE   C12 2198   6.028   4.694  13.740  0.9054  0.7954 -0.5234
   18DOPE  H12A 2199   6.029   4.606  13.672 -1.3236  0.3368 -0.0504
   18DOPE  H12B 2200   6.133   4.701  13.774  1.0400 -1.8910 -0.1509
   18DOPE   C11 2201   5.985   4.825  13.673  0.1239 -0.4527  0.3626
   18DOPE  H11A 2202   5.886   4.822  13.621  0.0730 -1.3640  0.4929
   18DOPE  H11B 2203   6.061   4.848  13.596 -0.1426 -0.4422  0.0977
   18DOPE     P 2204   6.084   5.032  13.799  0.0299  0.1691 -0.2369
   18DOPE   O13 2205   6.209   4.956  13.817  0.3223 -0.3250  0.3580
   18DOPE   O14 2206   6.031   5.103  13.916  0.0617 -0.1330 -0.5293
   18DOPE   O11 2207   6.097   5.130  13.674 -0.0308 -0.2484 -0.1711
   18DOPE   O12 2208   5.976   4.920  13.774  0.5993 -0.2402 -0.3463
   18DOPE    C1 2209   5.973   5.166  13.607  1.0360 -0.3294 -0.3642
   18DOPE    HA 2210   5.946   5.272  13.630  0.8366 -0.3830 -0.3503
   18DOPE    HB 2211   5.883   5.109  13.637  0.4241  1.4368  1.4496
   18DOPE    C2 2212   5.978   5.149  13.446 -0.1367  0.7714 -0.0726
   18DOPE    HS 2213   5.950   5.043  13.426  0.4314  0.1495  2.1845
   18DOPE   O21 2214   6.115   5.171  13.404  0.0365 -0.2144  0.4188
   18DOPE   C21 2215   6.163   5.081  13.315  0.3584 -0.4593  0.3457
   18DOPE   O22 2216   6.100   5.002  13.251 -0.3351  0.0477 -0.8729
   18DOPE   C22 2217   6.314   5.079  13.312  0.3443 -0.2057 -0.2278
   18DOPE   H2R 2218   6.337   4.986  13.369  0.1150 -1.4706 -2.0988
   18DOPE   H2S 2219   6.352   5.171  13.361 -0.5810 -0.9822  2.0878
   18DOPE    C3 2220   5.877   5.245  13.382  0.0760  0.1029 -0.1931
   18DOPE    HX 2221   5.920   5.347  13.394 -0.7593  0.7507 -2.2007
   18DOPE    HY 2222   5.784   5.253  13.442  0.5236  1.4890  0.3552
   18DOPE   O31 2223   5.861   5.224  13.237  0.2152  0.4060  0.3753
   18DOPE   C31 2224   5.783   5.114  13.209 -0.1258  0.2399 -0.2813
   18DOPE   O32 2225   5.724   5.049  13.296  0.2457 -0.5036  0.2638
   18DOPE   C32 2226   5.780   5.078  13.060  0.1282  0.2277 -0.4742
   18DOPE   H2X 2227   5.697   5.012  13.028  0.1212  0.1495 -0.2933
   18DOPE   H2Y 2228   5.762   5.180  13.021  3.4307  0.5486 -1.4775
   18DOPE   C23 2229   6.369   5.060  13.171 -0.1324  0.5187  0.7070
   18DOPE   H3R 2230   6.316   4.976  13.123  2.3154 -0.1665 -0.9624
   18DOPE   H3S 2231   6.473   5.022  13.169  0.1027  1.1505  0.5506
   18DOPE   C24 2232   6.366   5.190  13.088  0.3298 -0.3386 -0.2297
   18DOPE   H4R 2233   6.417   5.272  13.144  0.0044  0.9664 -1.7960
   18DOPE   H4S 2234   6.264   5.231  13.073 -0.3222 -1.3285  1.1979
   18DOPE   C25 2235   6.429   5.185  12.955 -0.0379  0.7052 -0.0341
   18DOPE   H5R 2236   6.390   5.093  12.908  2.8173 -0.5942 -0.0841
   18DOPE   H5S 2237   6.540   5.182  12.962 -0.1088  0.9876  1.5881
   18DOPE   C26 2238   6.404   5.321  12.877 -0.2670  0.3344  0.1270
   18DOPE   H6R 2239   6.354   5.397  12.939 -0.6417  1.9274 -2.0137
   18DOPE   H6S 2240   6.343   5.313  12.784 -0.7311 -0.5082  0.4925
   18DOPE   C27 2241   6.542   5.387  12.830 -0.2804 -0.3565  0.0349
   18DOPE   H7R 2242   6.597   5.314  12.768 -2.4256  0.2848 -2.8554
   18DOPE   H7S 2243   6.596   5.416  12.923 -1.2095  0.3605  0.3753
   18DOPE   C28 2244   6.521   5.518  12.744 -0.4049 -0.0118 -0.0235
   18DOPE   H8R 2245   6.457   5.579  12.811  0.5584 -0.2077  1.1182
   18DOPE   H8S 2246   6.465   5.492  12.652  3.2411 -2.1744 -1.8822
   18DOPE   C29 2247   6.652   5.586  12.711  0.2015  0.3403 -0.8786
   18DOPE   H9R 2248   6.680   5.667  12.780 -0.2875  0.0754 -0.3557
   18DOPE  C210 2249   6.733   5.557  12.608  0.5406  0.1917  0.6247
   18DOPE  H10R 2250   6.814   5.628  12.585  1.1771 -0.4449  0.8793
   18DOPE  C211 2251   6.707   5.444  12.507  0.3304 -0.1518  0.3855
   18DOPE  H11R 2252   6.630   5.368  12.534 -0.0321 -0.5707 -1.6815
   18DOPE  H11S 2253   6.796   5.379  12.496 -1.4720 -2.6601 -0.0837
   18DOPE  C212 2254   6.665   5.492  12.374  0.4821 -0.1853 -0.3437
   18DOPE  H12R 2255   6.578   5.561  12.382 -1.7774 -2.9973  1.0199
   18DOPE  H12S 2256   6.634   5.406  12.311 -2.5557 -1.1825  2.2725
   18DOPE  C213 2257   6.770   5.578  12.306 -0.0760  0.4466 -0.1353
   18DOPE  H13R 2258   6.866   5.528  12.281  2.0943  4.5665 -0.9627
   18DOPE  H13S 2259   6.804   5.647  12.386 -1.4721 -0.4245  1.2581
   18DOPE  C214 2260   6.719   5.650  12.176 -0.4538  0.8225 -0.6810
   18DOPE  H14R 2261   6.766   5.750  12.166  0.7128  0.3791  0.1616
   18DOPE  H14S 2262   6.608   5.652  12.173 -0.6136 -2.5399 -0.9759
   18DOPE  C215 2263   6.771   5.581  12.047  0.9157 -0.1037 -0.1470
   18DOPE  H15R 2264   6.740   5.475  12.051  2.0230 -0.4350 -0.0279
   18DOPE  H15S 2265   6.881   5.588  12.037  0.7460  0.3791 -2.3688
   18DOPE  C216 2266   6.710   5.646  11.926  0.2887  0.3912  0.7546
   18DOPE  H16R 2267   6.730   5.755  11.919 -0.3038  0.4735  0.2748
   18DOPE  H16S 2268   6.601   5.632  11.942  0.5502 -1.7306  0.9689
   18DOPE  C217 2269   6.751   5.593  11.783 -0.7436 -0.6826 -0.4179
   18DOPE  H17R 2270   6.862   5.598  11.778 -0.7780  0.3271 -0.5249
   18DOPE  H17S 2271   6.718   5.653  11.695  1.7855  2.8085  0.7672
   18DOPE  C218 2272   6.715   5.449  11.752  0.1822 -0.6374 -0.3154
   18DOPE  H18R 2273   6.710   5.388  11.844  0.5974 -1.6172 -0.9233
   18DOPE  H18S 2274   6.789   5.410  11.678  0.9006 -1.3255  0.7374
   18DOPE  H18T 2275   6.614   5.441  11.706 -0.2365  1.0088  0.2404
   18DOPE   C33 2276   5.914   5.033  12.993 -0.6011  0.1374 -0.3382
   18DOPE   H3X 2277   5.937   4.925  12.990 -0.7532  0.0357  1.1784
   18DOPE   H3Y 2278   5.996   5.085  13.048 -1.7591  3.4103 -1.4611
   18DOPE   C34 2279   5.932   5.081  12.850 -0.5804 -0.5233 -0.0484
   18DOPE   H4X 2280   5.878   5.004  12.790  0.2141 -2.1565  1.2658
   18DOPE   H4Y 2281   5.885   5.178  12.822  1.3626  0.4781 -0.0795
   18DOPE   C35 2282   6.080   5.078  12.811 -0.0829  0.5984  0.1953
   18DOPE   H5X 2283   6.122   4.978  12.835 -0.9017  1.0761  4.4345
   18DOPE   H5Y 2284   6.146   5.145  12.870  0.1719  1.3812 -0.9380
   18DOPE   C36 2285   6.101   5.111  12.661  0.3847  0.0545  0.1226
   18DOPE   H6X 2286   6.117   5.219  12.642  1.7828 -0.3243 -1.0215
   18DOPE   H6Y 2287   6.001   5.085  12.621  0.4967  0.7460 -0.6370
   18DOPE   C37 2288   6.206   5.018  12.603 -0.9291 -0.2153 -0.4116
   18DOPE   H7X 2289   6.302   5.039  12.655 -1.3578  1.6656 -0.3112
   18DOPE   H7Y 2290   6.168   4.916  12.626  0.9796 -0.7381  0.6493
   18DOPE   C38 2291   6.234   5.050  12.459  0.8586 -0.4711  0.1496
   18DOPE   H8X 2292   6.236   5.161  12.446  1.1358 -0.5548 -0.5247
   18DOPE   H8Y 2293   6.155   5.005  12.397  3.1758 -1.5731 -2.1882
   18DOPE   C39 2294   6.365   4.995  12.406 -0.0472  0.6731  0.0173
   18DOPE   H9X 2295   6.399   4.898  12.447  2.5868  0.4122 -2.3762
   18DOPE  C310 2296   6.448   5.049  12.314  0.1401  0.9543  0.2490
   18DOPE  H10X 2297   6.529   4.987  12.273 -0.9454  0.0498 -0.5904
   18DOPE  C311 2298   6.420   5.171  12.230  0.3174 -0.1251  0.2826
   18DOPE  H11X 2299   6.312   5.192  12.244  0.0040 -0.9877 -0.7382
   18DOPE  H11Y 2300   6.467   5.262  12.273 -0.3867 -0.6432  2.2495
   18DOPE  C312 2301   6.449   5.156  12.076 -0.3785  0.3730 -0.4927
   18DOPE  H12X 2302   6.556   5.167  12.046 -0.0273  0.9519  0.8924
   18DOPE  H12Y 2303   6.390   5.235  12.024 -2.4585  0.4534  1.8247
   18DOPE  C313 2304   6.386   5.026  12.017  0.0569 -0.5607 -0.3839
   18DOPE  H13X 2305   6.435   4.938  12.064 -2.2854 -1.1450  1.1178
   18DOPE  H13Y 2306   6.284   5.030  12.061  0.8278  0.7147  1.3797
   18DOPE  C314 2307   6.388   5.024  11.863  0.1790  0.0662  0.0673
   18DOPE  H14X 2308   6.489   4.988  11.834 -0.4200  1.4912 -4.5253
   18DOPE  H14Y 2309   6.383   5.128  11.824 -0.3671 -0.9244 -2.7091
   18DOPE  C315 2310   6.277   4.933  11.801  0.1641 -0.0952 -0.1437
   18DOPE  H15X 2311   6.177   4.980  11.814 -0.5530 -1.7532  0.5882
   18DOPE  H15Y 2312   6.285   4.831  11.844 -0.6444  0.4182  1.2780
   18DOPE  C316 2313   6.296   4.911  11.647 -0.1431  0.6788 -0.0618
   18DOPE  H16X 2314   6.380   4.841  11.628 -0.3592 -0.7401  3.4047
   18DOPE  H16Y 2315   6.316   5.008  11.597  2.5542  0.2087 -0.0165
   18DOPE  C317 2316   6.174   4.839  11.585  0.3110 -0.2382 -0.1039
   18DOPE  H17X 2317   6.178   4.731  11.612 -0.9396 -0.3272 -0.2422
   18DOPE  H17Y 2318   6.080   4.875  11.632  0.9248  0.5319  0.5679
   18DOPE  C318 2319   6.169   4.836  11.437  1.0012  0.0640  0.1276
   18DOPE  H18X 2320   6.265   4.786  11.410 -0.0866 -1.8354 -0.3736
   18DOPE  H18Y 2321   6.090   4.772  11.392 -0.0039  0.9526  0.5985
   18DOPE  H18Z 2322   6.164   4.940  11.399 -1.6082  0.2278  0.7528
   19DOPE     N 2323   6.338   6.165  13.567  0.1967  0.2317 -0.2728
   19DOPE   HN1 2324   6.234   6.153  13.561 -0.1548  1.9460  1.4534
   19DOPE   HN2 2325   6.344   6.252  13.623 -0.7715 -1.3693  2.5391
   19DOPE   HN3 2326   6.375   6.191  13.474 -0.8488 -0.4013 -0.8962
   19DOPE   C12 2327   6.406   6.047  13.631 -0.7428 -0.3670 -0.4092
   19DOPE  H12A 2328   6.390   6.061  13.741 -0.5331 -0.6212 -0.3447
   19DOPE  H12B 2329   6.516   6.060  13.624 -0.6525 -1.9601 -2.7249
   19DOPE   C11 2330   6.360   5.919  13.565 -0.3661 -0.1255  0.3220
   19DOPE  H11A 2331   6.395   5.834  13.627 -1.0467 -0.8728 -0.2919
   19DOPE  H11B 2332   6.399   5.897  13.463 -0.4200  1.1880 -0.0026
   19DOPE     P 2333   6.136   5.790  13.518  0.0194 -0.4947  0.2065
   19DOPE   O13 2334   6.082   5.728  13.642  0.6889 -0.5984  0.6396
   19DOPE   O14 2335   6.207   5.695  13.431 -0.3399 -0.6587  0.2244
   19DOPE   O11 2336   6.012   5.847  13.428 -0.7487  0.5763 -0.6987
   19DOPE   O12 2337   6.219   5.920  13.555 -0.0451 -0.3230 -0.2048
   19DOPE    C1 2338   6.041   5.907  13.304  0.5720  0.0451  0.1957
   19DOPE    HA 2339   6.137   5.964  13.307  0.5690  0.0854 -0.3216
   19DOPE    HB 2340   5.956   5.972  13.274 -0.2027 -0.3064  1.5635
   19DOPE    C2 2341   6.053   5.810  13.184 -0.3902 -0.2277  0.0036
   19DOPE    HS 2342   6.150   5.756  13.188  0.1925  0.8184  0.6347
   19DOPE   O21 2343   6.042   5.889  13.064 -0.6248 -0.5493 -0.3366
   19DOPE   C21 2344   6.119   5.854  12.956  0.7305 -0.3057  0.6150
   19DOPE   O22 2345   6.179   5.749  12.951  0.2139 -0.0566 -0.4101
   19DOPE   C22 2346   6.117   5.972  12.860 -0.1399  0.4579  0.1691
   19DOPE   H2R 2347   6.184   6.053  12.894  0.8647  0.0393 -0.7375
   19DOPE   H2S 2348   6.010   6.001  12.849 -0.2323  0.0526 -0.0096
   19DOPE    C3 2349   5.943   5.706  13.196  0.0263 -0.3358 -0.3817
   19DOPE    HX 2350   5.848   5.765  13.199 -0.4337 -0.7608 -3.6565
   19DOPE    HY 2351   5.954   5.651  13.292 -1.9909 -0.3147 -0.0867
   19DOPE   O31 2352   5.926   5.624  13.083  0.3658 -0.1328 -0.1738
   19DOPE   C31 2353   6.006   5.519  13.072 -0.4496  0.0848 -0.2984
   19DOPE   O32 2354   6.086   5.482  13.156  0.4629 -0.8463  0.0944
   19DOPE   C32 2355   5.989   5.445  12.933 -0.3913  0.5071  0.4692
   19DOPE   H2X 2356   6.093   5.413  12.915 -0.4292  0.7626 -0.2145
   19DOPE   H2Y 2357   5.921   5.358  12.941 -1.7750  1.3886 -1.0175
   19DOPE   C23 2358   6.166   5.935  12.722  0.4684 -0.3470  0.1262
   19DOPE   H3R 2359   6.101   5.855  12.680 -2.1737  0.7085  1.9381
   19DOPE   H3S 2360   6.270   5.898  12.731  0.7235  0.2948 -0.1099
   19DOPE   C24 2361   6.145   6.047  12.612  0.1094  0.3806  0.2030
   19DOPE   H4R 2362   6.232   6.115  12.622 -0.4455  1.1715 -0.2434
   19DOPE   H4S 2363   6.049   6.102  12.628  1.6364  2.8931  1.2712
   19DOPE   C25 2364   6.154   5.990  12.467 -0.5945  0.1931 -0.0035
   19DOPE   H5R 2365   6.077   5.915  12.441  0.4106 -0.0616 -2.4801
   19DOPE   H5S 2366   6.257   5.955  12.445  0.6254  3.8164 -0.6337
   19DOPE   C26 2367   6.139   6.108  12.368 -0.1064 -0.1543 -0.0447
   19DOPE   H6R 2368   6.214   6.188  12.387 -1.2570  0.5299  1.7967
   19DOPE   H6S 2369   6.042   6.155  12.395  0.2383 -0.1514  1.2380
   19DOPE   C27 2370   6.123   6.063  12.222  0.1208  0.3573  0.4524
   19DOPE   H7R 2371   6.043   5.986  12.230  2.7605 -2.5674  0.9993
   19DOPE   H7S 2372   6.218   6.009  12.205 -0.3267 -0.8920  1.7142
   19DOPE   C28 2373   6.088   6.175  12.121  0.3981  0.5345  0.0128
   19DOPE   H8R 2374   6.119   6.125  12.026  2.3140 -0.9668  1.3313
   19DOPE   H8S 2375   6.171   6.246  12.140  1.9708 -0.6569 -1.9048
   19DOPE   C29 2376   5.958   6.244  12.137  0.0467 -0.2780 -0.7325
   19DOPE   H9R 2377   5.933   6.289  12.234 -1.3006  2.1199 -2.0835
   19DOPE  C210 2378   5.860   6.253  12.048  0.0235 -0.0560  0.2758
   19DOPE  H10R 2379   5.771   6.313  12.069 -1.3248 -2.3932  1.5992
   19DOPE  C211 2380   5.873   6.191  11.912  0.5614  0.1718  0.2424
   19DOPE  H11R 2381   5.781   6.134  11.886  0.7534  0.0886 -0.2703
   19DOPE  H11S 2382   5.953   6.114  11.903  0.5628  0.2545 -0.5204
   19DOPE  C212 2383   5.895   6.290  11.791 -0.4843 -0.0480  0.6318
   19DOPE  H12R 2384   6.001   6.319  11.775  0.0117 -2.0433 -0.0408
   19DOPE  H12S 2385   5.850   6.390  11.812  2.1731  0.9749  1.8649
   19DOPE  C213 2386   5.830   6.239  11.663 -0.6313  0.7184 -0.4840
   19DOPE  H13R 2387   5.719   6.249  11.671 -0.8799  2.1549 -3.9533
   19DOPE  H13S 2388   5.847   6.130  11.665  0.4218  0.8400 -1.8089
   19DOPE  C214 2389   5.877   6.294  11.530 -0.5700 -1.2595 -0.5523
   19DOPE  H14R 2390   5.986   6.277  11.515 -0.4260  0.6365 -2.0832
   19DOPE  H14S 2391   5.850   6.402  11.535 -2.3739 -1.6394 -1.3751
   19DOPE  C215 2392   5.799   6.239  11.414  0.4538 -0.6125 -0.0829
   19DOPE  H15R 2393   5.695   6.277  11.422  1.3666  2.3104 -0.9462
   19DOPE  H15S 2394   5.801   6.128  11.415  0.5687 -0.6158  1.2946
   19DOPE  C216 2395   5.853   6.289  11.278  0.4019 -0.2619  0.5077
   19DOPE  H16R 2396   5.956   6.249  11.269 -0.5945 -2.8029 -0.8603
   19DOPE  H16S 2397   5.850   6.400  11.273  1.1259 -0.1973  1.3632
   19DOPE  C217 2398   5.772   6.226  11.160 -0.6302  0.0202  0.3932
   19DOPE  H17R 2399   5.666   6.259  11.170 -0.2636  0.6779  2.9235
   19DOPE  H17S 2400   5.782   6.117  11.173  2.0169 -0.0311 -1.4372
   19DOPE  C218 2401   5.831   6.275  11.027  0.0409 -0.2970 -0.0086
   19DOPE  H18R 2402   5.868   6.379  11.042  0.0458 -0.6284  2.6525
   19DOPE  H18S 2403   5.760   6.288  10.943  1.3266  2.0144 -0.8365
   19DOPE  H18T 2404   5.923   6.215  11.007 -0.9529 -1.5072 -1.0960
   19DOPE   C33 2405   5.929   5.545  12.825 -0.5344  0.6537 -0.0147
   19DOPE   H3X 2406   5.974   5.643  12.850  1.4195 -0.1589 -0.1335
   19DOPE   H3Y 2407   5.819   5.548  12.842 -0.4156 -1.5413  1.6454
   19DOPE   C34 2408   5.970   5.522  12.682  1.0382 -0.1846 -0.2572
   19DOPE   H4X 2409   5.937   5.423  12.646 -0.6212  0.8518 -1.7347
   19DOPE   H4Y 2410   5.912   5.591  12.617 -1.1598 -2.0685 -0.3832
   19DOPE   C35 2411   6.123   5.532  12.649 -0.1206  0.1568  0.4214
   19DOPE   H5X 2412   6.188   5.471  12.715 -0.6160  0.5874  1.3258
   19DOPE   H5Y 2413   6.147   5.639  12.670  1.6925  0.0293 -0.7392
   19DOPE   C36 2414   6.169   5.497  12.511 -0.4771  0.0457  0.5386
   19DOPE   H6X 2415   6.153   5.388  12.499 -0.4946 -0.2269  2.7360
   19DOPE   H6Y 2416   6.276   5.525  12.496 -0.6128  1.0662  1.3599
   19DOPE   C37 2417   6.089   5.572  12.397  0.6917 -0.5460  1.0393
   19DOPE   H7X 2418   5.983   5.541  12.393  1.2815 -2.5610 -0.7916
   19DOPE   H7Y 2419   6.087   5.680  12.422 -1.4001  0.1951 -1.8400
   19DOPE   C38 2420   6.159   5.562  12.261  0.3206 -0.9937  0.3125
   19DOPE   H8X 2421   6.156   5.455  12.234 -2.8721 -0.4272 -2.0780
   19DOPE   H8Y 2422   6.265   5.597  12.263  1.1316 -3.2959  0.1753
   19DOPE   C39 2423   6.082   5.643  12.159 -0.4889  0.1562 -0.7946
   19DOPE   H9X 2424   5.976   5.659  12.183 -0.1194 -0.6363  1.6173
   19DOPE  C310 2425   6.116   5.678  12.039 -0.8227 -0.3010 -0.3688
   19DOPE  H10X 2426   6.045   5.746  11.989 -1.5548 -0.8420 -0.0752
   19DOPE  C311 2427   6.254   5.661  11.987  0.5119 -0.5535  0.0025
   19DOPE  H11X 2428   6.336   5.632  12.056  0.1720 -1.3903  0.0726
   19DOPE  H11Y 2429   6.247   5.574  11.919  0.3721 -0.9289  0.4847
   19DOPE  C312 2430   6.305   5.775  11.905 -0.0700 -0.1802  0.8180
   19DOPE  H12X 2431   6.414   5.763  11.887  0.4434  2.0343  2.0417
   19DOPE  H12Y 2432   6.290   5.869  11.962 -3.0449 -0.4518  0.6372
   19DOPE  C313 2433   6.237   5.783  11.774 -0.1152  0.5203  0.6412
   19DOPE  H13X 2434   6.224   5.679  11.737  1.0134  0.2291  1.0285
   19DOPE  H13Y 2435   6.134   5.822  11.788 -0.0415  0.8577  0.2381
   19DOPE  C314 2436   6.307   5.870  11.674 -0.3378 -0.8810  0.0733
   19DOPE  H14X 2437   6.389   5.815  11.622 -0.0131  0.6748 -1.1690
   19DOPE  H14Y 2438   6.350   5.957  11.728  0.9042 -1.4695  0.0679
   19DOPE  C315 2439   6.211   5.939  11.577 -0.3545  0.1234 -0.0267
   19DOPE  H15X 2440   6.159   6.020  11.632  0.8128 -0.2252  1.6524
   19DOPE  H15Y 2441   6.146   5.853  11.551 -0.4663  0.8401 -2.4407
   19DOPE  C316 2442   6.288   5.996  11.459 -0.2490 -0.2879 -0.4982
   19DOPE  H16X 2443   6.374   5.933  11.428 -0.4774 -0.9904  0.2479
   19DOPE  H16Y 2444   6.323   6.098  11.487 -0.9628  0.9165 -3.6050
   19DOPE  C317 2445   6.198   6.018  11.345  0.0152 -0.6931 -0.2713
   19DOPE  H17X 2446   6.139   5.924  11.332  0.5750 -1.5617  2.7778
   19DOPE  H17Y 2447   6.126   6.097  11.374  1.6443  0.8231 -0.2197
   19DOPE  C318 2448   6.260   6.043  11.213 -1.2421 -0.5331  0.1458
   19DOPE  H18X 2449   6.186   6.063  11.133  0.9115  0.4103 -1.7154
   19DOPE  H18Y 2450   6.328   6.130  11.208  0.3358 -1.6888  0.5250
   19DOPE  H18Z 2451   6.331   5.964  11.180 -0.9236  0.1601 -0.8564
   20DOPE     N 2452   2.998   2.337  13.836  0.3450  0.0872 -0.3677
   20DOPE   HN1 2453   3.055   2.421  13.818  0.3214  1.2134  3.8488
   20DOPE   HN2 2454   2.898   2.363  13.847 -0.1564 -1.4602 -0.9832
   20DOPE   HN3 2455   3.036   2.281  13.914 -0.2476  1.1714  0.7279
   20DOPE   C12 2456   3.005   2.252  13.713  0.0302 -0.4967  1.0191
   20DOPE  H12A 2457   2.960   2.310  13.631  0.1194 -0.9661  0.6343
   20DOPE  H12B 2458   2.947   2.161  13.739 -0.1922 -0.4730  0.6045
   20DOPE   C11 2459   3.148   2.221  13.666  0.1344 -0.4831  0.1618
   20DOPE  H11A 2460   3.205   2.306  13.621  0.7491 -1.3504 -0.7307
   20DOPE  H11B 2461   3.146   2.145  13.585  0.6976  1.5935 -1.9388
   20DOPE     P 2462   3.370   2.118  13.762  0.0774 -0.0224  0.0956
   20DOPE   O13 2463   3.415   2.033  13.875  0.4210  0.4963  0.1433
   20DOPE   O14 2464   3.439   2.247  13.753 -0.5044 -0.5169  0.2078
   20DOPE   O11 2465   3.373   2.037  13.626  0.0709  0.2718 -0.0876
   20DOPE   O12 2466   3.214   2.162  13.779  0.1823  0.6295  0.2202
   20DOPE    C1 2467   3.437   1.913  13.601  0.4069 -0.5969 -0.7852
   20DOPE    HA 2468   3.363   1.831  13.596  0.5808 -0.9961  1.9248
   20DOPE    HB 2469   3.507   1.889  13.684  2.3001  1.0604 -1.8065
   20DOPE    C2 2470   3.517   1.901  13.464  0.2731  0.5245  0.5806
   20DOPE    HS 2471   3.621   1.939  13.472  0.9493 -1.1649  0.3206
   20DOPE   O21 2472   3.452   1.989  13.370  0.1449  0.1634  0.1921
   20DOPE   C21 2473   3.339   1.948  13.319 -0.1268  0.6017 -0.0533
   20DOPE   O22 2474   3.277   1.844  13.341  0.6299 -0.7550 -0.8123
   20DOPE   C22 2475   3.294   2.049  13.207 -0.1946  0.0840 -0.2284
   20DOPE   H2R 2476   3.346   2.145  13.226 -1.5359  0.5322  1.4144
   20DOPE   H2S 2477   3.183   2.056  13.213 -0.1545  2.4366 -1.3217
   20DOPE    C3 2478   3.527   1.750  13.427 -0.1646 -0.4601  0.4926
   20DOPE    HX 2479   3.429   1.702  13.450  0.1204  0.2908  3.7186
   20DOPE    HY 2480   3.611   1.704  13.484  2.0287  1.1733 -1.2586
   20DOPE   O31 2481   3.552   1.734  13.284  0.2910  0.4323  0.9408
   20DOPE   C31 2482   3.679   1.749  13.250 -0.1992 -0.7553 -0.2950
   20DOPE   O32 2483   3.767   1.790  13.321 -0.1847 -0.5316 -0.1918
   20DOPE   C32 2484   3.696   1.704  13.106 -0.2678 -0.4285 -0.1951
   20DOPE   H2X 2485   3.674   1.595  13.098 -1.4103 -0.1842 -0.5396
   20DOPE   H2Y 2486   3.622   1.755  13.041  0.6147  1.8265  0.4774
   20DOPE   C23 2487   3.330   1.990  13.069 -1.1247  0.4850  0.1176
   20DOPE   H3R 2488   3.437   1.962  13.059 -1.2682 -0.0639  0.0582
   20DOPE   H3S 2489   3.317   2.066  12.989  0.6044  0.9371  0.2320
   20DOPE   C24 2490   3.254   1.858  13.037 -0.1547  0.5417  0.9340
   20DOPE   H4R 2491   3.143   1.865  13.047 -0.4153 -1.1462 -0.3198
   20DOPE   H4S 2492   3.276   1.786  13.118 -1.5031  0.0698  0.8997
   20DOPE   C25 2493   3.297   1.796  12.903 -0.4862  0.4817  0.2939
   20DOPE   H5R 2494   3.235   1.704  12.896 -0.6544  0.6517 -0.5619
   20DOPE   H5S 2495   3.407   1.786  12.899 -0.2697  1.7291  1.9442
   20DOPE   C26 2496   3.264   1.885  12.777 -0.2218  0.0526 -0.2319
   20DOPE   H6R 2497   3.294   1.991  12.791  0.8631 -0.5824  3.0453
   20DOPE   H6S 2498   3.154   1.892  12.765 -0.1770  1.7807  0.1047
   20DOPE   C27 2499   3.313   1.822  12.652 -0.2639  0.3352  0.2541
   20DOPE   H7R 2500   3.273   1.719  12.644 -1.1819  0.7135 -0.2792
   20DOPE   H7S 2501   3.423   1.811  12.658 -0.0120  1.1938 -1.8154
   20DOPE   C28 2502   3.289   1.894  12.523 -0.3601 -0.7641  0.9221
   20DOPE   H8R 2503   3.315   2.000  12.543  1.9677 -0.9606 -0.6393
   20DOPE   H8S 2504   3.187   1.884  12.481  0.6464 -1.5584 -1.5038
   20DOPE   C29 2505   3.382   1.839  12.408 -0.6054 -0.2201 -0.5923
   20DOPE   H9R 2506   3.472   1.796  12.455 -0.5640  1.3640  0.8881
   20DOPE  C210 2507   3.355   1.834  12.278 -0.0777  1.0505  0.6938
   20DOPE  H10R 2508   3.429   1.793  12.209 -0.4661  1.9364 -0.2694
   20DOPE  C211 2509   3.230   1.885  12.209 -0.0410 -0.3224  0.1275
   20DOPE  H11R 2510   3.180   1.949  12.286  3.7579  1.8015  1.0805
   20DOPE  H11S 2511   3.162   1.810  12.164  0.1102 -0.0926 -0.4904
   20DOPE  C212 2512   3.259   1.992  12.100 -0.1203  0.3267  0.2093
   20DOPE  H12R 2513   3.305   2.086  12.139 -2.7887  1.1829  1.6354
   20DOPE  H12S 2514   3.160   2.036  12.075  0.2850  0.3943 -1.3303
   20DOPE  C213 2515   3.325   1.925  11.979 -0.4337  0.5380 -0.2283
   20DOPE  H13R 2516   3.287   1.822  11.968  1.5351 -0.1904 -0.5986
   20DOPE  H13S 2517   3.435   1.923  11.995 -0.4349  0.6285 -0.2061
   20DOPE  C214 2518   3.299   2.007  11.855 -0.2371  0.2546 -0.6878
   20DOPE  H14R 2519   3.352   2.105  11.859  1.0058 -0.3892  3.7369
   20DOPE  H14S 2520   3.190   2.027  11.848 -0.6293 -1.6857 -0.7122
   20DOPE  C215 2521   3.340   1.935  11.725 -0.7519  0.4933 -0.1016
   20DOPE  H15R 2522   3.311   2.006  11.645 -0.3264  0.0330 -0.6764
   20DOPE  H15S 2523   3.274   1.845  11.727  1.4626 -1.2311 -0.0364
   20DOPE  C216 2524   3.480   1.888  11.725 -0.3991  0.5510 -0.0893
   20DOPE  H16R 2525   3.498   1.815  11.806 -0.7970  0.6310  0.0737
   20DOPE  H16S 2526   3.558   1.964  11.750  0.9208 -0.5570 -0.6790
   20DOPE  C217 2527   3.525   1.834  11.588  0.5491 -0.3221  0.1419
   20DOPE  H17R 2528   3.626   1.790  11.602  0.2749 -0.9051  0.3730
   20DOPE  H17S 2529   3.529   1.912  11.510  1.4700 -0.6123 -0.1126
   20DOPE  C218 2530   3.438   1.729  11.533 -0.4170  0.0062 -0.4588
   20DOPE  H18R 2531   3.479   1.671  11.449  0.5691  0.3234 -0.2126
   20DOPE  H18S 2532   3.342   1.762  11.486 -0.3816  1.6779  0.5412
   20DOPE  H18T 2533   3.403   1.662  11.615 -0.3533 -0.6041 -0.9318
   20DOPE   C33 2534   3.845   1.732  13.069 -0.1631  0.4253  0.2077
   20DOPE   H3X 2535   3.911   1.665  13.128 -0.8299 -0.2248  0.2347
   20DOPE   H3Y 2536   3.871   1.839  13.086  1.7165 -0.3783  3.1247
   20DOPE   C34 2537   3.862   1.693  12.925 -0.7573 -0.3378  0.2106
   20DOPE   H4X 2538   3.969   1.697  12.898 -0.4714 -0.8840  1.1950
   20DOPE   H4Y 2539   3.837   1.584  12.923  3.0634 -1.3474 -2.3939
   20DOPE   C35 2540   3.788   1.772  12.821  0.1554 -0.0362 -0.0864
   20DOPE   H5X 2541   3.817   1.877  12.841 -0.3234  0.1781 -0.4785
   20DOPE   H5Y 2542   3.679   1.748  12.828  0.4740 -1.8299 -0.5440
   20DOPE   C36 2543   3.837   1.758  12.672 -0.7614  0.3494 -0.2030
   20DOPE   H6X 2544   3.943   1.729  12.688 -0.4505  0.2237 -2.2928
   20DOPE   H6Y 2545   3.820   1.850  12.614 -1.1004 -0.3920 -1.3025
   20DOPE   C37 2546   3.764   1.643  12.597 -0.5757  0.0230  0.4704
   20DOPE   H7X 2547   3.792   1.549  12.649 -0.1693  0.4131  0.9648
   20DOPE   H7Y 2548   3.657   1.665  12.616 -1.2952 -0.7079 -2.2476
   20DOPE   C38 2549   3.790   1.636  12.450 -0.9213  0.2107 -0.2105
   20DOPE   H8X 2550   3.735   1.546  12.414 -0.5735 -0.5582  1.1211
   20DOPE   H8Y 2551   3.899   1.623  12.435 -1.0959 -1.7285 -0.0561
   20DOPE   C39 2552   3.746   1.755  12.372 -0.4166 -0.2055 -0.2610
   20DOPE   H9X 2553   3.731   1.846  12.432  0.1010 -0.8599  0.8890
   20DOPE  C310 2554   3.724   1.765  12.237  0.3425  0.7809  0.9525
   20DOPE  H10X 2555   3.708   1.863  12.190  0.5720 -0.0872 -1.0903
   20DOPE  C311 2556   3.732   1.650  12.134  0.3476 -0.2797  0.1238
   20DOPE  H11X 2557   3.740   1.548  12.177 -2.0888 -1.2607 -1.5677
   20DOPE  H11Y 2558   3.642   1.641  12.069 -0.4824  0.4724  1.1437
   20DOPE  C312 2559   3.847   1.665  12.029  0.3697 -0.0614 -0.1870
   20DOPE  H12X 2560   3.842   1.574  11.966 -4.1566  0.8975 -1.5647
   20DOPE  H12Y 2561   3.942   1.670  12.087  1.2467  1.1139 -1.6350
   20DOPE  C313 2562   3.859   1.789  11.944  0.4295 -0.0482  0.4718
   20DOPE  H13X 2563   3.767   1.809  11.884  0.0669  0.5061  1.2077
   20DOPE  H13Y 2564   3.876   1.875  12.012  2.6269 -1.0087  1.2429
   20DOPE  C314 2565   3.984   1.785  11.849  1.3005  0.0749  0.3090
   20DOPE  H14X 2566   3.962   1.714  11.767  0.7673  0.9888 -0.3655
   20DOPE  H14Y 2567   4.066   1.748  11.914  2.1918  1.7434  0.1905
   20DOPE  C315 2568   4.041   1.916  11.788  0.6327 -0.0508  0.0842
   20DOPE  H15X 2569   4.151   1.919  11.772  0.8546  0.8135  1.5327
   20DOPE  H15Y 2570   4.032   1.991  11.870  0.9659  0.1422 -0.0567
   20DOPE  C316 2571   3.968   1.968  11.661  0.2653  0.3140  0.1582
   20DOPE  H16X 2572   3.990   2.076  11.641 -0.1792  0.3251 -0.2899
   20DOPE  H16Y 2573   3.858   1.961  11.671  0.4835 -0.5857  2.6856
   20DOPE  C317 2574   4.004   1.887  11.532 -0.6171 -0.0528  0.0989
   20DOPE  H17X 2575   4.113   1.868  11.547 -0.9716 -0.9090  1.8597
   20DOPE  H17Y 2576   3.946   1.793  11.525 -0.7565  0.1601 -2.5599
   20DOPE  C318 2577   3.988   1.962  11.402 -0.2522 -0.5288  0.0258
   20DOPE  H18X 2578   3.893   2.019  11.400 -0.5467 -0.9412  1.4856
   20DOPE  H18Y 2579   4.081   2.021  11.384 -1.0494  0.4362 -1.1018
   20DOPE  H18Z 2580   3.970   1.889  11.320  0.1929  0.8240 -1.3171
   21DOPE     N 2581   2.105   2.090  13.973  0.2292 -0.0534  0.1711
   21DOPE   HN1 2582   2.108   2.159  14.051 -0.0596 -0.8146  0.8685
   21DOPE   HN2 2583   2.066   2.005  14.019 -0.1860 -0.4700 -0.9214
   21DOPE   HN3 2584   2.197   2.076  13.927  0.0928 -2.7395  0.5571
   21DOPE   C12 2585   2.008   2.147  13.872 -0.1739  0.2937 -0.4133
   21DOPE  H12A 2586   2.063   2.231  13.825  1.2998  0.1800  1.0478
   21DOPE  H12B 2587   1.913   2.180  13.920 -1.2771 -0.2477 -2.1368
   21DOPE   C11 2588   1.963   2.037  13.772  0.2810 -0.0927  0.0476
   21DOPE  H11A 2589   1.884   2.078  13.705  0.2129 -1.2813 -0.6345
   21DOPE  H11B 2590   1.911   1.951  13.819  1.9297  0.0597  2.3360
   21DOPE     P 2591   2.136   2.044  13.571 -0.1761  0.0698 -0.0563
   21DOPE   O13 2592   2.088   1.955  13.464  0.0994 -0.3823 -0.2024
   21DOPE   O14 2593   2.280   2.039  13.597 -0.1228  0.5460 -0.2945
   21DOPE   O11 2594   2.076   2.195  13.556  0.0946  0.4667  0.1185
   21DOPE   O12 2595   2.068   1.980  13.704 -0.5775  0.3881 -0.0087
   21DOPE    C1 2596   1.957   2.207  13.470  0.4185 -0.2021 -0.0127
   21DOPE    HA 2597   1.897   2.294  13.502  0.0083  0.3783 -2.2144
   21DOPE    HB 2598   1.898   2.113  13.480  0.8333 -0.3012  1.9259
   21DOPE    C2 2599   1.991   2.222  13.321  0.2708  0.2012 -0.4061
   21DOPE    HS 2600   2.047   2.134  13.282 -1.2267 -0.9347 -0.0593
   21DOPE   O21 2601   2.073   2.343  13.305 -0.0293 -0.1919  0.4119
   21DOPE   C21 2602   2.145   2.352  13.191  1.0267  0.4573 -0.5015
   21DOPE   O22 2603   2.147   2.266  13.109  0.0611  0.0585  0.6077
   21DOPE   C22 2604   2.193   2.490  13.172  0.1605  0.2525 -0.5300
   21DOPE   H2R 2605   2.250   2.523  13.261 -1.3342  1.1650  0.1334
   21DOPE   H2S 2606   2.104   2.557  13.163 -0.1400 -0.0801 -0.0628
   21DOPE    C3 2607   1.856   2.227  13.228 -0.4706 -0.1901 -0.0189
   21DOPE    HX 2608   1.806   2.321  13.259 -2.0455 -1.5316  1.6891
   21DOPE    HY 2609   1.788   2.147  13.265 -3.5516  1.9172 -0.7838
   21DOPE   O31 2610   1.878   2.238  13.083 -0.1908  0.5605 -0.5680
   21DOPE   C31 2611   1.905   2.123  13.014  0.2777  0.1227 -0.8081
   21DOPE   O32 2612   1.909   2.011  13.061  0.4349  0.0080  0.6742
   21DOPE   C32 2613   1.938   2.153  12.868 -0.0469  0.5505  0.5583
   21DOPE   H2X 2614   1.919   2.260  12.846 -0.3040  0.7226  1.5608
   21DOPE   H2Y 2615   2.047   2.132  12.863  0.8062  4.1270  1.0140
   21DOPE   C23 2616   2.274   2.510  13.044 -0.7525 -0.4449  0.0188
   21DOPE   H3R 2617   2.347   2.428  13.027  0.8761  0.3140  2.6985
   21DOPE   H3S 2618   2.335   2.603  13.048 -0.9118 -0.2863 -1.0403
   21DOPE   C24 2619   2.193   2.519  12.912 -0.1832 -0.1817 -0.3724
   21DOPE   H4R 2620   2.114   2.596  12.920 -0.0258 -0.1007  0.4665
   21DOPE   H4S 2621   2.131   2.430  12.888 -0.2885 -0.2420  0.1025
   21DOPE   C25 2622   2.280   2.559  12.788 -0.2977  0.6904 -0.6893
   21DOPE   H5R 2623   2.357   2.479  12.781 -0.0976  0.8866 -0.7503
   21DOPE   H5S 2624   2.320   2.661  12.806 -2.4352  1.3961  0.4878
   21DOPE   C26 2625   2.195   2.550  12.661  0.2231  0.2877 -0.5510
   21DOPE   H6R 2626   2.109   2.620  12.660 -0.5160 -0.5179  1.6210
   21DOPE   H6S 2627   2.152   2.447  12.658  1.3340 -0.1714 -2.1873
   21DOPE   C27 2628   2.277   2.566  12.541 -0.3715 -0.2028 -0.1880
   21DOPE   H7R 2629   2.337   2.473  12.538 -0.9534 -0.7740  2.6559
   21DOPE   H7S 2630   2.335   2.660  12.543 -1.3410  0.4351 -1.0089
   21DOPE   C28 2631   2.201   2.552  12.407  0.5099 -0.3248  0.1831
   21DOPE   H8R 2632   2.150   2.454  12.415 -2.3463  1.0177 -0.2863
   21DOPE   H8S 2633   2.279   2.547  12.328  0.3875  1.4706 -0.1007
   21DOPE   C29 2634   2.107   2.667  12.387 -0.7655 -0.1851 -0.0219
   21DOPE   H9R 2635   2.037   2.687  12.469  0.8961 -1.5108  1.8087
   21DOPE  C210 2636   2.100   2.741  12.274  0.2331 -0.1912 -0.3989
   21DOPE  H10R 2637   2.012   2.806  12.258 -0.3669 -0.8396  0.2257
   21DOPE  C211 2638   2.192   2.733  12.156 -0.1755 -0.2448  0.1593
   21DOPE  H11R 2639   2.294   2.717  12.198 -0.0666  1.7121  0.7641
   21DOPE  H11S 2640   2.204   2.836  12.116 -0.7608  0.2986  1.3303
   21DOPE  C212 2641   2.147   2.639  12.045  0.1960  0.2952  0.1930
   21DOPE  H12R 2642   2.038   2.658  12.035  0.4761  1.4944 -0.8591
   21DOPE  H12S 2643   2.173   2.534  12.069  0.5088  0.4385  0.4910
   21DOPE  C213 2644   2.218   2.672  11.916 -0.1371  0.3280 -0.3847
   21DOPE  H13R 2645   2.323   2.634  11.920 -0.5716 -1.1294 -1.9125
   21DOPE  H13S 2646   2.227   2.782  11.907 -0.0547  0.2896 -0.7791
   21DOPE  C214 2647   2.140   2.625  11.785 -0.0390  0.5172  0.5268
   21DOPE  H14R 2648   2.034   2.652  11.804  0.5272  4.2810 -0.8681
   21DOPE  H14S 2649   2.151   2.515  11.779 -2.1221  0.3320 -0.6110
   21DOPE  C215 2650   2.190   2.700  11.660  0.2806  0.2821  0.1789
   21DOPE  H15R 2651   2.298   2.678  11.646 -0.3997 -3.0182 -0.6661
   21DOPE  H15S 2652   2.185   2.811  11.667 -0.8865  0.2509 -0.0575
   21DOPE  C216 2653   2.129   2.653  11.536  0.6665  0.8518  0.1349
   21DOPE  H16R 2654   2.019   2.657  11.521  0.8829  1.0471 -1.5994
   21DOPE  H16S 2655   2.144   2.543  11.534  1.2891  0.9368 -1.3287
   21DOPE  C217 2656   2.193   2.711  11.412  0.1379  0.5372 -0.6631
   21DOPE  H17R 2657   2.304   2.709  11.413  0.1706  1.7357 -0.3861
   21DOPE  H17S 2658   2.171   2.820  11.407 -0.6264  0.4132 -0.2022
   21DOPE  C218 2659   2.144   2.651  11.286 -0.1530  0.2628  0.4295
   21DOPE  H18R 2660   2.179   2.706  11.195  0.0809 -0.6118 -0.0185
   21DOPE  H18S 2661   2.034   2.643  11.269 -0.3868  2.5933  0.4146
   21DOPE  H18T 2662   2.178   2.546  11.289 -1.8509 -0.3763 -0.7317
   21DOPE   C33 2663   1.854   2.080  12.754 -0.4069 -0.0122 -1.1129
   21DOPE   H3X 2664   1.753   2.125  12.753 -0.0661  0.9194  1.0723
   21DOPE   H3Y 2665   1.837   1.974  12.782  1.1547  0.1802  0.7869
   21DOPE   C34 2666   1.907   2.090  12.611 -0.1532  0.4187  0.0403
   21DOPE   H4X 2667   1.894   2.198  12.589  2.2381  0.6696 -0.3745
   21DOPE   H4Y 2668   2.016   2.070  12.611 -0.2763 -0.8215 -3.0047
   21DOPE   C35 2669   1.833   1.995  12.512 -1.1251  0.6090  0.3575
   21DOPE   H5X 2670   1.727   2.028  12.523 -1.3280  0.8824 -1.9534
   21DOPE   H5Y 2671   1.836   1.894  12.559 -2.3870 -0.4682 -1.7042
   21DOPE   C36 2672   1.881   1.994  12.370 -0.4045 -0.2830  0.4147
   21DOPE   H6X 2673   1.990   2.017  12.375 -0.1365 -0.0202 -3.4866
   21DOPE   H6Y 2674   1.838   2.076  12.310  0.0924  1.2057  2.0160
   21DOPE   C37 2675   1.856   1.858  12.306 -0.9983  0.1293 -0.0704
   21DOPE   H7X 2676   1.897   1.786  12.381 -0.5346  0.3270 -0.1288
   21DOPE   H7Y 2677   1.749   1.858  12.278 -0.9770 -0.8878 -0.1767
   21DOPE   C38 2678   1.927   1.869  12.173 -0.0376  0.6369 -0.8314
   21DOPE   H8X 2679   2.033   1.899  12.188 -0.0469  1.0086 -1.5122
   21DOPE   H8Y 2680   1.873   1.950  12.121 -2.0285 -1.7321 -2.6638
   21DOPE   C39 2681   1.905   1.738  12.105  0.4385  0.2497  0.3445
   21DOPE   H9X 2682   1.949   1.652  12.158  0.8500  1.0679  1.3790
   21DOPE  C310 2683   1.832   1.715  11.993  0.7538 -0.1868 -0.0628
   21DOPE  H10X 2684   1.821   1.614  11.952 -1.6657 -0.4593  1.0920
   21DOPE  C311 2685   1.739   1.823  11.931 -0.4561  0.0965 -0.0373
   21DOPE  H11X 2686   1.641   1.774  11.916  0.7626 -1.7420 -2.5587
   21DOPE  H11Y 2687   1.734   1.918  11.988  0.2007  0.4752 -0.6051
   21DOPE  C312 2688   1.786   1.866  11.792  0.4313  0.0117 -0.5888
   21DOPE  H12X 2689   1.892   1.900  11.796  0.6203 -0.6174  0.0917
   21DOPE  H12Y 2690   1.706   1.936  11.759 -2.8240 -2.4407  1.4954
   21DOPE  C313 2691   1.779   1.747  11.689  0.0357  0.2976  0.5493
   21DOPE  H13X 2692   1.857   1.674  11.717  0.4447  0.0000 -1.2500
   21DOPE  H13Y 2693   1.684   1.690  11.685  1.1917 -1.6152 -2.0567
   21DOPE  C314 2694   1.806   1.802  11.544  0.1236  0.0774 -0.0912
   21DOPE  H14X 2695   1.910   1.843  11.543 -0.1285  0.8707  2.1013
   21DOPE  H14Y 2696   1.746   1.895  11.531  3.5578  2.4241 -0.7308
   21DOPE  C315 2697   1.773   1.705  11.437  0.2567 -0.0987 -0.8844
   21DOPE  H15X 2698   1.775   1.757  11.339 -0.1555  0.6073 -0.5342
   21DOPE  H15Y 2699   1.670   1.671  11.462  0.2584  1.7194  2.1420
   21DOPE  C316 2700   1.864   1.575  11.441 -0.3822  0.1029 -0.1565
   21DOPE  H16X 2701   1.827   1.511  11.358  2.1121 -0.7078 -0.7230
   21DOPE  H16Y 2702   1.839   1.527  11.539 -3.3113  0.9654 -0.3863
   21DOPE  C317 2703   2.016   1.599  11.427 -0.0627  0.2272  0.1195
   21DOPE  H17X 2704   2.027   1.682  11.354 -2.2636 -1.3505 -2.1861
   21DOPE  H17Y 2705   2.046   1.632  11.529  0.7337  2.9887 -0.9084
   21DOPE  C318 2706   2.108   1.474  11.403  0.6559  0.1881  0.8183
   21DOPE  H18X 2707   2.133   1.462  11.295  0.1930 -0.4164  0.7707
   21DOPE  H18Y 2708   2.207   1.489  11.450 -0.5511 -0.7594  3.9365
   21DOPE  H18Z 2709   2.063   1.387  11.456 -0.8581  1.0694  1.0466
   22DOPE     N 2710   0.136   6.102  13.501 -0.0382  1.1081  0.9606
   22DOPE   HN1 2711   0.126   6.143  13.596 -0.2537 -2.5453  2.6482
   22DOPE   HN2 2712   0.062   6.030  13.513 -0.7069  1.7112  0.5264
   22DOPE   HN3 2713   0.224   6.048  13.495 -1.7379 -1.6538 -1.2830
   22DOPE   C12 2714   0.094   6.181  13.381 -0.6158  0.1542  0.2482
   22DOPE  H12A 2715   0.177   6.195  13.308 -0.8082  0.3911  0.0738
   22DOPE  H12B 2716   0.064   6.279  13.425  1.1459  0.2030  1.4408
   22DOPE   C11 2717  -0.014   6.108  13.300 -0.4796  0.5754  0.0442
   22DOPE  H11A 2718  -0.090   6.065  13.369  1.3033 -0.2933  1.5239
   22DOPE  H11B 2719   0.036   6.027  13.243  3.4426  1.2754  2.1661
   22DOPE     P 2720  -0.177   6.296  13.238  0.2887  0.2902  0.0387
   22DOPE   O13 2721  -0.119   6.429  13.280 -0.4491 -0.1184 -0.4020
   22DOPE   O14 2722  -0.274   6.237  13.335  0.1869 -0.0243 -0.3043
   22DOPE   O11 2723  -0.242   6.316  13.090  0.7932 -0.4184 -0.1563
   22DOPE   O12 2724  -0.056   6.198  13.200 -0.1276 -0.4320 -0.4272
   22DOPE    C1 2725  -0.161   6.347  12.978 -0.0351  0.3367  0.6194
   22DOPE    HA 2726  -0.090   6.263  12.957 -3.2425 -2.4559  0.0440
   22DOPE    HB 2727  -0.106   6.443  12.980  0.8197 -0.0934 -0.5796
   22DOPE    C2 2728  -0.263   6.352  12.861 -0.6733  0.1007 -0.4218
   22DOPE    HS 2729  -0.301   6.248  12.856  0.6413 -0.3735 -1.3229
   22DOPE   O21 2730  -0.182   6.388  12.745  0.2074 -0.3707  0.2739
   22DOPE   C21 2731  -0.239   6.371  12.630  0.3176 -0.0849 -0.6529
   22DOPE   O22 2732  -0.352   6.329  12.610  0.1320 -0.6439 -0.1301
   22DOPE   C22 2733  -0.159   6.449  12.531  0.9144  0.4070 -0.6381
   22DOPE   H2R 2734  -0.089   6.382  12.476  0.7692 -0.2277 -0.0623
   22DOPE   H2S 2735  -0.090   6.527  12.569  2.7856 -2.2083  1.7834
   22DOPE    C3 2736  -0.382   6.452  12.890 -0.0368 -0.5388 -0.2316
   22DOPE    HX 2737  -0.343   6.554  12.911 -2.4333  0.5659 -0.7924
   22DOPE    HY 2738  -0.437   6.428  12.984  0.3453 -0.1268  0.1010
   22DOPE   O31 2739  -0.478   6.472  12.784  0.1441 -0.0950 -0.4070
   22DOPE   C31 2740  -0.588   6.405  12.782 -0.6322 -0.0022  0.6525
   22DOPE   O32 2741  -0.624   6.333  12.873 -0.4887 -0.1802  0.4478
   22DOPE   C32 2742  -0.660   6.417  12.648  0.7990  0.3088 -0.1270
   22DOPE   H2X 2743  -0.638   6.520  12.613  1.3418  0.0141 -0.6659
   22DOPE   H2Y 2744  -0.625   6.350  12.567 -0.6613  1.6032 -1.8952
   22DOPE   C23 2745  -0.248   6.521  12.425 -0.5715  0.5035 -0.5447
   22DOPE   H3R 2746  -0.276   6.617  12.474 -1.5770 -0.2522  0.3951
   22DOPE   H3S 2747  -0.333   6.457  12.393  1.1129 -1.0213 -2.2090
   22DOPE   C24 2748  -0.165   6.552  12.302  0.8450  1.3466  0.3040
   22DOPE   H4R 2749  -0.108   6.465  12.265 -1.1846  0.1991 -0.2438
   22DOPE   H4S 2750  -0.084   6.626  12.324  1.2351  1.6192 -1.8260
   22DOPE   C25 2751  -0.249   6.607  12.186 -0.1095  0.0610  0.0716
   22DOPE   H5R 2752  -0.302   6.699  12.219  0.9154 -0.6377  4.2281
   22DOPE   H5S 2753  -0.330   6.536  12.159 -0.4805  1.3403 -2.3799
   22DOPE   C26 2754  -0.170   6.658  12.063  0.3681  0.4345  0.2423
   22DOPE   H6R 2755  -0.178   6.582  11.983 -0.7300  1.1003 -0.2967
   22DOPE   H6S 2756  -0.061   6.667  12.084  0.2445  2.4568  0.2184
   22DOPE   C27 2757  -0.221   6.794  12.000  0.5236  0.6796 -0.5493
   22DOPE   H7R 2758  -0.199   6.875  12.073 -0.1232  0.6896 -0.3562
   22DOPE   H7S 2759  -0.329   6.787  11.977  0.5486 -0.3228 -0.4169
   22DOPE   C28 2760  -0.162   6.821  11.860  0.9817 -1.2002  0.3040
   22DOPE   H8R 2761  -0.177   6.924  11.820  0.6749 -0.8215  1.3606
   22DOPE   H8S 2762  -0.200   6.747  11.786  1.2769 -0.2478 -0.8321
   22DOPE   C29 2763  -0.014   6.816  11.860 -0.1530  0.4092 -0.4951
   22DOPE   H9R 2764   0.040   6.883  11.929  0.7022  1.3460 -2.0272
   22DOPE  C210 2765   0.073   6.739  11.787  0.2790  0.9242  0.2477
   22DOPE  H10R 2766   0.181   6.738  11.807 -0.0717 -2.4615  3.0675
   22DOPE  C211 2767   0.043   6.641  11.677  0.2958 -0.0557 -0.0984
   22DOPE  H11R 2768  -0.062   6.611  11.656  0.8489 -2.0074 -0.2209
   22DOPE  H11S 2769   0.102   6.549  11.699  1.6653  0.0384 -2.9384
   22DOPE  C212 2770   0.096   6.706  11.551  0.2096 -0.3694  0.2736
   22DOPE  H12R 2771   0.201   6.742  11.556  0.9681 -2.5175  1.0494
   22DOPE  H12S 2772   0.040   6.798  11.525 -0.5273 -1.2604 -1.5232
   22DOPE  C213 2773   0.106   6.608  11.430  0.0573  0.6595  0.5451
   22DOPE  H13R 2774   0.001   6.574  11.415  0.2278 -0.8176  2.3452
   22DOPE  H13S 2775   0.165   6.519  11.461 -1.9332 -0.6242  0.8999
   22DOPE  C214 2776   0.167   6.671  11.302  0.1479 -0.1017  0.1645
   22DOPE  H14R 2777   0.271   6.706  11.316  1.2602 -2.9492 -0.3325
   22DOPE  H14S 2778   0.099   6.753  11.272  1.3885  0.9748  0.2002
   22DOPE  C215 2779   0.169   6.571  11.191 -0.3990 -0.2666 -0.0359
   22DOPE  H15R 2780   0.160   6.614  11.089 -0.7458 -1.5931 -0.5738
   22DOPE  H15S 2781   0.079   6.506  11.196 -0.8703  0.4463  1.4388
   22DOPE  C216 2782   0.291   6.489  11.204 -0.0426 -0.6292 -1.0096
   22DOPE  H16R 2783   0.293   6.443  11.306  1.4351 -1.3899 -1.3496
   22DOPE  H16S 2784   0.384   6.550  11.205  0.6952 -1.7051 -0.0347
   22DOPE  C217 2785   0.311   6.384  11.101 -0.0347  0.3952  0.2964
   22DOPE  H17R 2786   0.221   6.320  11.089 -0.8330  1.6924 -0.9674
   22DOPE  H17S 2787   0.386   6.314  11.144  0.1199  0.0606 -0.5023
   22DOPE  C218 2788   0.366   6.447  10.976  0.1653 -0.0562 -0.3268
   22DOPE  H18R 2789   0.372   6.384  10.885 -1.6832 -2.7146  1.2634
   22DOPE  H18S 2790   0.452   6.512  11.004  1.7124 -2.2397  0.1997
   22DOPE  H18T 2791   0.292   6.522  10.940  0.5846  0.8287  0.6076
   22DOPE   C33 2792  -0.811   6.399  12.664 -0.3168 -0.8944  0.1142
   22DOPE   H3X 2793  -0.843   6.494  12.712  2.8126  2.1619 -3.2178
   22DOPE   H3Y 2794  -0.840   6.313  12.728 -1.3457 -0.8572 -0.2852
   22DOPE   C34 2795  -0.868   6.388  12.528 -0.1238 -0.5492  0.4979
   22DOPE   H4X 2796  -0.874   6.493  12.490 -2.4031 -0.3738  1.1765
   22DOPE   H4Y 2797  -0.801   6.332  12.460 -0.1449 -1.5785  1.3006
   22DOPE   C35 2798  -1.006   6.316  12.533  0.3199 -0.1531  0.0637
   22DOPE   H5X 2799  -1.053   6.344  12.630  0.3855  2.4195 -0.5783
   22DOPE   H5Y 2800  -0.985   6.207  12.540  0.7985  0.0113  1.6073
   22DOPE   C36 2801  -1.099   6.368  12.423  0.1362 -0.5366  0.4513
   22DOPE   H6X 2802  -1.036   6.403  12.338  0.2685  2.8805  1.7920
   22DOPE   H6Y 2803  -1.152   6.457  12.464  0.0961 -0.7996  0.9779
   22DOPE   C37 2804  -1.191   6.260  12.371  0.1259  0.0344 -0.7108
   22DOPE   H7X 2805  -1.128   6.205  12.298  0.6990 -0.7428  0.3422
   22DOPE   H7Y 2806  -1.212   6.191  12.456 -1.6103 -2.0538 -2.6951
   22DOPE   C38 2807  -1.325   6.324  12.320 -0.1405  0.2213 -0.3470
   22DOPE   H8X 2808  -1.299   6.402  12.246 -1.9935  0.7911 -0.4463
   22DOPE   H8Y 2809  -1.369   6.388  12.400 -2.4658  1.2932 -2.3450
   22DOPE   C39 2810  -1.430   6.229  12.273 -0.4099  0.0955 -0.4412
   22DOPE   H9X 2811  -1.508   6.210  12.349  1.0221 -1.0220  0.7939
   22DOPE  C310 2812  -1.445   6.169  12.154 -0.6986 -0.0528 -0.2152
   22DOPE  H10X 2813  -1.529   6.099  12.136 -0.8861  0.4436 -1.3305
   22DOPE  C311 2814  -1.339   6.161  12.051  1.6783  0.2778  0.5792
   22DOPE  H11X 2815  -1.273   6.246  12.075  0.3224  1.5273  0.0341
   22DOPE  H11Y 2816  -1.291   6.063  12.073 -1.2431 -1.3086  0.4976
   22DOPE  C312 2817  -1.382   6.153  11.906  0.0813  0.3633  0.6381
   22DOPE  H12X 2818  -1.425   6.253  11.883  0.4788  0.7449  1.5105
   22DOPE  H12Y 2819  -1.467   6.083  11.892 -0.1413 -0.0456  3.4932
   22DOPE  C313 2820  -1.261   6.117  11.806 -0.0897  0.0397  0.1771
   22DOPE  H13X 2821  -1.181   6.193  11.796  0.5721 -0.7856 -0.9493
   22DOPE  H13Y 2822  -1.215   6.027  11.850  0.2861 -0.9114 -2.0194
   22DOPE  C314 2823  -1.310   6.108  11.668 -0.0227 -0.0840  0.1156
   22DOPE  H14X 2824  -1.330   6.212  11.634  1.7930  0.6558  1.1836
   22DOPE  H14Y 2825  -1.409   6.057  11.669 -0.4910  0.4105 -4.2116
   22DOPE  C315 2826  -1.216   6.024  11.576  0.1345 -0.1125 -0.5064
   22DOPE  H15X 2827  -1.196   5.932  11.635 -1.0579  1.2201  2.1086
   22DOPE  H15Y 2828  -1.117   6.075  11.576 -1.1803  2.6270  1.0980
   22DOPE  C316 2829  -1.271   6.002  11.434  0.7949  0.0553 -0.3040
   22DOPE  H16X 2830  -1.372   5.957  11.440  0.0155  0.7412 -4.6317
   22DOPE  H16Y 2831  -1.216   5.920  11.382 -1.0474 -2.7231  1.8475
   22DOPE  C317 2832  -1.303   6.126  11.346  0.6077  0.2657 -0.3224
   22DOPE  H17X 2833  -1.385   6.183  11.395  1.3462 -1.2526  2.9732
   22DOPE  H17Y 2834  -1.216   6.196  11.343  0.3483  0.5516 -1.8354
   22DOPE  C318 2835  -1.341   6.089  11.211 -0.4842 -0.4430  0.2651
   22DOPE  H18X 2836  -1.379   6.175  11.151  0.6252  1.2706  1.9221
   22DOPE  H18Y 2837  -1.255   6.044  11.156 -0.0437  1.0376 -0.3031
   22DOPE  H18Z 2838  -1.430   6.023  11.212 -0.1331 -0.9903  2.9114
   23DOPE     N 2839   2.211   2.419  13.548 -0.0854  0.2400  0.3905
   23DOPE   HN1 2840   2.137   2.348  13.564 -1.3449  1.3928 -0.1936
   23DOPE   HN2 2841   2.166   2.509  13.522 -1.5280 -1.4909 -3.9489
   23DOPE   HN3 2842   2.267   2.377  13.471 -0.7009 -0.9962  0.5867
   23DOPE   C12 2843   2.303   2.432  13.670  0.0186 -0.7381  0.6297
   23DOPE  H12A 2844   2.346   2.332  13.692  0.5830 -0.3077  1.5556
   23DOPE  H12B 2845   2.245   2.474  13.755  2.1668  0.4958  1.5833
   23DOPE   C11 2846   2.420   2.531  13.622  0.4140  0.3254  0.4513
   23DOPE  H11A 2847   2.368   2.621  13.583  0.5098 -1.2358 -3.8527
   23DOPE  H11B 2848   2.475   2.485  13.537  1.6521  1.0739  0.8253
   23DOPE     P 2849   2.634   2.435  13.742  0.1720  0.0419  0.5180
   23DOPE   O13 2850   2.571   2.304  13.771  0.3667 -0.0315 -0.1122
   23DOPE   O14 2851   2.734   2.484  13.840 -0.3699 -0.0398 -0.1577
   23DOPE   O11 2852   2.701   2.415  13.603  0.0093 -0.0432  0.3027
   23DOPE   O12 2853   2.517   2.545  13.717 -0.1665  0.5159  0.2803
   23DOPE    C1 2854   2.782   2.507  13.531 -0.5899 -0.3534  0.0457
   23DOPE    HA 2855   2.887   2.474  13.530 -0.8834 -1.3780  1.1413
   23DOPE    HB 2856   2.781   2.609  13.575 -0.1314 -0.4127  0.1934
   23DOPE    C2 2857   2.744   2.514  13.379  0.0170 -0.3983  0.3661
   23DOPE    HS 2858   2.831   2.551  13.320  0.0865 -0.0928  0.6590
   23DOPE   O21 2859   2.623   2.594  13.360 -0.0934 -0.0453  0.3470
   23DOPE   C21 2860   2.640   2.718  13.328 -0.1525 -0.2165 -0.0783
   23DOPE   O22 2861   2.742   2.777  13.297  0.0751 -0.1174  0.0362
   23DOPE   C22 2862   2.506   2.783  13.336 -0.2370  0.7102  0.5165
   23DOPE   H2R 2863   2.467   2.779  13.440  0.3912 -2.5643  0.7413
   23DOPE   H2S 2864   2.445   2.718  13.270  1.1372  1.8934 -2.0490
   23DOPE    C3 2865   2.721   2.376  13.316  0.4580 -0.3179 -0.0398
   23DOPE    HX 2866   2.654   2.322  13.385  2.5915 -2.1366  0.7155
   23DOPE    HY 2867   2.812   2.313  13.320 -0.2452 -1.8676 -3.8655
   23DOPE   O31 2868   2.659   2.385  13.190 -0.4251  0.4270  0.1471
   23DOPE   C31 2869   2.722   2.440  13.089 -0.3552  0.2345 -0.1026
   23DOPE   O32 2870   2.829   2.494  13.098 -0.1971 -0.4989 -0.6477
   23DOPE   C32 2871   2.637   2.436  12.959  0.4895 -0.4374  0.1240
   23DOPE   H2X 2872   2.618   2.331  12.928  0.0254 -0.0078 -1.1293
   23DOPE   H2Y 2873   2.537   2.477  12.984 -0.4909 -1.6834 -1.5819
   23DOPE   C23 2874   2.512   2.926  13.286  0.2318  0.1551 -0.3301
   23DOPE   H3R 2875   2.580   2.979  13.355  2.5886  0.3602 -2.6328
   23DOPE   H3S 2876   2.409   2.964  13.302 -0.5396 -1.9575  0.0314
   23DOPE   C24 2877   2.559   2.954  13.142 -0.0263  0.1813  0.0565
   23DOPE   H4R 2878   2.670   2.952  13.144 -0.0094  1.3897  0.8387
   23DOPE   H4S 2879   2.533   3.055  13.103  2.1753  0.6246 -0.3687
   23DOPE   C25 2880   2.508   2.851  13.041 -0.3532  0.1339  0.5933
   23DOPE   H5R 2881   2.399   2.837  13.056  0.0095 -0.5452  3.0536
   23DOPE   H5S 2882   2.561   2.756  13.067  1.3164  0.8799  0.0394
   23DOPE   C26 2883   2.541   2.891  12.893  0.2696  0.0528  0.2763
   23DOPE   H6R 2884   2.512   2.811  12.821  2.2864  1.2012 -1.9604
   23DOPE   H6S 2885   2.649   2.912  12.879 -0.0310  1.8492  0.4049
   23DOPE   C27 2886   2.462   3.024  12.848  0.0200 -0.1073  0.5807
   23DOPE   H7R 2887   2.511   3.120  12.873 -2.5989  1.2012  1.0179
   23DOPE   H7S 2888   2.358   3.025  12.890 -0.6270 -2.8775 -0.6694
   23DOPE   C28 2889   2.443   3.014  12.694 -0.4375 -0.4817  0.1091
   23DOPE   H8R 2890   2.377   3.101  12.674 -1.2931 -0.9847  0.6784
   23DOPE   H8S 2891   2.406   2.916  12.656 -2.3432  0.1501  0.2351
   23DOPE   C29 2892   2.581   3.042  12.636  0.2282 -0.0427  0.3429
   23DOPE   H9R 2893   2.653   3.084  12.709  1.6400 -0.8136 -0.5550
   23DOPE  C210 2894   2.638   3.000  12.519  0.7797 -0.1228 -0.1375
   23DOPE  H10R 2895   2.731   3.050  12.488  0.1417  1.6613  0.6509
   23DOPE  C211 2896   2.544   2.940  12.419 -0.9016 -0.8185  0.2798
   23DOPE  H11R 2897   2.475   2.869  12.469 -0.3731 -1.6889 -0.2086
   23DOPE  H11S 2898   2.605   2.881  12.348  0.0847 -0.9002  1.1776
   23DOPE  C212 2899   2.473   3.050  12.327 -0.8534 -0.1451 -0.2423
   23DOPE  H12R 2900   2.442   3.135  12.391 -0.6654 -0.3159  0.0796
   23DOPE  H12S 2901   2.381   3.004  12.285 -0.7097  0.6121 -1.4150
   23DOPE  C213 2902   2.563   3.096  12.205 -0.9011 -0.2727 -0.5455
   23DOPE  H13R 2903   2.591   3.005  12.149 -1.0318 -2.1237  2.2137
   23DOPE  H13S 2904   2.659   3.137  12.243 -0.3161 -1.1553 -1.0380
   23DOPE  C214 2905   2.509   3.206  12.112  0.1354  0.7185 -0.2074
   23DOPE  H14R 2906   2.588   3.271  12.069  0.1246 -0.2287 -1.7231
   23DOPE  H14S 2907   2.423   3.262  12.155 -0.9009 -1.4500  0.6877
   23DOPE  C215 2908   2.452   3.145  11.975  0.1075  0.9795  0.2973
   23DOPE  H15R 2909   2.386   3.208  11.910 -2.3175  0.1042  1.7633
   23DOPE  H15S 2910   2.387   3.058  11.997  1.0796  0.0212 -0.4993
   23DOPE  C216 2911   2.570   3.098  11.885 -0.7286 -0.4844 -0.2861
   23DOPE  H16R 2912   2.616   3.015  11.942 -1.5401 -0.7258  0.0334
   23DOPE  H16S 2913   2.652   3.173  11.883 -2.8461  1.9704 -0.2076
   23DOPE  C217 2914   2.529   3.065  11.746 -0.1254  0.3196 -0.5049
   23DOPE  H17R 2915   2.617   3.024  11.693 -2.0912 -2.5808 -1.7871
   23DOPE  H17S 2916   2.494   3.163  11.708 -0.4626  1.1028  1.6980
   23DOPE  C218 2917   2.428   2.948  11.729 -0.3062  0.4101  0.2237
   23DOPE  H18R 2918   2.325   2.979  11.758 -0.2812  2.4885 -1.6259
   23DOPE  H18S 2919   2.459   2.869  11.801 -0.6679  1.6485  1.7949
   23DOPE  H18T 2920   2.423   2.904  11.627 -1.1593 -0.3793  0.5892
   23DOPE   C33 2921   2.715   2.511  12.844  0.2796  0.3569 -0.2630
   23DOPE   H3X 2922   2.805   2.458  12.808  1.2754  0.4202  1.9841
   23DOPE   H3Y 2923   2.734   2.613  12.882  0.0180 -0.5698  2.6410
   23DOPE   C34 2924   2.629   2.536  12.723  0.2928 -0.1881  0.2229
   23DOPE   H4X 2925   2.574   2.442  12.701 -0.8920  0.4595  0.3314
   23DOPE   H4Y 2926   2.552   2.616  12.738 -1.3386 -1.5043 -0.7456
   23DOPE   C35 2927   2.705   2.562  12.595  0.5211  0.0027 -0.5909
   23DOPE   H5X 2928   2.780   2.480  12.585  2.1951  1.5364 -1.0591
   23DOPE   H5Y 2929   2.761   2.656  12.613 -0.2377  0.2860  0.3970
   23DOPE   C36 2930   2.618   2.561  12.470 -0.1644  0.1022 -0.3561
   23DOPE   H6X 2931   2.539   2.638  12.486  0.8342  1.1966 -0.5148
   23DOPE   H6Y 2932   2.562   2.465  12.464 -2.8449  1.5946 -0.9301
   23DOPE   C37 2933   2.705   2.605  12.352  0.4031 -0.1144 -0.8269
   23DOPE   H7X 2934   2.756   2.704  12.357  0.1269  0.1027 -2.0275
   23DOPE   H7Y 2935   2.777   2.523  12.330  1.2602  0.9409 -2.1505
   23DOPE   C38 2936   2.627   2.631  12.223 -0.2211  0.1981 -0.5362
   23DOPE   H8X 2937   2.539   2.686  12.262 -0.5109 -0.6260  0.0133
   23DOPE   H8Y 2938   2.576   2.535  12.200  2.8659 -1.6981 -0.0182
   23DOPE   C39 2939   2.696   2.689  12.101  0.3661  0.9286  0.9675
   23DOPE   H9X 2940   2.756   2.777  12.128 -1.3511  2.2594  0.6039
   23DOPE  C310 2941   2.694   2.643  11.976  0.0129 -0.0845 -0.3987
   23DOPE  H10X 2942   2.755   2.692  11.898  0.0765  0.5060  0.0141
   23DOPE  C311 2943   2.614   2.533  11.928  0.5302  0.2377 -0.3100
   23DOPE  H11X 2944   2.531   2.514  11.999  1.3963  0.2847  0.7411
   23DOPE  H11Y 2945   2.588   2.546  11.821  3.4008 -2.0239 -1.4137
   23DOPE  C312 2946   2.688   2.406  11.930  0.1119 -0.2227  0.1440
   23DOPE  H12X 2947   2.710   2.380  12.036 -0.3728 -0.3552  0.2153
   23DOPE  H12Y 2948   2.785   2.416  11.878 -1.1093  4.0117 -1.8016
   23DOPE  C313 2949   2.619   2.287  11.855 -0.2815  0.1154 -0.4918
   23DOPE  H13X 2950   2.673   2.196  11.890 -1.1048 -0.9918 -1.9934
   23DOPE  H13Y 2951   2.513   2.280  11.888 -0.0211 -0.6633  0.2158
   23DOPE  C314 2952   2.618   2.282  11.703 -0.2643  0.6648 -0.1889
   23DOPE  H14X 2953   2.571   2.375  11.665  1.2425  1.6829  0.3913
   23DOPE  H14Y 2954   2.550   2.199  11.674 -1.1779  1.7693 -1.3265
   23DOPE  C315 2955   2.753   2.252  11.640  0.9313 -0.5058 -0.2583
   23DOPE  H15X 2956   2.818   2.336  11.670  2.0547 -2.3901  3.0181
   23DOPE  H15Y 2957   2.732   2.255  11.530  2.5671  0.9124 -0.5670
   23DOPE  C316 2958   2.818   2.112  11.666  0.1640  0.1576  0.8601
   23DOPE  H16X 2959   2.746   2.028  11.661  0.6571 -0.5344  3.8168
   23DOPE  H16Y 2960   2.842   2.112  11.774  3.3051  0.6196  0.2447
   23DOPE  C317 2961   2.955   2.087  11.594  0.2503  0.3601 -0.4095
   23DOPE  H17X 2962   2.942   2.111  11.486 -1.0741  0.4799 -0.2382
   23DOPE  H17Y 2963   3.038   2.157  11.618  0.7862  0.0860 -1.4081
   23DOPE  C318 2964   2.999   1.940  11.614 -0.5560 -0.6966 -0.4151
   23DOPE  H18X 2965   3.003   1.910  11.721 -0.2197  1.4968  0.2338
   23DOPE  H18Y 2966   2.933   1.874  11.553 -0.3932  0.4994 -1.9398
   23DOPE  H18Z 2967   3.097   1.921  11.567 -0.7320 -1.2387 -0.5777
   24DOPE     N 2968   5.996   0.193  13.684 -0.0651 -0.3914  0.3945
   24DOPE   HN1 2969   6.048   0.137  13.755  0.3829  0.7191  0.9736
   24DOPE   HN2 2970   6.032   0.161  13.592 -0.0305 -0.6351  0.4941
   24DOPE   HN3 2971   6.019   0.294  13.696 -2.0013  0.0884  0.3504
   24DOPE   C12 2972   5.845   0.171  13.690  0.3209  0.3818 -0.2273
   24DOPE  H12A 2973   5.804   0.271  13.716 -1.4342 -0.2928 -0.3027
   24DOPE  H12B 2974   5.823   0.100  13.773  2.7313  0.3796  0.4818
   24DOPE   C11 2975   5.799   0.126  13.549 -0.3821 -0.0344  0.8886
   24DOPE  H11A 2976   5.854   0.034  13.518 -0.8247  0.5563 -1.9398
   24DOPE  H11B 2977   5.814   0.200  13.469 -1.7656 -2.8818 -2.2624
   24DOPE     P 2978   5.608  -0.044  13.518 -0.4949 -0.0283 -0.1160
   24DOPE   O13 2979   5.460  -0.048  13.537 -0.4807  0.2361 -0.6995
   24DOPE   O14 2980   5.684  -0.139  13.604  0.2541 -0.0010  0.3773
   24DOPE   O11 2981   5.645  -0.069  13.362  0.6060  0.5636  0.3562
   24DOPE   O12 2982   5.661   0.107  13.552  0.2726  0.7054  0.6588
   24DOPE    C1 2983   5.673   0.036  13.270  0.0578 -0.3736 -0.0064
   24DOPE    HA 2984   5.770   0.086  13.290 -0.7086  1.4980 -0.7398
   24DOPE    HB 2985   5.596   0.117  13.272 -1.0757 -1.4180  0.0420
   24DOPE    C2 2986   5.664  -0.023  13.126  0.4991  0.2550  0.2667
   24DOPE    HS 2987   5.735  -0.109  13.126 -1.8595 -1.8404  2.5962
   24DOPE   O21 2988   5.688   0.089  13.032 -0.1588 -0.0796 -0.7862
   24DOPE   C21 2989   5.766   0.053  12.931 -0.0917 -0.4766 -0.6847
   24DOPE   O22 2990   5.822  -0.052  12.921  0.1547 -0.0916 -0.0990
   24DOPE   C22 2991   5.774   0.163  12.833 -0.2465 -0.3794  0.0898
   24DOPE   H2R 2992   5.850   0.142  12.755 -0.6171  0.7366 -0.5940
   24DOPE   H2S 2993   5.793   0.258  12.888  0.2282 -0.3496 -0.1272
   24DOPE    C3 2994   5.520  -0.065  13.106 -0.6441  0.7323 -0.1379
   24DOPE    HX 2995   5.465   0.031  13.121  1.5098  2.1118 -0.6688
   24DOPE    HY 2996   5.485  -0.143  13.177  0.3277  0.1380 -0.3010
   24DOPE   O31 2997   5.497  -0.127  12.972  0.1303 -0.4548  0.0034
   24DOPE   C31 2998   5.379  -0.104  12.919 -0.3478  0.6666 -0.8219
   24DOPE   O32 2999   5.303  -0.016  12.954  0.4356 -0.2593  0.6450
   24DOPE   C32 3000   5.358  -0.211  12.802 -0.2379  0.2518 -0.1986
   24DOPE   H2X 3001   5.456  -0.260  12.784 -0.6741 -0.2430 -1.2682
   24DOPE   H2Y 3002   5.295  -0.292  12.844 -0.4679  0.3562 -0.3448
   24DOPE   C23 3003   5.638   0.182  12.755 -0.4500 -0.1744 -0.6148
   24DOPE   H3R 3004   5.635   0.291  12.737  1.0333 -0.0759 -0.3892
   24DOPE   H3S 3005   5.550   0.150  12.815  1.5905 -1.5289  1.8680
   24DOPE   C24 3006   5.636   0.109  12.621 -0.6601 -0.3567 -0.0534
   24DOPE   H4R 3007   5.613   0.001  12.635 -0.4825 -0.3172  0.5566
   24DOPE   H4S 3008   5.741   0.115  12.585 -1.5875  1.6713 -2.7756
   24DOPE   C25 3009   5.540   0.168  12.522  0.6693 -0.2525 -0.1552
   24DOPE   H5R 3010   5.563   0.276  12.513  2.3578 -0.5133  0.7523
   24DOPE   H5S 3011   5.436   0.167  12.563  0.6374  0.0454 -0.2276
   24DOPE   C26 3012   5.554   0.099  12.385  0.6358 -0.0761  0.2473
   24DOPE   H6R 3013   5.565  -0.011  12.397  1.7042 -0.0078 -0.0243
   24DOPE   H6S 3014   5.652   0.136  12.348  0.2402  0.7346 -0.0068
   24DOPE   C27 3015   5.452   0.133  12.275  0.2698 -0.5911 -0.4256
   24DOPE   H7R 3016   5.420   0.239  12.280  0.4410 -0.6128  1.7515
   24DOPE   H7S 3017   5.353   0.083  12.289 -0.5051  0.2947 -2.2977
   24DOPE   C28 3018   5.486   0.095  12.126 -0.5284  0.4141  0.0686
   24DOPE   H8R 3019   5.516  -0.011  12.127  0.4209  0.6761  0.8434
   24DOPE   H8S 3020   5.584   0.144  12.105 -0.1442 -0.8732 -1.2626
   24DOPE   C29 3021   5.389   0.125  12.009  0.6430 -0.8297 -0.3243
   24DOPE   H9R 3022   5.354   0.229  12.002  0.2056 -1.0326 -1.3754
   24DOPE  C210 3023   5.347   0.035  11.919 -0.5753  0.7129 -0.3706
   24DOPE  H10R 3024   5.276   0.074  11.844  1.0140  0.4716 -2.0632
   24DOPE  C211 3025   5.395  -0.113  11.911  0.1996 -0.5731  0.8479
   24DOPE  H11R 3026   5.319  -0.189  11.881  2.2937 -1.7647 -1.7679
   24DOPE  H11S 3027   5.437  -0.152  12.006  0.6419  2.1904  1.8863
   24DOPE  C212 3028   5.504  -0.142  11.803  0.4357  0.7798 -0.2594
   24DOPE  H12R 3029   5.535  -0.248  11.812 -1.9802 -0.0190 -0.5603
   24DOPE  H12S 3030   5.594  -0.078  11.817  0.2315  1.7488 -2.7618
   24DOPE  C213 3031   5.464  -0.107  11.657  0.2278  0.3865 -0.5392
   24DOPE  H13R 3032   5.441   0.002  11.646 -0.6157  0.5467  2.1103
   24DOPE  H13S 3033   5.367  -0.159  11.642  0.3171  0.0880 -0.0958
   24DOPE  C214 3034   5.561  -0.161  11.552  0.3831 -0.2240  0.5813
   24DOPE  H14R 3035   5.567  -0.272  11.549 -0.9203 -0.2837 -1.4370
   24DOPE  H14S 3036   5.659  -0.110  11.562  0.1407  0.5661 -0.8552
   24DOPE  C215 3037   5.504  -0.132  11.411 -0.4359  0.4527 -0.4091
   24DOPE  H15R 3038   5.580  -0.144  11.330 -1.2148  4.4342 -1.9736
   24DOPE  H15S 3039   5.484  -0.023  11.418  0.5156  0.5101  2.5111
   24DOPE  C216 3040   5.381  -0.205  11.371 -0.5148 -0.1556 -0.5565
   24DOPE  H16R 3041   5.292  -0.178  11.431 -0.7659  0.3194 -1.1342
   24DOPE  H16S 3042   5.386  -0.315  11.380 -0.4080  0.0186  2.3834
   24DOPE  C217 3043   5.342  -0.175  11.219 -0.6487 -0.4853  0.5721
   24DOPE  H17R 3044   5.427  -0.189  11.148 -0.5359 -1.1011  0.8240
   24DOPE  H17S 3045   5.315  -0.067  11.216 -0.0914 -0.3496  0.0862
   24DOPE  C218 3046   5.228  -0.251  11.168  0.8089 -1.1109 -0.0602
   24DOPE  H18R 3047   5.183  -0.325  11.238  2.5561 -1.9433  0.2366
   24DOPE  H18S 3048   5.247  -0.308  11.074 -1.4516  1.0620 -1.9810
   24DOPE  H18T 3049   5.153  -0.175  11.136  1.5179 -0.0822  0.7044
   24DOPE   C33 3050   5.309  -0.153  12.672  0.1601 -0.2571 -0.7989
   24DOPE   H3X 3051   5.320  -0.230  12.592 -0.7857 -0.3648 -0.8325
   24DOPE   H3Y 3052   5.374  -0.067  12.645  1.3835 -0.5033  1.1422
   24DOPE   C34 3053   5.163  -0.113  12.680 -0.2499 -0.0493 -0.4869
   24DOPE   H4X 3054   5.094  -0.197  12.703 -1.2473  0.9525  0.3235
   24DOPE   H4Y 3055   5.149  -0.039  12.761  3.3984 -3.7890  4.1739
   24DOPE   C35 3056   5.116  -0.059  12.542 -0.4312 -0.0848  0.7113
   24DOPE   H5X 3057   5.163  -0.121  12.463 -2.1528  1.0530 -1.3043
   24DOPE   H5Y 3058   5.146   0.048  12.535 -0.7937  0.0228  0.7616
   24DOPE   C36 3059   4.961  -0.078  12.532  0.0123 -0.3814  1.4098
   24DOPE   H6X 3060   4.912  -0.036  12.623  2.1088  1.6573  1.7031
   24DOPE   H6Y 3061   4.943  -0.188  12.535  1.6128 -0.6804  1.3046
   24DOPE   C37 3062   4.908  -0.024  12.399  0.1383  0.5987 -0.0769
   24DOPE   H7X 3063   4.801  -0.001  12.422 -0.2634  0.0416 -1.3039
   24DOPE   H7Y 3064   4.969   0.062  12.365  2.0058 -1.2557 -1.7083
   24DOPE   C38 3065   4.904  -0.130  12.292  0.2715  0.5723  0.1688
   24DOPE   H8X 3066   4.822  -0.105  12.221  0.3180  0.6340  0.1369
   24DOPE   H8Y 3067   4.871  -0.225  12.339 -0.9550  1.7384  1.8176
   24DOPE   C39 3068   5.028  -0.148  12.225 -0.7829  0.0957 -0.3957
   24DOPE   H9X 3069   5.103  -0.209  12.277  0.6384 -0.4446 -2.9100
   24DOPE  C310 3070   5.065  -0.115  12.100 -0.3406 -0.9591 -0.5905
   24DOPE  H10X 3071   5.163  -0.157  12.075 -0.6084 -2.1055  0.1921
   24DOPE  C311 3072   4.982  -0.036  12.009 -0.6472 -1.0668  0.1378
   24DOPE  H11X 3073   4.933   0.045  12.067  1.5786  0.7733 -0.4273
   24DOPE  H11Y 3074   5.058   0.015  11.947  1.4192 -0.0652  3.2603
   24DOPE  C312 3075   4.877  -0.106  11.919  0.1776 -0.3795  0.3096
   24DOPE  H12X 3076   4.818  -0.179  11.978  0.0492 -0.6287 -0.1188
   24DOPE  H12Y 3077   4.929  -0.156  11.834  1.1536  0.9329  0.1138
   24DOPE  C313 3078   4.776  -0.013  11.854 -0.0515  0.2815  0.0329
   24DOPE  H13X 3079   4.837   0.053  11.789  1.9294 -0.8367  0.6966
   24DOPE  H13Y 3080   4.707  -0.072  11.790 -1.2474 -0.0017  1.5264
   24DOPE  C314 3081   4.698   0.077  11.955 -0.1217  0.5476 -0.6182
   24DOPE  H14X 3082   4.772   0.147  11.999  0.7114 -1.5679  1.5964
   24DOPE  H14Y 3083   4.662   0.019  12.043  2.6688  1.3097  1.1500
   24DOPE  C315 3084   4.580   0.163  11.891 -0.2460  0.2066  0.8237
   24DOPE  H15X 3085   4.531   0.225  11.969  0.8494  2.0336  0.1396
   24DOPE  H15Y 3086   4.504   0.088  11.861 -2.4816  3.4269 -2.3627
   24DOPE  C316 3087   4.616   0.253  11.768 -0.3525  0.5317 -0.5643
   24DOPE  H16X 3088   4.670   0.191  11.694  0.7886 -0.0772  0.7301
   24DOPE  H16Y 3089   4.696   0.322  11.802  1.5704 -1.6816 -0.3337
   24DOPE  C317 3090   4.495   0.328  11.705  0.0385  0.4868 -0.1203
   24DOPE  H17X 3091   4.431   0.368  11.787  0.7930  0.2189  0.6119
   24DOPE  H17Y 3092   4.535   0.420  11.657  3.1881 -1.0923 -0.7706
   24DOPE  C318 3093   4.412   0.250  11.610  0.0058 -0.5660 -0.6448
   24DOPE  H18X 3094   4.314   0.300  11.592 -0.5322 -0.8105  1.3382
   24DOPE  H18Y 3095   4.465   0.228  11.515 -0.6022  0.1463 -1.1602
   24DOPE  H18Z 3096   4.387   0.150  11.652 -1.5272 -0.5657 -1.4673
   25DOPE     N 3097   5.957   6.245  13.366 -0.4447 -0.8532  0.2459
   25DOPE   HN1 3098   6.035   6.217  13.303 -1.1392 -1.0917 -0.5200
   25DOPE   HN2 3099   5.998   6.219  13.458 -0.2200 -1.3394  0.0135
   25DOPE   HN3 3100   5.874   6.188  13.341 -1.4246  1.1534 -1.2848
   25DOPE   C12 3101   5.926   6.386  13.356 -0.1856  0.0689 -0.4534
   25DOPE  H12A 3102   5.885   6.413  13.456  1.5377  0.2090  0.2456
   25DOPE  H12B 3103   5.858   6.412  13.272 -1.4840  0.1584  0.5898
   25DOPE   C11 3104   6.051   6.465  13.348  0.3852  0.1056 -0.0093
   25DOPE  H11A 3105   6.023   6.572  13.358 -0.1520  0.0051 -0.4134
   25DOPE  H11B 3106   6.096   6.458  13.247 -2.0413  0.2058 -1.1603
   25DOPE     P 3107   6.221   6.516  13.540 -0.0148  0.0128  0.2582
   25DOPE   O13 3108   6.347   6.451  13.578 -0.6741 -0.0072  0.5550
   25DOPE   O14 3109   6.123   6.555  13.644 -0.2508  0.1008  0.3290
   25DOPE   O11 3110   6.256   6.648  13.455 -0.2928  0.6145  0.1381
   25DOPE   O12 3111   6.152   6.420  13.439  0.8361 -0.1394 -0.1947
   25DOPE    C1 3112   6.335   6.647  13.330 -0.3587  0.2298  0.3322
   25DOPE    HA 3113   6.265   6.642  13.244 -1.3875  1.4076  1.0628
   25DOPE    HB 3114   6.395   6.553  13.327 -1.9812 -0.9255  1.7748
   25DOPE    C2 3115   6.428   6.773  13.322 -0.6974 -0.1383 -0.0062
   25DOPE    HS 3116   6.478   6.772  13.421 -2.7149 -1.7252  1.0844
   25DOPE   O21 3117   6.347   6.895  13.320  0.1275  0.3728  0.0550
   25DOPE   C21 3118   6.406   7.017  13.343  0.0685 -0.1388  0.6137
   25DOPE   O22 3119   6.527   7.030  13.366 -0.0230 -0.1053  0.2997
   25DOPE   C22 3120   6.298   7.125  13.315 -0.2702 -0.6548 -0.2711
   25DOPE   H2R 3121   6.212   7.123  13.386  0.6152 -1.0151  0.8049
   25DOPE   H2S 3122   6.274   7.082  13.215  1.5082 -0.2610 -0.9071
   25DOPE    C3 3123   6.528   6.778  13.203 -0.0814  0.6527  0.7080
   25DOPE    HX 3124   6.589   6.685  13.212 -1.9626 -1.1677 -2.8750
   25DOPE    HY 3125   6.604   6.858  13.204  1.3709 -0.5591 -1.6884
   25DOPE   O31 3126   6.455   6.766  13.076  0.1032  0.7809  0.0060
   25DOPE   C31 3127   6.444   6.875  13.000  0.3430 -0.6683  0.1560
   25DOPE   O32 3128   6.517   6.972  13.011  0.5906 -0.0732  0.2292
   25DOPE   C32 3129   6.329   6.859  12.899  0.5419  1.1173 -0.0178
   25DOPE   H2X 3130   6.269   6.768  12.915 -0.8560  1.7866 -1.2197
   25DOPE   H2Y 3131   6.270   6.953  12.894  0.4850  1.0066 -3.2707
   25DOPE   C23 3132   6.359   7.261  13.288 -0.2880  0.1612  0.1649
   25DOPE   H3R 3133   6.458   7.251  13.239  0.0268 -0.7517  0.9675
   25DOPE   H3S 3134   6.365   7.320  13.382 -0.3378  2.7034 -1.3213
   25DOPE   C24 3135   6.276   7.345  13.188  0.0694  0.3523  0.2268
   25DOPE   H4R 3136   6.174   7.346  13.234 -0.8579  0.9226 -1.7128
   25DOPE   H4S 3137   6.280   7.295  13.089  0.7372  0.0231  0.4187
   25DOPE   C25 3138   6.325   7.484  13.161  0.3807 -0.1331  0.3382
   25DOPE   H5R 3139   6.421   7.483  13.106  1.0645  2.1469  1.3887
   25DOPE   H5S 3140   6.343   7.533  13.259  1.8189  0.2545 -0.0975
   25DOPE   C26 3141   6.214   7.581  13.110 -0.5868  0.2568 -0.5267
   25DOPE   H6R 3142   6.258   7.683  13.099 -0.4096  0.4325  1.4234
   25DOPE   H6S 3143   6.131   7.592  13.182 -1.3211  0.1891 -1.3438
   25DOPE   C27 3144   6.144   7.548  12.980  0.3178  0.4234  0.8884
   25DOPE   H7R 3145   6.158   7.438  12.965 -0.0425  0.3288  1.2328
   25DOPE   H7S 3146   6.193   7.603  12.897  0.2871 -2.6717 -1.3730
   25DOPE   C28 3147   5.991   7.575  12.977  0.1965 -0.1175  0.2486
   25DOPE   H8R 3148   5.979   7.685  12.968 -1.8818 -0.3097  0.3304
   25DOPE   H8S 3149   5.950   7.540  13.074 -0.4716 -2.0572 -0.6714
   25DOPE   C29 3150   5.914   7.513  12.859 -0.3991  0.0889 -0.3743
   25DOPE   H9R 3151   5.860   7.420  12.879  0.0424 -0.3218 -1.0385
   25DOPE  C210 3152   5.916   7.567  12.734  0.0431  0.2612 -0.1839
   25DOPE  H10R 3153   5.869   7.518  12.647  0.0288 -1.5706  0.8051
   25DOPE  C211 3154   5.987   7.695  12.689  0.5022 -0.3301  0.0235
   25DOPE  H11R 3155   6.029   7.754  12.773  2.1780 -1.3862 -0.0273
   25DOPE  H11S 3156   5.916   7.761  12.636  0.6789 -1.3757 -1.5802
   25DOPE  C212 3157   6.111   7.670  12.612  0.0585 -0.2984 -0.0906
   25DOPE  H12R 3158   6.192   7.618  12.668 -1.3610 -0.8479  1.5110
   25DOPE  H12S 3159   6.154   7.765  12.572 -1.0968  0.3024  0.0520
   25DOPE  C213 3160   6.079   7.580  12.485  0.0264 -0.0075 -0.4526
   25DOPE  H13R 3161   6.042   7.481  12.518 -0.6917 -0.6842 -3.1038
   25DOPE  H13S 3162   6.174   7.547  12.440  1.0125 -0.3207  1.7151
   25DOPE  C214 3163   5.987   7.651  12.382 -0.4846 -0.6884 -0.5282
   25DOPE  H14R 3164   6.037   7.727  12.318 -2.5191  0.9692 -0.2679
   25DOPE  H14S 3165   5.901   7.689  12.441  0.9812  0.8466  0.7051
   25DOPE  C215 3166   5.922   7.555  12.279 -0.3499 -0.0970 -0.1507
   25DOPE  H15R 3167   5.886   7.469  12.340  2.3383  0.2123  2.0366
   25DOPE  H15S 3168   6.006   7.518  12.218 -0.3931  1.7391 -1.3789
   25DOPE  C216 3169   5.835   7.635  12.183 -0.1013 -0.6905  0.3160
   25DOPE  H16R 3170   5.875   7.733  12.149  1.1186 -0.4278  2.3689
   25DOPE  H16S 3171   5.741   7.674  12.227  0.1031  0.0830  0.0842
   25DOPE  C217 3172   5.806   7.556  12.055 -0.0303  0.8384  0.3598
   25DOPE  H17R 3173   5.756   7.458  12.073  1.0381  0.3932  0.9562
   25DOPE  H17S 3174   5.910   7.543  12.020  0.6391  4.8759  0.3842
   25DOPE  C218 3175   5.724   7.630  11.943 -0.5025 -0.7460  0.4648
   25DOPE  H18R 3176   5.792   7.696  11.885 -2.5434  0.5385 -0.6205
   25DOPE  H18S 3177   5.638   7.694  11.972  1.6087  2.4611  0.2441
   25DOPE  H18T 3178   5.690   7.555  11.868  1.0718 -1.3186  0.2866
   25DOPE   C33 3179   6.389   6.854  12.757  0.0914 -0.1523  0.1945
   25DOPE   H3X 3180   6.424   6.750  12.736 -0.4926 -0.5463  1.0928
   25DOPE   H3Y 3181   6.479   6.915  12.736 -1.8946  2.6073 -0.8970
   25DOPE   C34 3182   6.281   6.885  12.637 -1.1515  0.0901  0.4510
   25DOPE   H4X 3183   6.245   6.990  12.642  1.0376  0.9077 -0.1989
   25DOPE   H4Y 3184   6.335   6.868  12.541 -1.8533 -1.5197  0.3080
   25DOPE   C35 3185   6.163   6.789  12.638  0.3417  0.1779 -0.3740
   25DOPE   H5X 3186   6.090   6.818  12.717  0.7629  0.4843 -0.0953
   25DOPE   H5Y 3187   6.210   6.690  12.658 -0.4285 -0.2717 -0.7201
   25DOPE   C36 3188   6.073   6.778  12.510  0.6008  0.4161 -1.0052
   25DOPE   H6X 3189   6.027   6.878  12.497  0.1875  0.3996  0.1474
   25DOPE   H6Y 3190   5.993   6.705  12.535  1.2911  0.5276  2.0387
   25DOPE   C37 3191   6.149   6.739  12.391 -0.7656 -0.0328  0.2185
   25DOPE   H7X 3192   6.246   6.792  12.383 -0.2781 -1.0458 -1.0033
   25DOPE   H7Y 3193   6.181   6.633  12.384 -2.0248 -0.4217  0.1094
   25DOPE   C38 3194   6.079   6.790  12.261  0.0892 -0.4028  0.6759
   25DOPE   H8X 3195   6.142   6.754  12.177  0.3090  1.4715  0.0092
   25DOPE   H8Y 3196   6.066   6.900  12.266 -0.2799 -0.3288 -1.2433
   25DOPE   C39 3197   5.943   6.730  12.236  0.1247  0.2080 -0.1972
   25DOPE   H9X 3198   5.891   6.704  12.330  0.8965 -0.4663  0.0497
   25DOPE  C310 3199   5.876   6.712  12.118 -0.4399  0.2683  0.1753
   25DOPE  H10X 3200   5.772   6.677  12.122  0.0525 -1.5541 -1.5437
   25DOPE  C311 3201   5.916   6.752  11.975  0.0520 -0.2739 -0.0472
   25DOPE  H11X 3202   5.839   6.822  11.937  0.8192  0.2469 -0.6803
   25DOPE  H11Y 3203   6.006   6.817  11.984  0.2665 -0.6316  0.4620
   25DOPE  C312 3204   5.934   6.642  11.873  0.7434  0.4620  0.0277
   25DOPE  H12X 3205   5.840   6.584  11.884 -0.6669  2.1855 -2.0657
   25DOPE  H12Y 3206   6.007   6.567  11.912  0.1353  0.1449  0.5598
   25DOPE  C313 3207   5.971   6.683  11.727 -0.6794  0.2424 -0.0708
   25DOPE  H13X 3208   5.950   6.606  11.649 -0.6841  0.2197 -0.0471
   25DOPE  H13Y 3209   5.896   6.761  11.703 -2.5629 -0.9015  1.7872
   25DOPE  C314 3210   6.113   6.742  11.719  0.2313 -0.0902  0.4290
   25DOPE  H14X 3211   6.112   6.827  11.790  1.5130 -0.4672  0.9292
   25DOPE  H14Y 3212   6.127   6.786  11.618 -1.3553  3.3696  1.5657
   25DOPE  C315 3213   6.225   6.636  11.741 -1.2579  0.1442  0.3271
   25DOPE  H15X 3214   6.211   6.582  11.837  0.4152 -0.7389  0.1056
   25DOPE  H15Y 3215   6.322   6.690  11.740 -1.1935  0.0632 -1.5613
   25DOPE  C316 3216   6.232   6.544  11.617 -0.2400  0.0727  0.1716
   25DOPE  H16X 3217   6.272   6.613  11.540  0.7845 -0.4612  0.2105
   25DOPE  H16Y 3218   6.133   6.501  11.594 -0.4467  0.1017  0.9589
   25DOPE  C317 3219   6.339   6.431  11.616  0.7881 -0.1706 -0.0320
   25DOPE  H17X 3220   6.431   6.478  11.656  0.8910  1.7690 -2.3593
   25DOPE  H17Y 3221   6.305   6.346  11.679  0.7434 -0.7919 -0.8705
   25DOPE  C318 3222   6.359   6.387  11.477 -0.2340  0.1993 -0.3428
   25DOPE  H18X 3223   6.400   6.469  11.414  0.1943 -0.4319 -0.9009
   25DOPE  H18Y 3224   6.423   6.296  11.470  1.8199  1.2916  2.6977
   25DOPE  H18Z 3225   6.260   6.355  11.437 -0.1844 -0.7390  0.2616
   26DOPE     N 3226   0.715   1.146  13.874 -0.1350 -0.0938  0.2248
   26DOPE   HN1 3227   0.805   1.094  13.873 -0.5644 -0.8602  0.8313
   26DOPE   HN2 3228   0.722   1.218  13.949 -1.1262  2.1215 -1.6885
   26DOPE   HN3 3229   0.648   1.073  13.906  0.8479 -0.9339  0.4195
   26DOPE   C12 3230   0.663   1.229  13.745  0.0050  0.3519 -0.4065
   26DOPE  H12A 3231   0.687   1.168  13.655  0.8095 -1.5304  1.0336
   26DOPE  H12B 3232   0.734   1.314  13.745 -0.6764  0.9362 -0.4452
   26DOPE   C11 3233   0.507   1.272  13.765 -0.0337  0.0102  0.4203
   26DOPE  H11A 3234   0.477   1.329  13.675  1.0668  0.6542  0.4493
   26DOPE  H11B 3235   0.494   1.347  13.847  0.9633 -0.3040  0.8760
   26DOPE     P 3236   0.413   1.031  13.691  0.1461 -0.4180  0.0440
   26DOPE   O13 3237   0.290   0.961  13.729  0.6623  0.5896 -0.0497
   26DOPE   O14 3238   0.538   0.956  13.702  0.7547 -0.9533  0.0789
   26DOPE   O11 3239   0.395   1.093  13.547 -0.8611  0.3387  0.1740
   26DOPE   O12 3240   0.426   1.157  13.786 -0.0005  0.3748  0.3755
   26DOPE    C1 3241   0.503   1.097  13.456 -0.0856 -0.1240  0.1916
   26DOPE    HA 3242   0.584   1.025  13.480 -0.2897 -0.2758  0.4329
   26DOPE    HB 3243   0.564   1.190  13.453 -1.2624  0.6393 -1.1197
   26DOPE    C2 3244   0.456   1.073  13.313 -0.3572  0.5281  0.5497
   26DOPE    HS 3245   0.401   0.977  13.311  0.1537  0.2455 -0.9089
   26DOPE   O21 3246   0.571   1.069  13.225  0.4083 -0.5806  0.3663
   26DOPE   C21 3247   0.648   0.964  13.241  0.7301  0.0922  0.0730
   26DOPE   O22 3248   0.612   0.861  13.296  0.1609  0.2360 -0.0792
   26DOPE   C22 3249   0.788   1.000  13.179  0.0768  0.4561  0.0181
   26DOPE   H2R 3250   0.845   0.905  13.175  0.7125  0.5920  3.2615
   26DOPE   H2S 3251   0.845   1.071  13.242  0.2097  0.9034 -0.6030
   26DOPE    C3 3252   0.363   1.185  13.263 -0.1260  0.3205  0.7693
   26DOPE    HX 3253   0.415   1.283  13.261  0.7811 -0.1673 -0.8309
   26DOPE    HY 3254   0.293   1.194  13.349 -0.0165 -0.9689  1.0153
   26DOPE   O31 3255   0.299   1.147  13.141 -0.8807  0.3083  0.3281
   26DOPE   C31 3256   0.318   1.226  13.042 -0.2597  0.8324 -0.4483
   26DOPE   O32 3257   0.394   1.326  13.042 -0.0689  0.2131 -0.0089
   26DOPE   C32 3258   0.228   1.193  12.925 -0.1002  0.1696  0.1516
   26DOPE   H2X 3259   0.130   1.170  12.973 -0.8454 -0.3325 -1.5242
   26DOPE   H2Y 3260   0.224   1.293  12.878  1.4681 -1.5309 -4.1132
   26DOPE   C23 3261   0.775   1.061  13.042  0.4574  0.5098 -0.6937
   26DOPE   H3R 3262   0.846   1.146  13.033 -1.0147  2.2609  2.4691
   26DOPE   H3S 3263   0.680   1.118  13.033 -0.2910 -0.3646  1.1607
   26DOPE   C24 3264   0.787   0.960  12.928 -0.5418  0.3184  0.7126
   26DOPE   H4R 3265   0.706   0.885  12.940 -2.4660  2.2824  0.6236
   26DOPE   H4S 3266   0.885   0.908  12.932 -0.9703 -0.5746  0.0340
   26DOPE   C25 3267   0.783   1.033  12.787  0.8801  0.4128 -0.3092
   26DOPE   H5R 3268   0.882   1.077  12.764  1.7344 -1.4721 -0.4982
   26DOPE   H5S 3269   0.712   1.118  12.793  0.2401 -0.2246  3.3518
   26DOPE   C26 3270   0.751   0.931  12.678  0.3143  0.0516  0.2802
   26DOPE   H6R 3271   0.640   0.927  12.669  0.3587 -1.2054  0.1790
   26DOPE   H6S 3272   0.797   0.831  12.687 -0.9602 -1.0141 -3.2468
   26DOPE   C27 3273   0.808   0.984  12.539  0.7851 -0.0941 -1.0626
   26DOPE   H7R 3274   0.918   1.000  12.539  0.6506  0.9437 -0.1720
   26DOPE   H7S 3275   0.759   1.083  12.522  1.0915  0.2749  0.1082
   26DOPE   C28 3276   0.757   0.895  12.422 -0.5349 -0.6353 -0.2734
   26DOPE   H8R 3277   0.646   0.898  12.411 -0.3392  0.5006 -2.7283
   26DOPE   H8S 3278   0.784   0.789  12.438  0.2044 -0.5758 -1.0622
   26DOPE   C29 3279   0.816   0.941  12.286 -0.5836  0.3500 -0.9383
   26DOPE   H9R 3280   0.909   0.888  12.263 -0.1994  0.8873 -0.6400
   26DOPE  C210 3281   0.747   1.020  12.196 -0.9237 -0.4472 -0.3847
   26DOPE  H10R 3282   0.795   1.038  12.099  0.3054  0.4298  0.3579
   26DOPE  C211 3283   0.622   1.088  12.229 -0.0883  0.6925 -0.3455
   26DOPE  H11R 3284   0.621   1.123  12.335  1.1613 -0.9693  0.2504
   26DOPE  H11S 3285   0.536   1.019  12.218  0.1638  0.3888 -0.3995
   26DOPE  C212 3286   0.604   1.209  12.149  0.4223  0.0428  0.3342
   26DOPE  H12R 3287   0.685   1.280  12.174 -1.0393  1.4190  1.3932
   26DOPE  H12S 3288   0.509   1.262  12.174 -0.3066 -1.3790  0.7004
   26DOPE  C213 3289   0.597   1.169  12.006 -0.2377  0.1557  0.3778
   26DOPE  H13R 3290   0.511   1.100  11.993 -1.6719  2.1460 -1.5774
   26DOPE  H13S 3291   0.689   1.121  11.965  0.4211  1.4423  0.3001
   26DOPE  C214 3292   0.583   1.292  11.922 -0.3411 -0.4940  0.1304
   26DOPE  H14R 3293   0.639   1.380  11.960 -1.6547  1.1533 -1.5571
   26DOPE  H14S 3294   0.477   1.324  11.929  0.0525  1.0249 -0.5308
   26DOPE  C215 3295   0.606   1.263  11.773  0.5259 -0.2549 -0.1005
   26DOPE  H15R 3296   0.706   1.217  11.758  1.8164  2.6834 -1.2294
   26DOPE  H15S 3297   0.613   1.362  11.723 -1.4884 -0.4316 -0.7957
   26DOPE  C216 3298   0.493   1.177  11.717  0.0206  0.1092  0.7222
   26DOPE  H16R 3299   0.404   1.239  11.741  1.1421  1.4606  1.6286
   26DOPE  H16S 3300   0.507   1.078  11.766  2.4000 -0.4281 -0.8604
   26DOPE  C217 3301   0.498   1.167  11.562  0.2554 -0.3765 -0.6641
   26DOPE  H17R 3302   0.598   1.128  11.533  1.2094  0.8313  0.8357
   26DOPE  H17S 3303   0.504   1.272  11.527  2.2030  1.3383  4.0311
   26DOPE  C218 3304   0.385   1.074  11.511  0.3516 -0.3900  0.2961
   26DOPE  H18R 3305   0.284   1.106  11.544 -0.4981 -2.4315 -0.1602
   26DOPE  H18S 3306   0.402   0.970  11.546 -0.1383  0.3071  2.7937
   26DOPE  H18T 3307   0.397   1.070  11.401  1.4778  0.1198  0.3771
   26DOPE   C33 3308   0.273   1.087  12.834  0.7598 -0.0998  0.9232
   26DOPE   H3X 3309   0.248   0.982  12.859  0.0137 -0.0737  0.3402
   26DOPE   H3Y 3310   0.384   1.085  12.833  0.7788 -2.4079  2.2868
   26DOPE   C34 3311   0.224   1.121  12.690 -0.1542  0.1468 -0.0923
   26DOPE   H4X 3312   0.113   1.132  12.688 -0.0603  1.3856  0.4417
   26DOPE   H4Y 3313   0.278   1.216  12.669  0.9290 -0.7497 -1.5445
   26DOPE   C35 3314   0.266   1.023  12.581 -0.1059 -1.1091 -0.0419
   26DOPE   H5X 3315   0.232   0.924  12.616 -2.9596 -0.1859  0.0446
   26DOPE   H5Y 3316   0.376   1.026  12.567 -0.0634  0.2493  0.4100
   26DOPE   C36 3317   0.193   1.076  12.450  0.1347 -0.4989 -1.2266
   26DOPE   H6X 3318   0.212   1.184  12.433  0.0063 -0.3911 -0.6959
   26DOPE   H6Y 3319   0.082   1.070  12.463 -0.0480  1.9111 -1.1545
   26DOPE   C37 3320   0.240   0.994  12.336  0.0899 -0.4983 -0.1906
   26DOPE   H7X 3321   0.349   0.970  12.332  0.4566  1.1772 -2.6206
   26DOPE   H7Y 3322   0.191   0.895  12.342 -1.0485  0.1183  1.3010
   26DOPE   C38 3323   0.215   1.065  12.199  1.2750 -0.4432 -0.6395
   26DOPE   H8X 3324   0.287   1.147  12.216  1.6118 -0.9269  0.3365
   26DOPE   H8Y 3325   0.110   1.100  12.187  1.3681 -0.7424 -2.5625
   26DOPE   C39 3326   0.258   0.983  12.075 -0.9293 -0.2421  0.0411
   26DOPE   H9X 3327   0.337   0.909  12.092 -0.5085  0.3388  0.6596
   26DOPE  C310 3328   0.189   0.970  11.964  0.3536 -0.6394 -0.1362
   26DOPE  H10X 3329   0.226   0.901  11.886 -1.1782 -0.9797 -0.5956
   26DOPE  C311 3330   0.061   1.042  11.928 -0.5354 -0.2032 -0.6820
   26DOPE  H11X 3331  -0.025   0.971  11.929  0.0983 -0.9742 -0.0484
   26DOPE  H11Y 3332   0.049   1.131  11.994 -0.0886 -0.8957  0.3640
   26DOPE  C312 3333   0.055   1.080  11.775  0.2118 -0.1146  0.0489
   26DOPE  H12X 3334   0.059   0.993  11.706  0.7407  0.4660 -0.6708
   26DOPE  H12Y 3335   0.137   1.155  11.763 -0.8119  1.2276  1.0522
   26DOPE  C313 3336  -0.077   1.155  11.758 -0.1828 -0.3083 -0.5345
   26DOPE  H13X 3337  -0.157   1.083  11.786 -0.2060  0.2398  0.9262
   26DOPE  H13Y 3338  -0.087   1.235  11.835  1.3226 -1.4391  0.8952
   26DOPE  C314 3339  -0.100   1.205  11.618 -0.1664 -0.1698  0.5078
   26DOPE  H14X 3340  -0.096   1.127  11.539 -1.2062  0.7177 -0.4530
   26DOPE  H14Y 3341  -0.009   1.264  11.595 -0.9979  0.7833 -0.4576
   26DOPE  C315 3342  -0.210   1.303  11.601  0.5531  0.2193 -0.0918
   26DOPE  H15X 3343  -0.187   1.358  11.508 -1.7367 -1.2207 -1.6185
   26DOPE  H15Y 3344  -0.212   1.373  11.687  2.8687  1.5362 -1.0145
   26DOPE  C316 3345  -0.346   1.234  11.571  0.0082  0.4564  0.5731
   26DOPE  H16X 3346  -0.368   1.167  11.657  0.4391 -2.3467 -1.3772
   26DOPE  H16Y 3347  -0.341   1.162  11.487  0.8909  1.7956 -0.5967
   26DOPE  C317 3348  -0.462   1.330  11.546  0.3609 -0.4111  0.8607
   26DOPE  H17X 3349  -0.472   1.399  11.633 -1.8659  0.9732 -0.3824
   26DOPE  H17Y 3350  -0.438   1.393  11.457  2.3952  0.3296  1.8844
   26DOPE  C318 3351  -0.596   1.256  11.525  0.9078 -0.7430 -0.0812
   26DOPE  H18X 3352  -0.648   1.202  11.607 -1.2474  1.1843 -0.0858
   26DOPE  H18Y 3353  -0.674   1.328  11.492  0.2023 -1.6360 -0.3827
   26DOPE  H18Z 3354  -0.583   1.187  11.440 -2.7846  0.5987 -1.9545
   27DOPE     N 3355   4.461   6.609  13.320 -0.1110 -0.5651  0.2415
   27DOPE   HN1 3356   4.432   6.537  13.390  1.8585 -0.7241  0.9642
   27DOPE   HN2 3357   4.384   6.643  13.260  0.3662 -0.8001 -0.5235
   27DOPE   HN3 3358   4.536   6.564  13.263 -0.3126 -0.4504 -0.1134
   27DOPE   C12 3359   4.537   6.710  13.391  0.2013  0.2104  0.7217
   27DOPE  H12A 3360   4.605   6.656  13.461 -0.4324  1.5189  2.4227
   27DOPE  H12B 3361   4.462   6.764  13.452 -1.0878 -1.5045  0.7274
   27DOPE   C11 3362   4.590   6.799  13.281 -0.0094  0.5747  0.6208
   27DOPE  H11A 3363   4.638   6.739  13.201  0.3330 -0.1510  1.3555
   27DOPE  H11B 3364   4.666   6.866  13.325  1.5944 -1.5106  1.1898
   27DOPE     P 3365   4.501   7.008  13.159  0.0395  0.1586 -0.0190
   27DOPE   O13 3366   4.544   7.115  13.248  0.0527 -0.3230 -0.3567
   27DOPE   O14 3367   4.382   7.040  13.076 -0.2975  0.5623  0.1492
   27DOPE   O11 3368   4.616   6.976  13.063 -0.2577  0.3993 -0.0460
   27DOPE   O12 3369   4.481   6.876  13.234  0.2130  0.2356  0.0402
   27DOPE    C1 3370   4.598   6.882  12.955  0.4841  0.8994  0.4161
   27DOPE    HA 3371   4.502   6.826  12.958  1.1211 -0.2679 -0.3717
   27DOPE    HB 3372   4.665   6.796  12.977 -0.6561  0.6331  3.3678
   27DOPE    C2 3373   4.621   6.936  12.807 -0.4860  0.3350 -0.7325
   27DOPE    HS 3374   4.655   6.854  12.741 -0.8179 -2.6638  2.5354
   27DOPE   O21 3375   4.711   7.044  12.804 -0.2507  0.2289 -0.4065
   27DOPE   C21 3376   4.837   6.995  12.808  0.3858  0.4087  0.5858
   27DOPE   O22 3377   4.866   6.876  12.819 -0.3363 -0.0214 -0.2311
   27DOPE   C22 3378   4.940   7.103  12.800 -0.3084 -0.4225 -0.4607
   27DOPE   H2R 3379   4.974   7.126  12.903 -0.7445 -0.1336 -0.3803
   27DOPE   H2S 3380   4.896   7.194  12.753  1.9107  1.5163  0.9594
   27DOPE    C3 3381   4.486   6.989  12.754  0.3595 -0.2943  0.0375
   27DOPE    HX 3382   4.443   7.042  12.842 -0.9088 -1.7666  0.3477
   27DOPE    HY 3383   4.413   6.907  12.737 -2.1519  1.5983  1.0359
   27DOPE   O31 3384   4.495   7.075  12.640 -0.1085 -0.5717  0.4475
   27DOPE   C31 3385   4.536   7.026  12.523 -0.6054 -0.4127 -0.2182
   27DOPE   O32 3386   4.561   6.907  12.497 -0.7331 -0.6174 -0.2783
   27DOPE   C32 3387   4.520   7.141  12.424 -0.4262 -0.6573 -0.0376
   27DOPE   H2X 3388   4.412   7.138  12.401 -0.1140 -0.7976 -1.5548
   27DOPE   H2Y 3389   4.536   7.232  12.485 -0.8223 -0.5620 -0.0743
   27DOPE   C23 3390   5.070   7.055  12.718  0.2680  0.4125 -1.4035
   27DOPE   H3R 3391   5.095   6.949  12.738 -0.5307  0.4623 -0.0320
   27DOPE   H3S 3392   5.148   7.120  12.764  0.7429 -0.8093 -0.4338
   27DOPE   C24 3393   5.050   7.080  12.569  0.7502 -0.2406 -0.3034
   27DOPE   H4R 3394   5.021   7.186  12.549 -1.7341 -1.0047 -1.1178
   27DOPE   H4S 3395   4.973   7.013  12.526 -0.2138  0.3631  0.4470
   27DOPE   C25 3396   5.183   7.055  12.493 -0.7682 -0.0274  0.1187
   27DOPE   H5R 3397   5.196   6.944  12.489 -5.3922 -0.8017  0.6883
   27DOPE   H5S 3398   5.258   7.109  12.554 -1.6330 -1.2751  2.3933
   27DOPE   C26 3399   5.176   7.124  12.356  0.9118 -0.6012  0.1758
   27DOPE   H6R 3400   5.272   7.126  12.299 -0.3762 -0.2727 -2.0775
   27DOPE   H6S 3401   5.137   7.226  12.374  1.8480 -0.0237 -0.9026
   27DOPE   C27 3402   5.087   7.046  12.258  0.0924 -0.2295 -0.2559
   27DOPE   H7R 3403   4.987   7.021  12.302  1.0586 -0.2061  2.1427
   27DOPE   H7S 3404   5.132   6.950  12.227 -2.1264 -0.9722 -1.4168
   27DOPE   C28 3405   5.049   7.135  12.138  0.6005 -0.2185 -0.0792
   27DOPE   H8R 3406   5.147   7.162  12.093  0.0905  0.2762 -0.9155
   27DOPE   H8S 3407   4.994   7.226  12.169  2.0607  0.3641  0.8767
   27DOPE   C29 3408   4.966   7.063  12.038 -0.4440 -0.2201 -0.4544
   27DOPE   H9R 3409   4.884   6.998  12.072 -1.7160  0.5543 -1.9144
   27DOPE  C210 3410   4.995   7.058  11.905 -0.4238  0.6275 -0.5461
   27DOPE  H10R 3411   4.928   6.996  11.843 -1.0570 -0.4999  1.1859
   27DOPE  C211 3412   5.104   7.129  11.830  0.4542 -0.0723  0.1241
   27DOPE  H11R 3413   5.198   7.102  11.883 -0.6409  0.9232  2.7248
   27DOPE  H11S 3414   5.081   7.235  11.849 -0.4330 -0.5926  2.1916
   27DOPE  C212 3415   5.108   7.119  11.674  0.0848 -0.5638  0.2132
   27DOPE  H12R 3416   5.120   7.010  11.656 -0.6622 -1.0944  2.5337
   27DOPE  H12S 3417   5.202   7.158  11.629  0.0995  0.1492  0.8435
   27DOPE  C213 3418   4.974   7.175  11.613  0.0290 -0.4975 -0.0908
   27DOPE  H13R 3419   4.980   7.286  11.616 -0.8959 -0.3828 -1.4749
   27DOPE  H13S 3420   4.893   7.147  11.684 -0.0610 -1.3475 -0.5158
   27DOPE  C214 3421   4.945   7.118  11.475  0.3563  0.2396  0.0496
   27DOPE  H14R 3422   4.860   7.150  11.411  2.0248 -1.4136 -3.3038
   27DOPE  H14S 3423   4.928   7.011  11.499  1.7863  0.3739  1.8628
   27DOPE  C215 3424   5.067   7.128  11.382 -0.4299  0.6276  0.2359
   27DOPE  H15R 3425   5.163   7.101  11.429 -0.9112 -0.1036  0.8348
   27DOPE  H15S 3426   5.088   7.233  11.353 -1.6519  1.1898  1.2931
   27DOPE  C216 3427   5.058   7.041  11.254 -0.3065  0.2692 -0.8018
   27DOPE  H16R 3428   5.142   7.079  11.191  1.2395  0.9096  1.5099
   27DOPE  H16S 3429   4.966   7.076  11.203 -0.2513 -0.5260 -1.4798
   27DOPE  C217 3430   5.061   6.889  11.283  0.0716 -0.0040  0.3474
   27DOPE  H17R 3431   5.070   6.848  11.180  0.3308 -2.1937  1.1892
   27DOPE  H17S 3432   4.963   6.854  11.322  0.6406  0.0861  1.9286
   27DOPE  C218 3433   5.168   6.830  11.367 -1.1638  0.8493 -0.2525
   27DOPE  H18R 3434   5.166   6.719  11.371  0.2047  0.8285  3.1893
   27DOPE  H18S 3435   5.164   6.864  11.473  0.0651 -0.0146  0.0936
   27DOPE  H18T 3436   5.262   6.869  11.322 -1.9072  1.1407 -1.6112
   27DOPE   C33 3437   4.619   7.131  12.306 -0.4481  0.8035  0.0943
   27DOPE   H3X 3438   4.621   7.025  12.273 -1.0507  0.5524  0.8406
   27DOPE   H3Y 3439   4.723   7.166  12.325 -0.2754 -0.8650  2.7228
   27DOPE   C34 3440   4.568   7.221  12.198  0.2145  0.2018 -0.0132
   27DOPE   H4X 3441   4.461   7.202  12.175  0.0117 -0.4889  1.4084
   27DOPE   H4Y 3442   4.568   7.318  12.252  0.4238 -0.1006  0.5418
   27DOPE   C35 3443   4.658   7.237  12.078 -0.4530  0.2076  0.0811
   27DOPE   H5X 3444   4.669   7.139  12.027  0.6556  0.1204  0.4627
   27DOPE   H5Y 3445   4.765   7.255  12.102  0.1845 -0.1321 -2.2456
   27DOPE   C36 3446   4.620   7.352  11.977 -0.0187  0.2966  0.0556
   27DOPE   H6X 3447   4.608   7.438  12.045 -0.9273 -1.1273  1.7926
   27DOPE   H6Y 3448   4.513   7.333  11.954 -0.4927  3.0201 -0.2616
   27DOPE   C37 3449   4.705   7.361  11.855 -0.3841 -0.1141 -0.3503
   27DOPE   H7X 3450   4.804   7.392  11.894 -1.0686  0.1781  1.2340
   27DOPE   H7Y 3451   4.726   7.263  11.806  0.3090  0.7622 -1.8641
   27DOPE   C38 3452   4.655   7.468  11.751 -0.5140  0.2204 -0.2131
   27DOPE   H8X 3453   4.741   7.500  11.688 -0.2108 -2.5493 -1.3403
   27DOPE   H8Y 3454   4.625   7.553  11.816 -0.1647  1.0851 -1.1455
   27DOPE   C39 3455   4.538   7.420  11.666 -0.5745  0.2266  0.1845
   27DOPE   H9X 3456   4.442   7.395  11.713 -0.4937  1.0495  0.8049
   27DOPE  C310 3457   4.546   7.385  11.536  0.5817  0.3363  0.0747
   27DOPE  H10X 3458   4.455   7.353  11.483  0.4423  0.0613  0.4756
   27DOPE  C311 3459   4.672   7.385  11.453 -0.2172 -0.7168  0.6482
   27DOPE  H11X 3460   4.765   7.366  11.511 -0.1894 -3.1751 -0.0863
   27DOPE  H11Y 3461   4.674   7.295  11.387  0.4521 -0.9062  0.9135
   27DOPE  C312 3462   4.687   7.507  11.353 -0.1706 -0.7360  0.6331
   27DOPE  H12X 3463   4.662   7.602  11.406  0.0948 -1.1546  1.5368
   27DOPE  H12Y 3464   4.610   7.492  11.274  0.5481  1.5743 -0.6005
   27DOPE  C313 3465   4.825   7.506  11.285  0.2221 -0.6758  0.0011
   27DOPE  H13X 3466   4.850   7.403  11.251  1.3639  0.2614 -2.1605
   27DOPE  H13Y 3467   4.823   7.563  11.190  1.7487  0.8066  0.8046
   27DOPE  C314 3468   4.930   7.577  11.372 -0.5179 -0.7515 -0.3752
   27DOPE  H14X 3469   5.029   7.530  11.350 -0.1320 -1.4522  2.4892
   27DOPE  H14Y 3470   4.914   7.573  11.481 -1.7516  0.8149 -0.4587
   27DOPE  C315 3471   4.953   7.718  11.325  0.3242 -0.0289  0.8505
   27DOPE  H15X 3472   4.863   7.782  11.316  0.5804  0.1451 -0.8756
   27DOPE  H15Y 3473   4.993   7.713  11.221  0.7644 -0.7697  1.0453
   27DOPE  C316 3474   5.051   7.798  11.411 -0.1933 -0.1864  0.0938
   27DOPE  H16X 3475   4.991   7.826  11.501 -1.0976 -0.4190 -0.4282
   27DOPE  H16Y 3476   5.076   7.892  11.358  1.9986 -1.1005 -0.6102
   27DOPE  C317 3477   5.173   7.716  11.461 -0.2472 -0.4308 -0.0001
   27DOPE  H17X 3478   5.237   7.768  11.536  0.1218 -1.8110  0.6746
   27DOPE  H17Y 3479   5.143   7.619  11.508 -0.4115 -1.4278 -2.0615
   27DOPE  C318 3480   5.265   7.670  11.344 -0.1160 -0.7908  0.4888
   27DOPE  H18X 3481   5.343   7.595  11.369  0.3266  0.0979  1.9031
   27DOPE  H18Y 3482   5.195   7.624  11.271 -1.6491  2.3526 -0.2070
   27DOPE  H18Z 3483   5.308   7.752  11.281  0.0820 -1.0200  0.3216
   28DOPE     N 3484   5.097   0.015  13.137  0.0054  0.4026  0.1647
   28DOPE   HN1 3485   5.130   0.032  13.234  1.6178 -0.7180 -0.1539
   28DOPE   HN2 3486   5.014  -0.049  13.136 -1.1126  1.7350  1.7162
   28DOPE   HN3 3487   5.179  -0.036  13.100 -0.3205  1.2629 -1.8226
   28DOPE   C12 3488   5.097   0.146  13.076 -0.0541 -1.3572  0.3224
   28DOPE  H12A 3489   5.037   0.147  12.982 -2.3917  0.5417  1.7061
   28DOPE  H12B 3490   5.196   0.188  13.048 -1.3401  1.4578 -0.3240
   28DOPE   C11 3491   5.026   0.236  13.181 -0.9023 -0.4829 -0.5599
   28DOPE  H11A 3492   4.921   0.201  13.183 -0.3429 -2.2345  0.9039
   28DOPE  H11B 3493   5.026   0.343  13.152  0.7818  0.0587  1.1969
   28DOPE     P 3494   5.207   0.309  13.372  0.0650  0.1275  0.1792
   28DOPE   O13 3495   5.268   0.240  13.486 -0.1990  0.8496  0.2696
   28DOPE   O14 3496   5.151   0.446  13.399  0.4554  0.8405 -0.6661
   28DOPE   O11 3497   5.317   0.298  13.257  0.4586 -0.4015  0.5007
   28DOPE   O12 3498   5.088   0.218  13.312  0.0356  0.6005 -0.0397
   28DOPE    C1 3499   5.424   0.399  13.256  0.0874  0.3536 -0.5206
   28DOPE    HA 3500   5.518   0.342  13.269 -0.1613  0.0844  0.1754
   28DOPE    HB 3501   5.425   0.469  13.342  0.7123 -0.1506 -0.1124
   28DOPE    C2 3502   5.431   0.474  13.124 -0.4979 -0.2029 -1.2465
   28DOPE    HS 3503   5.504   0.558  13.129 -1.3436  0.4844  0.2799
   28DOPE   O21 3504   5.305   0.521  13.086  0.1031  0.2884  0.2203
   28DOPE   C21 3505   5.283   0.631  13.153 -0.3563 -0.3876 -0.0654
   28DOPE   O22 3506   5.364   0.680  13.228  0.4757 -0.5387 -0.4310
   28DOPE   C22 3507   5.143   0.678  13.122  0.0346 -0.4804 -0.4896
   28DOPE   H2R 3508   5.079   0.680  13.212  0.9481  0.3057  0.1691
   28DOPE   H2S 3509   5.099   0.618  13.039  0.4390  0.5977 -1.5180
   28DOPE    C3 3510   5.489   0.376  13.014 -0.5958  0.3811 -0.2048
   28DOPE    HX 3511   5.431   0.283  13.031  2.5887 -1.5916  0.6510
   28DOPE    HY 3512   5.593   0.352  13.044 -1.2737 -0.4594  1.6181
   28DOPE   O31 3513   5.477   0.438  12.883  0.3126 -0.2159  0.6328
   28DOPE   C31 3514   5.569   0.533  12.852  0.1932  0.5538 -0.6942
   28DOPE   O32 3515   5.657   0.570  12.926  0.0840 -0.8204 -0.8352
   28DOPE   C32 3516   5.546   0.581  12.710  0.0671  0.1259  0.3766
   28DOPE   H2X 3517   5.634   0.547  12.651  0.2001  0.4136  0.4062
   28DOPE   H2Y 3518   5.456   0.532  12.667 -1.2469  0.4947  2.5909
   28DOPE   C23 3519   5.137   0.827  13.070 -0.1366 -0.0778  0.3457
   28DOPE   H3R 3520   5.183   0.904  13.135 -2.4591  1.5372  0.2008
   28DOPE   H3S 3521   5.029   0.849  13.083 -0.1162  1.5689 -1.6109
   28DOPE   C24 3522   5.177   0.843  12.922  0.6628  0.2280 -1.0496
   28DOPE   H4R 3523   5.115   0.784  12.851  0.0436  1.0493 -1.2211
   28DOPE   H4S 3524   5.284   0.817  12.908  0.9183 -0.6119  1.8752
   28DOPE   C25 3525   5.170   0.988  12.884 -0.5862  0.0191 -0.0802
   28DOPE   H5R 3526   5.251   1.033  12.946 -0.1138  0.9827 -1.3623
   28DOPE   H5S 3527   5.073   1.034  12.913  0.8638  2.1350  1.7423
   28DOPE   C26 3528   5.213   1.017  12.740 -0.1700 -0.0693  0.5028
   28DOPE   H6R 3529   5.114   1.009  12.690 -0.7517  3.0639  0.9462
   28DOPE   H6S 3530   5.294   0.952  12.702  1.3857  2.5349 -0.9372
   28DOPE   C27 3531   5.274   1.157  12.730  0.3526 -0.8643  0.4495
   28DOPE   H7R 3532   5.364   1.158  12.795 -0.1746 -0.6144  1.1806
   28DOPE   H7S 3533   5.210   1.235  12.774  0.0630 -1.7861  1.6989
   28DOPE   C28 3534   5.315   1.196  12.588 -0.6169 -0.7999 -0.3406
   28DOPE   H8R 3535   5.389   1.119  12.557  0.6210  0.4755 -0.6540
   28DOPE   H8S 3536   5.376   1.287  12.603 -3.7476  1.3920 -0.1009
   28DOPE   C29 3537   5.193   1.223  12.500  0.0516 -0.5150 -0.3894
   28DOPE   H9R 3538   5.091   1.243  12.537  1.1533 -1.5146  3.7025
   28DOPE  C210 3539   5.207   1.226  12.368  0.7798 -0.7068  0.6189
   28DOPE  H10R 3540   5.124   1.239  12.297 -0.4781 -0.9265  1.9930
   28DOPE  C211 3541   5.339   1.222  12.301  0.0775 -0.6527  0.6732
   28DOPE  H11R 3542   5.378   1.119  12.318 -1.1448 -1.0581  1.1048
   28DOPE  H11S 3543   5.410   1.290  12.354 -2.2379  1.7962  0.8796
   28DOPE  C212 3544   5.334   1.254  12.148  0.2483  0.5302 -0.4601
   28DOPE  H12R 3545   5.264   1.340  12.139 -2.2046 -1.4684 -2.0487
   28DOPE  H12S 3546   5.271   1.174  12.102 -2.5136  0.8255  2.4405
   28DOPE  C213 3547   5.465   1.280  12.078  0.2639 -0.0762 -0.7630
   28DOPE  H13R 3548   5.534   1.210  12.129 -0.6844 -0.0454  0.6159
   28DOPE  H13S 3549   5.498   1.385  12.091  1.9287 -0.5636 -0.8949
   28DOPE  C214 3550   5.448   1.225  11.933 -0.2606  0.0813 -0.7631
   28DOPE  H14R 3551   5.413   1.120  11.933 -0.9990  0.2736  1.6560
   28DOPE  H14S 3552   5.552   1.237  11.894 -0.2363  2.0010 -0.2370
   28DOPE  C215 3553   5.347   1.305  11.845 -0.6626  0.1402 -0.4517
   28DOPE  H15R 3554   5.346   1.410  11.883  3.2177  0.1000  0.2270
   28DOPE  H15S 3555   5.254   1.247  11.836 -0.3664 -0.9252  2.3439
   28DOPE  C216 3556   5.415   1.306  11.706  0.0523 -0.2242  0.5980
   28DOPE  H16R 3557   5.395   1.205  11.663 -2.0275 -0.7621  2.6581
   28DOPE  H16S 3558   5.526   1.318  11.708 -0.0422  0.9877 -0.1353
   28DOPE  C217 3559   5.342   1.409  11.612 -0.3755  0.3475 -0.2257
   28DOPE  H17R 3560   5.363   1.515  11.642 -0.1948  0.1081  0.5269
   28DOPE  H17S 3561   5.242   1.372  11.641  0.0132  0.6030  1.5775
   28DOPE  C218 3562   5.357   1.382  11.466  0.3349  0.1453 -0.0267
   28DOPE  H18R 3563   5.454   1.409  11.420 -0.0127  1.7282  0.1205
   28DOPE  H18S 3564   5.271   1.422  11.409 -0.2953 -0.8680  0.1683
   28DOPE  H18T 3565   5.343   1.273  11.450  1.1757 -0.0004  0.1898
   28DOPE   C33 3566   5.527   0.730  12.701  0.2746  0.3745 -0.8467
   28DOPE   H3X 3567   5.606   0.778  12.762  1.3630 -1.7742 -0.4545
   28DOPE   H3Y 3568   5.426   0.753  12.741  0.5006  1.3267 -0.7995
   28DOPE   C34 3569   5.543   0.782  12.557 -0.1096  0.4982  0.4073
   28DOPE   H4X 3570   5.557   0.892  12.559 -2.0136  0.7600  0.5059
   28DOPE   H4Y 3571   5.642   0.744  12.521 -0.1262  0.8014  0.0341
   28DOPE   C35 3572   5.421   0.744  12.463 -0.5256 -0.0952 -0.3553
   28DOPE   H5X 3573   5.329   0.785  12.510  0.8101  0.3924  1.9943
   28DOPE   H5Y 3574   5.417   0.633  12.462 -1.2282 -0.0783 -1.3581
   28DOPE   C36 3575   5.451   0.784  12.317  0.1410 -0.0255  0.0849
   28DOPE   H6X 3576   5.552   0.752  12.283 -0.0985  0.5798 -1.2907
   28DOPE   H6Y 3577   5.440   0.894  12.308  0.0369 -0.0348  0.1073
   28DOPE   C37 3578   5.348   0.725  12.215 -0.2523  0.3345 -1.1885
   28DOPE   H7X 3579   5.359   0.615  12.215  1.9619  0.4915  0.2410
   28DOPE   H7Y 3580   5.246   0.749  12.251  0.4484 -1.3653  2.4236
   28DOPE   C38 3581   5.384   0.790  12.078 -0.4087 -0.8569  0.0784
   28DOPE   H8X 3582   5.487   0.757  12.053 -0.8420 -2.0871 -0.1842
   28DOPE   H8Y 3583   5.384   0.901  12.081  1.2079 -0.8529  1.6493
   28DOPE   C39 3584   5.288   0.738  11.971  0.0756 -0.2726 -0.2908
   28DOPE   H9X 3585   5.319   0.652  11.911 -1.1085 -1.5383  0.8345
   28DOPE  C310 3586   5.167   0.797  11.950 -0.8092  0.3757 -0.0419
   28DOPE  H10X 3587   5.098   0.758  11.873 -0.1513  0.1370 -0.5227
   28DOPE  C311 3588   5.109   0.915  12.013  0.6519  0.0970 -0.5601
   28DOPE  H11X 3589   5.016   0.895  12.070  0.3906  0.3121 -0.9085
   28DOPE  H11Y 3590   5.174   0.971  12.084  0.0270 -0.2918  0.3324
   28DOPE  C312 3591   5.067   1.017  11.911 -0.1526  0.0673  0.4516
   28DOPE  H12X 3592   5.161   1.041  11.857  1.2443 -1.8513  1.8858
   28DOPE  H12Y 3593   5.054   1.115  11.961  1.6086  0.7251 -0.2958
   28DOPE  C313 3594   4.952   0.983  11.818  0.0017  0.2153 -0.4438
   28DOPE  H13X 3595   4.984   0.928  11.727  0.4926  3.9388 -2.7287
   28DOPE  H13Y 3596   4.884   0.920  11.879 -1.5136  0.6103 -1.6732
   28DOPE  C314 3597   4.889   1.115  11.764 -0.0221 -0.0601 -0.7381
   28DOPE  H14X 3598   4.962   1.157  11.692 -0.6701  0.6303 -1.0046
   28DOPE  H14Y 3599   4.877   1.186  11.849  0.9483  1.3166 -1.7099
   28DOPE  C315 3600   4.750   1.089  11.690  0.5925  0.2691  0.2663
   28DOPE  H15X 3601   4.687   1.056  11.775  0.5719  0.1830  0.2178
   28DOPE  H15Y 3602   4.759   1.013  11.609  2.3104 -2.6782  2.9732
   28DOPE  C316 3603   4.678   1.211  11.629  0.2235  0.3675 -0.4116
   28DOPE  H16X 3604   4.685   1.296  11.701 -2.3411  0.7485 -0.5237
   28DOPE  H16Y 3605   4.571   1.180  11.623  1.1212 -2.8906 -1.4012
   28DOPE  C317 3606   4.728   1.248  11.493  0.2922 -0.4704 -0.1962
   28DOPE  H17X 3607   4.832   1.281  11.514  0.1965 -0.3115  0.0447
   28DOPE  H17Y 3608   4.722   1.157  11.430 -2.8681 -0.9240  0.5922
   28DOPE  C318 3609   4.660   1.371  11.421  0.2115  0.2660 -0.7686
   28DOPE  H18X 3610   4.727   1.393  11.335  1.7641 -2.1732 -0.3130
   28DOPE  H18Y 3611   4.559   1.341  11.387 -1.7685 -0.4752  4.6837
   28DOPE  H18Z 3612   4.645   1.460  11.486 -0.4664 -0.2890 -0.1377
   29DOPE     N 3613   5.839   2.577  13.598  0.1743  0.2603  0.1161
   29DOPE   HN1 3614   5.834   2.475  13.577  1.8258  0.2544 -0.4267
   29DOPE   HN2 3615   5.868   2.586  13.697  0.9470 -0.0636 -0.0738
   29DOPE   HN3 3616   5.740   2.608  13.588  0.3182  0.4040 -1.1122
   29DOPE   C12 3617   5.916   2.643  13.488 -0.0056 -0.2318  0.5387
   29DOPE  H12A 3618   5.892   2.750  13.505 -1.8859 -0.6906  1.0484
   29DOPE  H12B 3619   5.864   2.621  13.392  2.2422  1.6190 -1.2177
   29DOPE   C11 3620   6.066   2.597  13.480  0.6408  0.1800 -0.4411
   29DOPE  H11A 3621   6.109   2.639  13.387 -1.0169 -1.8992 -2.2532
   29DOPE  H11B 3622   6.063   2.487  13.468 -1.2997 -0.2297  2.5886
   29DOPE     P 3623   6.258   2.732  13.605  0.4509  0.1411  0.0042
   29DOPE   O13 3624   6.337   2.714  13.729 -0.0422  0.4124 -0.5872
   29DOPE   O14 3625   6.201   2.863  13.582 -0.1666 -0.6953  0.1773
   29DOPE   O11 3626   6.359   2.699  13.489  0.8913 -0.6094  0.5465
   29DOPE   O12 3627   6.139   2.628  13.599  0.6259 -0.3455 -0.4255
   29DOPE    C1 3628   6.404   2.563  13.471  0.8567  0.9555  0.3384
   29DOPE    HA 3629   6.321   2.491  13.482  0.2244  1.7797  1.0902
   29DOPE    HB 3630   6.482   2.540  13.547  1.0011 -0.2656 -0.1651
   29DOPE    C2 3631   6.478   2.548  13.333 -0.6095 -0.2201 -0.6652
   29DOPE    HS 3632   6.501   2.440  13.322  2.4085  0.4679 -2.1056
   29DOPE   O21 3633   6.589   2.645  13.333  0.7814 -0.2647 -0.1001
   29DOPE   C21 3634   6.715   2.593  13.321  0.5669  0.4230 -0.0697
   29DOPE   O22 3635   6.729   2.473  13.309 -0.0215 -0.4141  0.1512
   29DOPE   C22 3636   6.811   2.704  13.355 -0.0189  0.0035 -0.1936
   29DOPE   H2R 3637   6.854   2.680  13.455 -0.8572 -0.0473  0.1601
   29DOPE   H2S 3638   6.766   2.805  13.354 -0.5763 -0.2095  1.0631
   29DOPE    C3 3639   6.382   2.589  13.218  0.0240  0.0587 -0.2053
   29DOPE    HX 3640   6.347   2.690  13.248  1.2091  0.2405  0.6577
   29DOPE    HY 3641   6.298   2.516  13.213  0.1276 -0.1092  0.4327
   29DOPE   O31 3642   6.450   2.609  13.091 -0.2024  0.5662  0.0125
   29DOPE   C31 3643   6.511   2.503  13.036  0.6916 -1.0652 -0.1384
   29DOPE   O32 3644   6.486   2.384  13.061 -0.0559 -0.3698  0.4086
   29DOPE   C32 3645   6.599   2.559  12.924 -0.0284  0.0723 -0.1106
   29DOPE   H2X 3646   6.530   2.628  12.870 -2.2409 -1.9760 -0.0675
   29DOPE   H2Y 3647   6.684   2.606  12.978 -1.8608  1.5023  1.7103
   29DOPE   C23 3648   6.942   2.684  13.266 -0.2140  0.0379  0.4255
   29DOPE   H3R 3649   6.981   2.580  13.268  0.3415  0.1755 -1.3986
   29DOPE   H3S 3650   7.025   2.744  13.308 -0.2666  0.0560  0.5042
   29DOPE   C24 3651   6.913   2.725  13.125  0.2260 -0.0705 -0.6820
   29DOPE   H4R 3652   6.843   2.812  13.122 -1.7092 -1.4438  1.3226
   29DOPE   H4S 3653   6.854   2.639  13.085  1.7194 -1.3798 -0.1557
   29DOPE   C25 3654   7.027   2.748  13.027 -0.6491 -0.6540  0.0477
   29DOPE   H5R 3655   7.080   2.652  13.011  2.1573  0.6592  0.6733
   29DOPE   H5S 3656   7.103   2.820  13.065 -1.1649 -1.2269  2.2541
   29DOPE   C26 3657   6.968   2.817  12.902 -0.9488  0.0430  0.5357
   29DOPE   H6R 3658   7.031   2.902  12.867 -0.5920  0.2643  1.6740
   29DOPE   H6S 3659   6.868   2.861  12.922 -0.7554  0.4678  0.5762
   29DOPE   C27 3660   6.949   2.725  12.778 -0.0088  1.5938 -0.4529
   29DOPE   H7R 3661   6.904   2.634  12.822  0.5956  1.3426 -0.3573
   29DOPE   H7S 3662   7.049   2.700  12.737 -0.0285  2.0994 -0.8255
   29DOPE   C28 3663   6.859   2.775  12.675  0.9545 -0.4211 -0.1287
   29DOPE   H8R 3664   6.763   2.817  12.714  0.3760 -0.1673 -1.7575
   29DOPE   H8S 3665   6.825   2.689  12.613  1.4158  0.1242 -1.1498
   29DOPE   C29 3666   6.924   2.879  12.584  0.8296 -0.7586 -0.0260
   29DOPE   H9R 3667   6.915   2.983  12.618 -0.2599  0.6294 -4.0517
   29DOPE  C210 3668   7.006   2.869  12.477  0.1979 -0.5761 -0.0074
   29DOPE  H10R 3669   7.029   2.956  12.413  1.6087 -1.6391 -0.9996
   29DOPE  C211 3670   7.049   2.742  12.411 -0.2634 -0.2619  0.0920
   29DOPE  H11R 3671   7.027   2.655  12.476 -0.0016 -2.6022 -2.7590
   29DOPE  H11S 3672   7.159   2.734  12.395 -0.5972 -1.3133 -1.9549
   29DOPE  C212 3673   6.968   2.711  12.288  0.6977  0.2951  0.1486
   29DOPE  H12R 3674   6.861   2.685  12.300  1.2458 -1.9813  0.4119
   29DOPE  H12S 3675   7.012   2.617  12.250  1.2937  0.5062  0.3010
   29DOPE  C213 3676   6.963   2.824  12.178  0.0970  0.5219 -0.4638
   29DOPE  H13R 3677   7.066   2.856  12.153  0.3961 -0.0494 -0.0033
   29DOPE  H13S 3678   6.908   2.909  12.223  2.2692  1.1905  1.0982
   29DOPE  C214 3679   6.897   2.773  12.053  0.3911  0.1167 -0.3221
   29DOPE  H14R 3680   6.792   2.743  12.075  0.2657 -0.3676 -1.5279
   29DOPE  H14S 3681   6.945   2.679  12.018  1.7624  1.0167 -0.9292
   29DOPE  C215 3682   6.913   2.862  11.923  0.5077  0.2453  0.8806
   29DOPE  H15R 3683   7.018   2.897  11.918  1.1743 -1.8442 -2.3680
   29DOPE  H15S 3684   6.846   2.949  11.942 -2.5920 -1.5314 -0.9955
   29DOPE  C216 3685   6.857   2.791  11.803 -0.7809  0.1707  0.2243
   29DOPE  H16R 3686   6.751   2.759  11.815 -0.7590 -0.5057 -1.1323
   29DOPE  H16S 3687   6.927   2.707  11.784  1.4204  2.5962 -3.7483
   29DOPE  C217 3688   6.862   2.866  11.670  0.5195  0.2085  0.4764
   29DOPE  H17R 3689   6.785   2.946  11.675  1.2236  0.8634  1.1442
   29DOPE  H17S 3690   6.840   2.795  11.587  0.3237  0.8790 -0.0486
   29DOPE  C218 3691   6.996   2.933  11.640 -0.3331 -0.0044  0.4460
   29DOPE  H18R 3692   7.079   2.861  11.657 -1.1076 -1.8372 -2.8426
   29DOPE  H18S 3693   7.020   3.028  11.693 -0.7047  0.1705  0.3007
   29DOPE  H18T 3694   6.999   2.976  11.538  1.4704 -2.0210 -0.4241
   29DOPE   C33 3695   6.658   2.459  12.823  0.5472  0.1452  0.1381
   29DOPE   H3X 3696   6.723   2.385  12.875 -1.7934 -2.9573 -1.0301
   29DOPE   H3Y 3697   6.719   2.517  12.750 -1.5270  1.1707 -0.8589
   29DOPE   C34 3698   6.549   2.386  12.739 -0.1998  0.2404 -0.3387
   29DOPE   H4X 3699   6.529   2.282  12.774 -2.0883 -0.3762 -2.9515
   29DOPE   H4Y 3700   6.448   2.432  12.742  0.3373  1.3714  1.1438
   29DOPE   C35 3701   6.584   2.361  12.592 -0.3699 -0.2434  0.3422
   29DOPE   H5X 3702   6.508   2.285  12.561  0.2121 -0.6430 -0.1438
   29DOPE   H5Y 3703   6.683   2.314  12.572 -1.3160 -1.1138 -3.0863
   29DOPE   C36 3704   6.557   2.480  12.492 -0.5117  1.1996 -0.5200
   29DOPE   H6X 3705   6.653   2.535  12.505 -0.0828  0.0886  1.5222
   29DOPE   H6Y 3706   6.478   2.546  12.534  0.8552  2.6101 -0.0510
   29DOPE   C37 3707   6.510   2.428  12.361  0.4506  0.2172  0.2538
   29DOPE   H7X 3708   6.420   2.366  12.385  0.5237 -0.0474 -0.1374
   29DOPE   H7Y 3709   6.474   2.507  12.292  0.3444  0.5962  0.7461
   29DOPE   C38 3710   6.600   2.328  12.290 -0.0825  0.0498  0.5415
   29DOPE   H8X 3711   6.545   2.264  12.218  0.5253  0.1412 -0.0242
   29DOPE   H8Y 3712   6.643   2.257  12.363 -1.8268 -0.3621  1.2153
   29DOPE   C39 3713   6.713   2.405  12.224 -1.1226  1.2714 -0.1343
   29DOPE   H9X 3714   6.792   2.435  12.295 -1.3895  1.8929 -0.0885
   29DOPE  C310 3715   6.724   2.426  12.091  0.5462  0.4860 -0.2771
   29DOPE  H10X 3716   6.809   2.487  12.057  0.9177 -0.4615 -1.0735
   29DOPE  C311 3717   6.613   2.400  11.992 -0.1178 -0.6741  0.4355
   29DOPE  H11X 3718   6.619   2.291  11.970 -2.0635 -1.0160  1.4139
   29DOPE  H11Y 3719   6.509   2.421  12.025 -0.5246 -2.4099  0.3124
   29DOPE  C312 3720   6.649   2.490  11.871 -0.0830  0.1685 -1.1815
   29DOPE  H12X 3721   6.748   2.464  11.828  0.3708 -1.3335  0.6513
   29DOPE  H12Y 3722   6.664   2.595  11.905  2.1997  0.0625 -1.6792
   29DOPE  C313 3723   6.540   2.480  11.762  0.8696 -0.5424  0.1971
   29DOPE  H13X 3724   6.530   2.375  11.727  0.9594 -0.9903  1.4505
   29DOPE  H13Y 3725   6.451   2.492  11.828  0.5435 -0.9215 -0.1638
   29DOPE  C314 3726   6.538   2.586  11.652  0.3342 -0.4763  0.2263
   29DOPE  H14X 3727   6.563   2.685  11.695 -0.3327 -0.4754  0.6233
   29DOPE  H14Y 3728   6.431   2.598  11.624 -0.1364  0.8065  2.3616
   29DOPE  C315 3729   6.619   2.558  11.520 -0.0170 -0.2165 -0.5459
   29DOPE  H15X 3730   6.620   2.653  11.462 -0.9338  0.1067 -0.0543
   29DOPE  H15Y 3731   6.554   2.481  11.472 -2.2043  1.2109 -0.0653
   29DOPE  C316 3732   6.768   2.505  11.534  0.8431 -0.1145 -0.2374
   29DOPE  H16X 3733   6.761   2.399  11.567  0.3959 -0.2488 -0.7572
   29DOPE  H16Y 3734   6.818   2.556  11.620 -0.7339  0.0741  0.6167
   29DOPE  C317 3735   6.840   2.517  11.406 -0.0872 -0.5003  0.2519
   29DOPE  H17X 3736   6.858   2.623  11.379  1.2777 -0.7146  0.2193
   29DOPE  H17Y 3737   6.942   2.474  11.418 -0.0840 -0.7198 -0.5410
   29DOPE  C318 3738   6.767   2.444  11.297  0.2303  0.4805  0.2931
   29DOPE  H18X 3739   6.773   2.334  11.311 -0.1612  0.7390  3.1344
   29DOPE  H18Y 3740   6.658   2.464  11.289 -0.2805 -0.0692  3.8990
   29DOPE  H18Z 3741   6.806   2.457  11.194 -1.6526  0.9030 -0.4072
   30DOPE     N 3742   5.944   0.938  13.461 -0.5805  1.0772 -0.0324
   30DOPE   HN1 3743   5.906   0.895  13.375  2.6316 -1.1374 -0.5326
   30DOPE   HN2 3744   5.995   1.027  13.440  1.3594  0.4340  1.6389
   30DOPE   HN3 3745   6.018   0.870  13.486 -0.7810  0.5493 -0.8443
   30DOPE   C12 3746   5.855   0.937  13.580 -0.1359  0.2643 -0.7749
   30DOPE  H12A 3747   5.898   1.016  13.645  4.0620 -1.0437 -1.6327
   30DOPE  H12B 3748   5.878   0.842  13.632  1.3859  1.1047  0.1637
   30DOPE   C11 3749   5.706   0.969  13.553  0.6108  0.1312  0.5220
   30DOPE  H11A 3750   5.668   0.866  13.535 -1.6909  1.0263 -0.0853
   30DOPE  H11B 3751   5.691   1.021  13.456  0.2452  1.1097  1.0845
   30DOPE     P 3752   5.486   1.092  13.638 -0.3583  0.2229 -0.1880
   30DOPE   O13 3753   5.437   1.141  13.769  0.1985  0.4578 -0.7009
   30DOPE   O14 3754   5.414   0.983  13.572 -0.0613  0.7046  0.6143
   30DOPE   O11 3755   5.508   1.214  13.545 -0.3233 -0.2901  0.0973
   30DOPE   O12 3756   5.639   1.040  13.663  0.3106 -0.2215  0.0438
   30DOPE    C1 3757   5.552   1.341  13.598 -0.2723 -0.9862 -0.2649
   30DOPE    HA 3758   5.600   1.340  13.699  0.9481  3.3110 -0.6026
   30DOPE    HB 3759   5.465   1.409  13.610  1.3979  1.2772 -0.3772
   30DOPE    C2 3760   5.651   1.419  13.509 -0.2135  0.5368  0.0230
   30DOPE    HS 3761   5.667   1.518  13.558 -1.4445  1.0954 -0.6523
   30DOPE   O21 3762   5.610   1.423  13.371  0.1944 -0.5043 -0.1107
   30DOPE   C21 3763   5.521   1.518  13.336  0.1822 -0.2428  0.4511
   30DOPE   O22 3764   5.475   1.601  13.408  0.4715 -0.4056 -0.0375
   30DOPE   C22 3765   5.491   1.499  13.188 -0.8221 -0.5172 -0.1850
   30DOPE   H2R 3766   5.426   1.408  13.179  0.4007 -1.4460  0.1375
   30DOPE   H2S 3767   5.587   1.463  13.146  0.0898  0.6856  0.8010
   30DOPE    C3 3768   5.780   1.329  13.521 -0.1384 -0.2926 -0.2953
   30DOPE    HX 3769   5.744   1.230  13.485 -1.8713  0.5667 -1.0447
   30DOPE    HY 3770   5.801   1.321  13.630 -0.0571 -3.6021 -0.4480
   30DOPE   O31 3771   5.894   1.388  13.451  1.0354  0.0169 -0.4282
   30DOPE   C31 3772   5.973   1.303  13.388 -0.8681 -1.0692  0.3699
   30DOPE   O32 3773   5.965   1.184  13.378  0.0204 -0.5185  0.3041
   30DOPE   C32 3774   6.077   1.385  13.302  0.4610  0.9147  0.0529
   30DOPE   H2X 3775   6.055   1.492  13.322 -3.7090  0.2473 -0.0678
   30DOPE   H2Y 3776   6.171   1.351  13.350  1.7457  0.9216 -2.2906
   30DOPE   C23 3777   5.439   1.632  13.118  0.0337 -0.2989  0.3028
   30DOPE   H3R 3778   5.500   1.716  13.158 -0.1164  0.1441 -0.3857
   30DOPE   H3S 3779   5.335   1.636  13.156  0.0209  1.7096  0.1707
   30DOPE   C24 3780   5.430   1.620  12.968 -0.3059 -1.0003  0.1385
   30DOPE   H4R 3781   5.519   1.570  12.925 -0.0461  1.0138 -1.8265
   30DOPE   H4S 3782   5.431   1.721  12.922  0.5980 -1.2280 -0.3727
   30DOPE   C25 3783   5.298   1.548  12.933  0.1336  0.2015  0.1060
   30DOPE   H5R 3784   5.211   1.591  12.987  0.6752 -0.0391  1.2124
   30DOPE   H5S 3785   5.322   1.446  12.970  0.3168 -0.3857 -1.5717
   30DOPE   C26 3786   5.280   1.518  12.784  0.0840 -0.1855 -0.1573
   30DOPE   H6R 3787   5.193   1.449  12.775  0.5468 -0.9932  1.2559
   30DOPE   H6S 3788   5.370   1.471  12.739  0.3405  2.0266 -2.1098
   30DOPE   C27 3789   5.250   1.639  12.702  0.1300 -0.6587 -0.4100
   30DOPE   H7R 3790   5.292   1.726  12.757 -1.7539 -0.8981  1.5096
   30DOPE   H7S 3791   5.141   1.655  12.687  0.4164  3.8494  0.8787
   30DOPE   C28 3792   5.327   1.629  12.561  0.2631 -0.0650  0.0870
   30DOPE   H8R 3793   5.301   1.531  12.516  1.3741 -0.4385  0.2349
   30DOPE   H8S 3794   5.436   1.619  12.578  0.4951 -0.8916 -1.6717
   30DOPE   C29 3795   5.273   1.736  12.468 -0.3755 -0.0872 -0.1894
   30DOPE   H9R 3796   5.175   1.784  12.482 -0.5331 -0.2032 -0.8553
   30DOPE  C210 3797   5.348   1.784  12.365 -0.3139 -0.4369  0.5288
   30DOPE  H10R 3798   5.309   1.875  12.317  2.2028  0.6862  0.4862
   30DOPE  C211 3799   5.472   1.740  12.305  0.1902  0.4032  0.6941
   30DOPE  H11R 3800   5.531   1.671  12.369  1.0531  0.2193 -0.2893
   30DOPE  H11S 3801   5.539   1.828  12.295  1.1654 -0.5345 -1.7101
   30DOPE  C212 3802   5.471   1.700  12.155  0.5189  0.5954  0.2444
   30DOPE  H12R 3803   5.413   1.605  12.148 -0.6709  1.3094  0.0617
   30DOPE  H12S 3804   5.573   1.686  12.114  0.3227 -0.7298  0.1532
   30DOPE  C213 3805   5.400   1.796  12.061 -0.6426 -0.7854 -0.2149
   30DOPE  H13R 3806   5.456   1.892  12.060 -0.7808 -0.7062 -0.3361
   30DOPE  H13S 3807   5.292   1.813  12.084 -0.9234  0.0680 -1.9941
   30DOPE  C214 3808   5.423   1.754  11.916  0.0807 -0.7285 -0.7342
   30DOPE  H14R 3809   5.378   1.653  11.916 -0.9360 -0.3217  1.2806
   30DOPE  H14S 3810   5.534   1.749  11.905  0.6610  2.5143  1.9126
   30DOPE  C215 3811   5.356   1.850  11.819  0.1328  0.0643  0.0926
   30DOPE  H15R 3812   5.390   1.953  11.842  0.5499 -0.4751  2.1371
   30DOPE  H15S 3813   5.249   1.863  11.846  0.4110  0.4091  1.0671
   30DOPE  C216 3814   5.388   1.827  11.667 -0.7760  0.5398 -0.2062
   30DOPE  H16R 3815   5.359   1.722  11.645  0.1071  0.4026 -0.7760
   30DOPE  H16S 3816   5.497   1.845  11.668 -0.9345  1.5614 -0.0336
   30DOPE  C217 3817   5.318   1.922  11.568  0.5978  0.2403 -0.4360
   30DOPE  H17R 3818   5.211   1.895  11.575  0.4275  1.1970  1.2166
   30DOPE  H17S 3819   5.365   1.890  11.473  1.0390  2.8533 -1.1911
   30DOPE  C218 3820   5.331   2.075  11.591  0.3330  0.5655 -0.0341
   30DOPE  H18R 3821   5.441   2.090  11.586  0.4690 -0.3851 -0.0007
   30DOPE  H18S 3822   5.300   2.095  11.696  0.2281 -1.9620  0.4813
   30DOPE  H18T 3823   5.271   2.130  11.515 -2.4255  0.6096  1.9944
   30DOPE   C33 3824   6.056   1.351  13.153  0.9580  0.5388 -0.0098
   30DOPE   H3X 3825   5.948   1.346  13.127  1.1575  2.1493 -1.2964
   30DOPE   H3Y 3826   6.094   1.247  13.154  1.8341  0.8537  0.5281
   30DOPE   C34 3827   6.122   1.438  13.044 -0.3628  0.6848 -0.5945
   30DOPE   H4X 3828   6.110   1.546  13.063 -0.1050  0.4373  1.0964
   30DOPE   H4Y 3829   6.230   1.414  13.058 -0.1531  2.6883  1.7566
   30DOPE   C35 3830   6.071   1.410  12.899  0.9329  0.3111 -0.6766
   30DOPE   H5X 3831   5.967   1.450  12.891  0.9454  0.5833  0.3062
   30DOPE   H5Y 3832   6.069   1.300  12.883 -3.0125  0.3736 -1.8649
   30DOPE   C36 3833   6.153   1.475  12.792  0.4849  0.0440 -0.0117
   30DOPE   H6X 3834   6.261   1.450  12.798  0.2944 -0.4341  2.4309
   30DOPE   H6Y 3835   6.145   1.585  12.803  1.6127 -0.0299  2.0352
   30DOPE   C37 3836   6.098   1.444  12.658  0.1889 -0.3653 -0.6274
   30DOPE   H7X 3837   6.114   1.336  12.638 -0.4683 -0.3839 -1.0736
   30DOPE   H7Y 3838   5.987   1.451  12.647  0.0905 -0.0123  0.4262
   30DOPE   C38 3839   6.159   1.538  12.544  0.5698 -0.2549 -0.2343
   30DOPE   H8X 3840   6.270   1.541  12.556  0.5684 -3.2273  1.3044
   30DOPE   H8Y 3841   6.138   1.645  12.566 -2.0699 -1.0406  1.5637
   30DOPE   C39 3842   6.134   1.511  12.399  0.1316 -0.0590 -0.1282
   30DOPE   H9X 3843   6.028   1.491  12.375 -0.1075  1.3116 -0.2888
   30DOPE  C310 3844   6.219   1.512  12.297 -0.6508 -0.0056 -0.2201
   30DOPE  H10X 3845   6.184   1.492  12.195  1.1795 -1.1679 -0.6511
   30DOPE  C311 3846   6.363   1.557  12.305  0.0353  0.2132 -0.1874
   30DOPE  H11X 3847   6.399   1.558  12.410  0.5602 -3.1378 -0.2212
   30DOPE  H11Y 3848   6.416   1.470  12.261  1.0702  0.2813  0.8535
   30DOPE  C312 3849   6.386   1.689  12.230 -0.1044 -0.1189  0.3367
   30DOPE  H12X 3850   6.483   1.736  12.257  0.1229  0.6448 -1.6429
   30DOPE  H12Y 3851   6.303   1.753  12.266  0.8005  1.0468  0.4241
   30DOPE  C313 3852   6.367   1.676  12.081 -0.1538  0.1691 -0.0838
   30DOPE  H13X 3853   6.269   1.626  12.062  0.2765 -0.5178 -0.5603
   30DOPE  H13Y 3854   6.372   1.782  12.049 -1.7772  0.7994  1.5713
   30DOPE  C314 3855   6.471   1.585  12.010  0.1216 -0.3218 -0.0981
   30DOPE  H14X 3856   6.456   1.481  12.046 -0.8204  0.4215  1.8197
   30DOPE  H14Y 3857   6.569   1.628  12.038 -0.6053  2.1537 -1.0938
   30DOPE  C315 3858   6.449   1.573  11.859 -0.1810  0.2888 -0.6028
   30DOPE  H15X 3859   6.359   1.509  11.843  0.4163 -0.5841 -0.5674
   30DOPE  H15Y 3860   6.543   1.531  11.817 -0.7718 -3.4190  1.3441
   30DOPE  C316 3861   6.396   1.706  11.796  0.4359 -0.7744 -0.6120
   30DOPE  H16X 3862   6.470   1.788  11.810  1.9124 -2.3311  1.4320
   30DOPE  H16Y 3863   6.305   1.727  11.857  1.2459  2.0223 -0.2128
   30DOPE  C317 3864   6.362   1.687  11.647 -0.5873  0.4686 -0.2622
   30DOPE  H17X 3865   6.455   1.681  11.587 -0.0933 -0.7980  0.6024
   30DOPE  H17Y 3866   6.310   1.590  11.634 -1.4357  0.7404  1.0143
   30DOPE  C318 3867   6.281   1.806  11.596  0.1157  0.3009  0.5479
   30DOPE  H18X 3868   6.230   1.783  11.500 -0.3404  0.1528  0.8223
   30DOPE  H18Y 3869   6.197   1.815  11.668  0.5665 -1.7381  1.4045
   30DOPE  H18Z 3870   6.343   1.898  11.586 -1.0491  1.1017  0.4543
   31DOPE     N 3871   3.640   3.707   8.629  0.0216 -0.3847  0.2226
   31DOPE   HN1 3872   3.635   3.811   8.624 -0.0234 -0.3803  0.3341
   31DOPE   HN2 3873   3.709   3.677   8.557  1.8414 -1.8502  2.4236
   31DOPE   HN3 3874   3.543   3.679   8.606  0.5434 -0.6903 -1.7546
   31DOPE   C12 3875   3.696   3.642   8.751  0.2639 -0.6597  0.0217
   31DOPE  H12A 3876   3.803   3.623   8.727 -0.2338 -2.0066 -1.2377
   31DOPE  H12B 3877   3.647   3.545   8.774  2.8010 -1.9808  0.3198
   31DOPE   C11 3878   3.687   3.717   8.884 -0.0361  0.4505  0.2077
   31DOPE  H11A 3879   3.737   3.659   8.964 -1.5303 -1.4285 -0.1334
   31DOPE  H11B 3880   3.581   3.720   8.919 -0.0527 -1.6883  0.4861
   31DOPE     P 3881   3.894   3.879   8.896  0.1683 -0.2379  0.1718
   31DOPE   O13 3882   3.919   3.992   8.807 -0.0196 -0.6513 -0.5845
   31DOPE   O14 3883   3.964   3.750   8.875  0.0864  0.2414 -0.1570
   31DOPE   O11 3884   3.920   3.919   9.050  0.4839 -0.2237  0.4380
   31DOPE   O12 3885   3.736   3.848   8.877 -0.2496 -0.0707  0.2481
   31DOPE    C1 3886   3.845   4.025   9.113  0.2180  0.5139 -0.6045
   31DOPE    HA 3887   3.745   4.048   9.069 -0.7960 -1.2237  0.6617
   31DOPE    HB 3888   3.915   4.109   9.131 -0.5711  1.4375 -1.7136
   31DOPE    C2 3889   3.810   3.987   9.261  0.2101  0.3596 -0.5500
   31DOPE    HS 3890   3.749   4.070   9.304  0.5400  0.6262 -0.5944
   31DOPE   O21 3891   3.919   3.951   9.348  0.1011 -0.3640  0.8558
   31DOPE   C21 3892   3.973   4.062   9.389 -1.0309 -0.2176  0.4231
   31DOPE   O22 3893   3.938   4.173   9.358  0.2329  0.3124  0.3345
   31DOPE   C22 3894   4.076   4.028   9.500  0.9318  0.2230 -0.2669
   31DOPE   H2R 3895   4.165   4.079   9.457 -0.1031  0.0736 -2.7600
   31DOPE   H2S 3896   4.093   3.918   9.502  1.7778  0.3560  1.0916
   31DOPE    C3 3897   3.712   3.869   9.265  0.3285 -0.3778  0.6980
   31DOPE    HX 3898   3.757   3.775   9.227  0.2509  0.0256 -0.4127
   31DOPE    HY 3899   3.629   3.893   9.196  0.4305 -0.7370  0.4475
   31DOPE   O31 3900   3.659   3.852   9.400  0.4271  0.1621  0.1298
   31DOPE   C31 3901   3.704   3.755   9.474 -0.5173  0.1210  0.5844
   31DOPE   O32 3902   3.768   3.658   9.433 -0.2839 -0.0957 -0.1207
   31DOPE   C32 3903   3.682   3.785   9.623  0.0296  0.8487  0.2940
   31DOPE   H2X 3904   3.646   3.890   9.621  0.3071  0.9338 -1.3765
   31DOPE   H2Y 3905   3.610   3.718   9.674  1.7846 -1.4822 -0.0964
   31DOPE   C23 3906   4.049   4.088   9.630 -0.4132 -0.2505 -0.6456
   31DOPE   H3R 3907   3.945   4.063   9.660 -0.8955 -0.0317 -2.0665
   31DOPE   H3S 3908   4.053   4.198   9.615  0.8778 -0.2265 -0.1731
   31DOPE   C24 3909   4.153   4.046   9.731 -0.5250  0.1587  0.9208
   31DOPE   H4R 3910   4.252   4.047   9.679  0.9014 -0.7533  3.4244
   31DOPE   H4S 3911   4.141   3.937   9.745  1.6192 -0.5413 -1.8242
   31DOPE   C25 3912   4.161   4.135   9.855  0.0698 -0.0262  0.1431
   31DOPE   H5R 3913   4.065   4.142   9.910 -0.5962 -1.7252 -0.7576
   31DOPE   H5S 3914   4.200   4.232   9.816  0.4204 -1.0443 -2.2070
   31DOPE   C26 3915   4.260   4.074   9.962  0.6103  0.3898  0.8594
   31DOPE   H6R 3916   4.281   4.149  10.042  1.9135  0.9569  0.0263
   31DOPE   H6S 3917   4.361   4.062   9.916  0.6020 -0.5537  1.0705
   31DOPE   C27 3918   4.215   3.938  10.021  0.5536  0.3310  0.7178
   31DOPE   H7R 3919   4.213   3.866   9.936  0.5069 -1.6930  2.3848
   31DOPE   H7S 3920   4.110   3.940  10.057  1.1956  0.4214  2.6783
   31DOPE   C28 3921   4.288   3.886  10.141 -0.4287  0.0708 -0.7487
   31DOPE   H8R 3922   4.396   3.900  10.122 -0.0542 -1.1362  0.3492
   31DOPE   H8S 3923   4.253   3.783  10.164 -0.3942  0.1992 -0.0848
   31DOPE   C29 3924   4.252   3.980  10.257 -0.1935 -1.0079 -0.5995
   31DOPE   H9R 3925   4.216   4.082  10.238 -1.0401 -1.1305  0.2625
   31DOPE  C210 3926   4.269   3.953  10.389 -0.7121 -0.1065  0.1669
   31DOPE  H10R 3927   4.229   4.024  10.464 -0.4486 -0.0778  0.2797
   31DOPE  C211 3928   4.323   3.826  10.441 -0.2891  0.9347  0.4914
   31DOPE  H11R 3929   4.428   3.820  10.403 -0.2914  0.3756  0.5670
   31DOPE  H11S 3930   4.256   3.743  10.409  1.0986 -0.4903  1.1332
   31DOPE  C212 3931   4.336   3.827  10.600  0.0956  0.0033  0.2409
   31DOPE  H12R 3932   4.400   3.913  10.627 -1.2793  1.5427 -1.1489
   31DOPE  H12S 3933   4.390   3.734  10.627  0.8719  0.8531  1.6834
   31DOPE  C213 3934   4.203   3.836  10.686  0.7412  0.4808 -0.5832
   31DOPE  H13R 3935   4.151   3.739  10.671  2.3909 -0.7650  1.3302
   31DOPE  H13S 3936   4.153   3.926  10.644  1.1739  1.4561  0.9144
   31DOPE  C214 3937   4.233   3.862  10.831  0.1854  0.1209 -0.1079
   31DOPE  H14R 3938   4.301   3.950  10.837 -1.3502  1.3369  0.2237
   31DOPE  H14S 3939   4.287   3.771  10.866  2.0540  1.3029  0.2363
   31DOPE  C215 3940   4.107   3.883  10.921  0.4478 -0.3813 -0.7326
   31DOPE  H15R 3941   4.029   3.830  10.863  2.2854  0.1565 -3.9677
   31DOPE  H15S 3942   4.067   3.986  10.924  0.4855 -0.3860  0.1712
   31DOPE  C216 3943   4.123   3.848  11.068 -1.0204 -0.0343  0.5814
   31DOPE  H16R 3944   4.214   3.786  11.081 -0.1481  1.1535  0.3086
   31DOPE  H16S 3945   4.034   3.794  11.108 -2.8659 -0.6792 -3.8005
   31DOPE  C217 3946   4.142   3.972  11.159 -0.1996  0.5410 -0.4150
   31DOPE  H17R 3947   4.043   4.019  11.142 -1.1308 -1.6741 -1.3496
   31DOPE  H17S 3948   4.218   4.045  11.124  1.7491 -1.1308  0.1584
   31DOPE  C218 3949   4.171   3.939  11.304  0.0834 -0.1172  0.7480
   31DOPE  H18R 3950   4.176   4.030  11.367  2.8944  1.3478 -1.3778
   31DOPE  H18S 3951   4.267   3.886  11.324 -0.7118 -1.9374 -0.0061
   31DOPE  H18T 3952   4.096   3.868  11.346  0.8130 -1.1912  0.2916
   31DOPE   C33 3953   3.806   3.789   9.711 -0.4895  0.9382  0.0612
   31DOPE   H3X 3954   3.781   3.860   9.793  1.8204  0.0335  1.6747
   31DOPE   H3Y 3955   3.896   3.837   9.667 -1.9329  3.4130 -0.3252
   31DOPE   C34 3956   3.845   3.651   9.778  0.8575 -0.8404  0.4614
   31DOPE   H4X 3957   3.749   3.594   9.771  0.4989 -0.1383 -0.5190
   31DOPE   H4Y 3958   3.919   3.595   9.717 -0.2455 -0.2521 -1.4783
   31DOPE   C35 3959   3.894   3.672   9.924  0.3318  0.1637  0.0565
   31DOPE   H5X 3960   3.968   3.754   9.923 -1.8541  2.2653  0.0108
   31DOPE   H5Y 3961   3.943   3.579   9.959  2.5800  0.7965 -1.2377
   31DOPE   C36 3962   3.784   3.698  10.024  0.0017 -0.3359 -0.0961
   31DOPE   H6X 3963   3.724   3.609  10.052  2.7542 -2.4647 -0.5635
   31DOPE   H6Y 3964   3.715   3.776   9.985 -1.4935 -0.8975  1.3248
   31DOPE   C37 3965   3.839   3.749  10.164  0.4307 -0.4142  0.4924
   31DOPE   H7X 3966   3.896   3.836  10.125 -2.4510  0.1951 -2.8268
   31DOPE   H7Y 3967   3.753   3.798  10.215 -1.6804 -0.9827 -2.2833
   31DOPE   C38 3968   3.915   3.651  10.257 -0.1736  0.2137 -0.3979
   31DOPE   H8X 3969   4.010   3.615  10.214 -0.2453  0.6628 -0.9501
   31DOPE   H8Y 3970   3.851   3.564  10.282 -1.2256  1.7230  2.7169
   31DOPE   C39 3971   3.942   3.732  10.378 -0.1704 -0.2813 -0.4399
   31DOPE   H9X 3972   4.035   3.789  10.361  0.9130 -2.4471 -2.4144
   31DOPE  C310 3973   3.878   3.727  10.498 -0.3222 -0.0116  0.2879
   31DOPE  H10X 3974   3.903   3.785  10.587 -0.6940 -0.2452  0.5480
   31DOPE  C311 3975   3.750   3.646  10.526  0.0367 -0.3022 -0.6073
   31DOPE  H11X 3976   3.656   3.705  10.527  0.0336 -0.3110 -0.3864
   31DOPE  H11Y 3977   3.739   3.569  10.447  0.3176  0.7068 -1.6713
   31DOPE  C312 3978   3.775   3.576  10.663 -0.0102  0.4241  0.3184
   31DOPE  H12X 3979   3.681   3.518  10.676 -0.6610  1.0293 -1.3544
   31DOPE  H12Y 3980   3.775   3.662  10.733 -0.2440  1.0533 -0.4460
   31DOPE  C313 3981   3.901   3.488  10.669 -1.2733 -0.3386 -0.4339
   31DOPE  H13X 3982   3.906   3.430  10.575 -0.8923  1.7005 -1.7339
   31DOPE  H13Y 3983   3.992   3.551  10.677 -0.7875 -1.1101  0.2855
   31DOPE  C314 3984   3.899   3.407  10.797  0.7627  0.2260 -0.3335
   31DOPE  H14X 3985   3.986   3.338  10.795  1.1014  0.3903  2.7408
   31DOPE  H14Y 3986   3.814   3.334  10.792  1.0830 -0.1020 -1.1293
   31DOPE  C315 3987   3.897   3.485  10.933  0.4673  0.2119  0.8069
   31DOPE  H15X 3988   3.812   3.556  10.924 -0.1206 -0.7323 -2.3389
   31DOPE  H15Y 3989   3.992   3.541  10.940  0.2524  0.8014 -0.7888
   31DOPE  C316 3990   3.875   3.406  11.061  0.6129 -0.0123  0.5286
   31DOPE  H16X 3991   3.958   3.332  11.062  1.3632  0.7953  0.0606
   31DOPE  H16Y 3992   3.780   3.351  11.046  0.2566  0.9960 -1.2329
   31DOPE  C317 3993   3.862   3.480  11.192 -0.2097 -0.1526  0.2030
   31DOPE  H17X 3994   3.964   3.518  11.214 -0.9739 -0.1605  4.7778
   31DOPE  H17Y 3995   3.788   3.561  11.180 -0.2886 -0.1950  0.4058
   31DOPE  C318 3996   3.802   3.404  11.314 -0.2600  0.6660 -0.0461
   31DOPE  H18X 3997   3.861   3.311  11.322 -0.3582  0.6722  0.8493
   31DOPE  H18Y 3998   3.822   3.459  11.408 -1.0629 -0.2437  0.6823
   31DOPE  H18Z 3999   3.694   3.377  11.303  0.0000 -0.0725 -0.9065
   32DOPE     N 4000   4.186   4.412   8.395 -0.0016 -0.0132  0.2411
   32DOPE   HN1 4001   4.223   4.317   8.411  1.2163  0.2300 -0.9334
   32DOPE   HN2 4002   4.106   4.407   8.328  3.2132  0.2404 -4.0043
   32DOPE   HN3 4003   4.255   4.467   8.340 -0.4967  0.7304  0.3414
   32DOPE   C12 4004   4.152   4.487   8.527  0.3532  0.0139  0.0233
   32DOPE  H12A 4005   4.073   4.434   8.584  1.0384 -0.2584  0.7307
   32DOPE  H12B 4006   4.128   4.594   8.508  1.4212  0.4220  0.8754
   32DOPE   C11 4007   4.281   4.496   8.615  1.0087  0.5569 -0.1056
   32DOPE  H11A 4008   4.317   4.393   8.638 -0.1466 -0.2654 -1.8201
   32DOPE  H11B 4009   4.247   4.541   8.711 -0.0409 -0.5500  0.0632
   32DOPE     P 4010   4.507   4.619   8.610  0.1730  0.1763  0.3916
   32DOPE   O13 4011   4.514   4.767   8.604  0.2276  0.0787 -0.0395
   32DOPE   O14 4012   4.623   4.551   8.561 -0.2216  0.2046 -0.1236
   32DOPE   O11 4013   4.489   4.569   8.766 -0.5320 -0.2520  0.1310
   32DOPE   O12 4014   4.376   4.566   8.536 -0.3509  0.1935  0.6425
   32DOPE    C1 4015   4.442   4.652   8.873  0.3164  0.2105 -0.6392
   32DOPE    HA 4016   4.340   4.693   8.861  0.1379 -0.2138 -0.6103
   32DOPE    HB 4017   4.504   4.743   8.883  1.3143 -0.3651 -1.3354
   32DOPE    C2 4018   4.430   4.561   9.002 -0.2588  0.2082  0.0996
   32DOPE    HS 4019   4.356   4.612   9.067  0.4893  0.1098  1.0580
   32DOPE   O21 4020   4.558   4.553   9.056 -0.9420  0.4286  0.5881
   32DOPE   C21 4021   4.610   4.661   9.109  0.0009  0.2657 -0.0639
   32DOPE   O22 4022   4.563   4.774   9.108  1.1972 -0.0538  1.0378
   32DOPE   C22 4023   4.741   4.611   9.176  0.2821 -0.0174 -0.6563
   32DOPE   H2R 4024   4.824   4.667   9.129  1.5334  0.8290  2.3242
   32DOPE   H2S 4025   4.760   4.505   9.148 -0.0232 -0.7284  1.6417
   32DOPE    C3 4026   4.365   4.421   8.984  0.4747 -0.2282  0.4216
   32DOPE    HX 4027   4.440   4.349   8.944 -0.5274  0.1583 -2.3809
   32DOPE    HY 4028   4.282   4.428   8.911  1.7988  1.7318 -0.9989
   32DOPE   O31 4029   4.313   4.391   9.110  0.0792  0.3741 -0.8702
   32DOPE   C31 4030   4.382   4.301   9.182  0.0737  0.1538  0.5843
   32DOPE   O32 4031   4.495   4.251   9.156 -0.2001  0.3679  0.1338
   32DOPE   C32 4032   4.290   4.258   9.295 -0.9910  0.6930  0.4190
   32DOPE   H2X 4033   4.190   4.240   9.251 -0.8798 -0.2242  0.5244
   32DOPE   H2Y 4034   4.327   4.158   9.324 -2.0670 -0.4435 -1.8878
   32DOPE   C23 4035   4.757   4.629   9.327 -0.3672  0.1685  0.2915
   32DOPE   H3R 4036   4.839   4.566   9.368 -2.0963 -0.1493  3.7022
   32DOPE   H3S 4037   4.664   4.595   9.379 -0.7602  0.1640 -0.4017
   32DOPE   C24 4038   4.788   4.775   9.364 -0.3146  0.3680  0.2242
   32DOPE   H4R 4039   4.711   4.845   9.326  1.3101  2.7513  1.0438
   32DOPE   H4S 4040   4.884   4.807   9.316  1.3919 -0.3679  2.9329
   32DOPE   C25 4041   4.795   4.798   9.516 -0.0307 -0.5397 -0.0433
   32DOPE   H5R 4042   4.719   4.740   9.573 -0.0878 -1.3447 -0.9063
   32DOPE   H5S 4043   4.777   4.903   9.546 -0.9019 -0.9637  0.9870
   32DOPE   C26 4044   4.939   4.768   9.569 -0.4039  0.2184  0.1538
   32DOPE   H6R 4045   5.020   4.810   9.505 -0.0131  0.6243  0.8998
   32DOPE   H6S 4046   4.954   4.658   9.576 -0.6833  0.1146 -0.7796
   32DOPE   C27 4047   4.957   4.812   9.720  0.7122  0.2049  0.0594
   32DOPE   H7R 4048   4.957   4.923   9.716 -3.4197  0.3302 -1.3690
   32DOPE   H7S 4049   5.050   4.772   9.765 -0.1620 -1.1549  0.7326
   32DOPE   C28 4050   4.853   4.755   9.819 -0.7475 -0.2255  0.7780
   32DOPE   H8R 4051   4.865   4.646   9.803 -0.5848  0.0599 -1.3690
   32DOPE   H8S 4052   4.751   4.795   9.800 -1.1507 -1.2169  0.8134
   32DOPE   C29 4053   4.887   4.789   9.958 -0.3379  0.3397 -0.0446
   32DOPE   H9R 4054   4.980   4.847   9.957 -2.0835  3.3183 -0.2248
   32DOPE  C210 4055   4.809   4.800  10.069  0.3897  0.6110  0.4941
   32DOPE  H10R 4056   4.854   4.826  10.166 -2.1257  0.8794  1.6781
   32DOPE  C211 4057   4.666   4.751  10.073 -0.6615 -0.9226  0.0434
   32DOPE  H11R 4058   4.626   4.715   9.975 -1.2429  1.8059 -0.8191
   32DOPE  H11S 4059   4.606   4.839  10.105  0.7891 -0.5706  1.9590
   32DOPE  C212 4060   4.649   4.647  10.189 -0.0806 -0.4871 -0.1742
   32DOPE  H12R 4061   4.722   4.565  10.174  0.9891  0.4964 -0.4879
   32DOPE  H12S 4062   4.546   4.605  10.178  0.3916 -2.1362  1.3226
   32DOPE  C213 4063   4.672   4.701  10.332 -0.2105  0.2742 -0.5779
   32DOPE  H13R 4064   4.597   4.783  10.339 -0.5715 -0.1383  0.7524
   32DOPE  H13S 4065   4.776   4.738  10.340  0.1259 -0.4546 -1.4084
   32DOPE  C214 4066   4.647   4.597  10.438  0.2067 -0.0846  0.2816
   32DOPE  H14R 4067   4.740   4.536  10.439  0.7497  0.7317  0.8789
   32DOPE  H14S 4068   4.565   4.525  10.413 -0.5897  0.8019  0.2765
   32DOPE  C215 4069   4.601   4.653  10.576 -0.1445 -0.3422 -0.6954
   32DOPE  H15R 4070   4.682   4.718  10.615  0.2831 -0.3124 -1.5838
   32DOPE  H15S 4071   4.596   4.560  10.637 -1.7010 -1.4882 -2.4424
   32DOPE  C216 4072   4.471   4.743  10.584 -0.2821  0.0195  0.6512
   32DOPE  H16R 4073   4.383   4.693  10.539  0.3524 -1.0395  0.5382
   32DOPE  H16S 4074   4.472   4.845  10.540  0.2101  0.0207  0.6607
   32DOPE  C217 4075   4.430   4.763  10.734  0.2426  0.4096 -0.3112
   32DOPE  H17R 4076   4.464   4.674  10.790  0.4760  0.1069 -0.9201
   32DOPE  H17S 4077   4.319   4.762  10.735  0.2491  0.3093  1.0453
   32DOPE  C218 4078   4.489   4.896  10.782 -1.0708  0.8774 -0.4858
   32DOPE  H18R 4079   4.600   4.893  10.776 -1.0970 -1.9740 -0.6184
   32DOPE  H18S 4080   4.456   4.921  10.885  3.5897 -0.4329  1.6030
   32DOPE  H18T 4081   4.469   4.977  10.709  0.0653  0.1496 -1.6396
   32DOPE   C33 4082   4.288   4.354   9.413 -0.6651 -0.0162 -0.7093
   32DOPE   H3X 4083   4.207   4.316   9.479 -1.8331  0.1894 -1.9938
   32DOPE   H3Y 4084   4.271   4.458   9.380 -4.2846 -0.7916 -1.6947
   32DOPE   C34 4085   4.412   4.352   9.503  0.4380  0.0538  0.3256
   32DOPE   H4X 4086   4.423   4.248   9.541  1.9478 -0.8883 -2.4245
   32DOPE   H4Y 4087   4.498   4.367   9.434  0.2745 -3.1226 -0.7057
   32DOPE   C35 4088   4.416   4.448   9.622 -0.1161  0.5361  0.5690
   32DOPE   H5X 4089   4.325   4.431   9.684  0.5366  0.7997  1.6334
   32DOPE   H5Y 4090   4.421   4.553   9.588  2.1517  0.2218 -0.2705
   32DOPE   C36 4091   4.545   4.449   9.710  0.8168  0.2657  0.4020
   32DOPE   H6X 4092   4.528   4.518   9.796 -0.0241 -2.0000  2.1622
   32DOPE   H6Y 4093   4.621   4.496   9.644  0.3738 -0.5898 -0.7514
   32DOPE   C37 4094   4.589   4.314   9.769 -0.6631  0.2679 -0.3466
   32DOPE   H7X 4095   4.499   4.257   9.801  0.5928 -1.1695  0.7507
   32DOPE   H7Y 4096   4.626   4.266   9.675 -1.3405 -0.5228 -0.2212
   32DOPE   C38 4097   4.683   4.335   9.885  0.2441  0.4080  0.5809
   32DOPE   H8X 4098   4.607   4.362   9.961 -1.4816  1.3873 -1.4071
   32DOPE   H8Y 4099   4.744   4.425   9.860 -0.5035  0.7104 -0.1819
   32DOPE   C39 4100   4.747   4.205   9.924  0.1738  0.3598  0.7455
   32DOPE   H9X 4101   4.834   4.172   9.864  0.0441 -0.5029  1.0181
   32DOPE  C310 4102   4.715   4.114  10.023  0.2838  0.0711 -0.1230
   32DOPE  H10X 4103   4.770   4.020  10.038  1.0428  0.5923  0.4795
   32DOPE  C311 4104   4.581   4.109  10.103 -0.0057  0.4875 -0.2060
   32DOPE  H11X 4105   4.507   4.176  10.054 -0.2781  0.4718  0.1812
   32DOPE  H11Y 4106   4.544   4.004  10.103  1.9583 -0.2712  1.9201
   32DOPE  C312 4107   4.587   4.164  10.247  0.1368 -0.8000  0.2488
   32DOPE  H12X 4108   4.481   4.155  10.278  0.5618  1.5982  2.7908
   32DOPE  H12Y 4109   4.608   4.273  10.249 -0.8615 -0.5658 -0.8787
   32DOPE  C313 4110   4.660   4.078  10.352  0.4884 -0.1231  0.1896
   32DOPE  H13X 4111   4.631   3.972  10.340 -1.3710  0.2766  0.8116
   32DOPE  H13Y 4112   4.769   4.075  10.333  0.4516  0.9024 -0.3004
   32DOPE  C314 4113   4.627   4.122  10.495  0.0728  0.1427  0.2485
   32DOPE  H14X 4114   4.518   4.144  10.491  0.5185  3.4047  2.2834
   32DOPE  H14Y 4115   4.678   4.218  10.520  0.6852 -0.9107  3.4952
   32DOPE  C315 4116   4.668   4.023  10.604 -0.4773 -0.1842  0.1928
   32DOPE  H15X 4117   4.777   4.001  10.602  0.1982  2.7746 -1.7831
   32DOPE  H15Y 4118   4.618   3.924  10.592  1.2348 -1.5614  3.2830
   32DOPE  C316 4119   4.621   4.057  10.744  0.4625 -1.0479  0.1087
   32DOPE  H16X 4120   4.511   4.048  10.741  0.4210 -0.6765  0.3869
   32DOPE  H16Y 4121   4.652   4.162  10.765 -1.8500 -0.1059 -0.8817
   32DOPE  C317 4122   4.670   3.972  10.859 -0.4310  0.3346  0.8552
   32DOPE  H17X 4123   4.618   3.978  10.957 -2.2826  0.0875 -0.0721
   32DOPE  H17Y 4124   4.645   3.868  10.829 -1.6199  1.5816 -3.0321
   32DOPE  C318 4125   4.821   3.978  10.878  0.1506 -0.4150 -0.6077
   32DOPE  H18X 4126   4.865   3.928  10.789  1.8110  0.4349 -0.2899
   32DOPE  H18Y 4127   4.859   4.082  10.884 -0.2464 -0.3176  0.2892
   32DOPE  H18Z 4128   4.849   3.926  10.972  1.4065  1.1546 -0.0728
   33DOPE     N 4129   3.316   3.045   8.790  0.0375 -0.3805 -0.0541
   33DOPE   HN1 4130   3.272   2.993   8.869  0.1944 -2.2158 -1.1118
   33DOPE   HN2 4131   3.239   3.050   8.720  0.5668  0.2960 -0.5884
   33DOPE   HN3 4132   3.398   2.986   8.765  1.1506  0.9618  0.3372
   33DOPE   C12 4133   3.357   3.186   8.814  0.1126 -0.6817 -0.2132
   33DOPE  H12A 4134   3.277   3.232   8.876 -1.4768 -0.1432 -2.5332
   33DOPE  H12B 4135   3.371   3.237   8.715 -1.2850  0.7129  0.2559
   33DOPE   C11 4136   3.491   3.190   8.899 -0.6011  0.3599 -0.3131
   33DOPE  H11A 4137   3.453   3.147   8.994  4.8749 -1.6801  1.3497
   33DOPE  H11B 4138   3.525   3.295   8.906  1.3444 -0.2618  0.1966
   33DOPE     P 4139   3.720   3.131   8.785  0.5484 -0.2856  0.3358
   33DOPE   O13 4140   3.691   3.215   8.666 -0.3585 -0.7336  0.1828
   33DOPE   O14 4141   3.798   3.012   8.754  0.1248 -0.5511  0.1507
   33DOPE   O11 4142   3.794   3.214   8.899  0.3249  0.2498  0.1977
   33DOPE   O12 4143   3.582   3.090   8.846  0.1105 -0.2405  0.5530
   33DOPE    C1 4144   3.803   3.154   9.030  0.1078 -0.3118  0.2884
   33DOPE    HA 4145   3.868   3.063   9.031 -1.5125 -1.5239  1.1420
   33DOPE    HB 4146   3.704   3.116   9.063 -0.2542 -0.4082 -0.8659
   33DOPE    C2 4147   3.848   3.256   9.136 -0.1504  0.4687  0.6680
   33DOPE    HS 4148   3.944   3.296   9.098 -0.5029  0.5802 -0.1281
   33DOPE   O21 4149   3.862   3.190   9.258 -0.7758  0.4042 -0.4465
   33DOPE   C21 4150   3.934   3.249   9.351 -0.1029 -0.2688 -0.3531
   33DOPE   O22 4151   4.014   3.342   9.335 -0.0322  0.2645  0.4676
   33DOPE   C22 4152   3.915   3.170   9.480  0.7086 -0.1630 -0.0574
   33DOPE   H2R 4153   4.013   3.127   9.510 -0.1664 -0.7920  2.1038
   33DOPE   H2S 4154   3.847   3.083   9.467  1.6436 -1.0665  0.9141
   33DOPE    C3 4155   3.747   3.374   9.152 -0.6071 -0.4631 -0.7640
   33DOPE    HX 4156   3.721   3.414   9.051 -0.1928  0.3325 -0.5635
   33DOPE    HY 4157   3.794   3.456   9.211 -1.0257  0.0645 -1.1444
   33DOPE   O31 4158   3.627   3.336   9.226 -0.3894 -0.3405 -0.5442
   33DOPE   C31 4159   3.541   3.440   9.251 -0.1031  0.0755  0.4336
   33DOPE   O32 4160   3.556   3.546   9.203  0.1477  0.3687 -0.2152
   33DOPE   C32 4161   3.433   3.403   9.346 -0.6678 -0.4171  0.4967
   33DOPE   H2X 4162   3.346   3.439   9.286  0.7348 -1.0390 -2.0406
   33DOPE   H2Y 4163   3.424   3.293   9.357 -2.8990 -0.2891  0.4053
   33DOPE   C23 4164   3.869   3.260   9.598  0.4092  0.1978  0.6382
   33DOPE   H3R 4165   3.759   3.277   9.600  0.3368 -0.3177  1.4827
   33DOPE   H3S 4166   3.921   3.358   9.592  0.3256  0.1911 -0.4513
   33DOPE   C24 4167   3.898   3.175   9.727 -0.7333 -0.3463  0.3489
   33DOPE   H4R 4168   4.007   3.152   9.727 -0.7004 -0.1983  0.5900
   33DOPE   H4S 4169   3.833   3.085   9.731  0.1300 -1.2660 -3.0903
   33DOPE   C25 4170   3.860   3.248   9.860  0.8903 -0.0516 -0.5677
   33DOPE   H5R 4171   3.749   3.251   9.864  0.9354  0.2446  1.6880
   33DOPE   H5S 4172   3.899   3.352   9.853  3.3309 -0.9017 -0.1903
   33DOPE   C26 4173   3.907   3.187   9.986 -0.5357  0.2806  0.2312
   33DOPE   H6R 4174   4.018   3.190   9.985 -0.4485 -1.8066  0.1447
   33DOPE   H6S 4175   3.883   3.079   9.981 -2.2394  0.5360  1.7647
   33DOPE   C27 4176   3.848   3.248  10.118  0.1992  0.3687  0.3002
   33DOPE   H7R 4177   3.737   3.248  10.110  0.2195  1.3935 -0.1434
   33DOPE   H7S 4178   3.893   3.350  10.116 -0.9540  0.9505  1.7938
   33DOPE   C28 4179   3.888   3.173  10.242 -0.2652  0.5329  0.3903
   33DOPE   H8R 4180   3.999   3.182  10.241  0.0016 -1.9655 -1.4203
   33DOPE   H8S 4181   3.868   3.065  10.224 -0.3569  0.4108  1.2011
   33DOPE   C29 4182   3.831   3.242  10.365  0.0059 -0.2370  0.3896
   33DOPE   H9R 4183   3.827   3.352  10.357 -1.5895 -0.0473  2.6558
   33DOPE  C210 4184   3.769   3.180  10.468 -0.3139 -0.4654  1.1791
   33DOPE  H10R 4185   3.726   3.238  10.551 -2.2851 -2.3782  1.5744
   33DOPE  C211 4186   3.768   3.025  10.494 -0.2992  0.2697  0.4421
   33DOPE  H11R 4187   3.830   2.968  10.420 -0.2311 -0.9479  1.4004
   33DOPE  H11S 4188   3.667   2.982  10.478  0.6323 -1.4827 -1.1631
   33DOPE  C212 4189   3.809   3.009  10.643  0.5909  0.1206 -0.4024
   33DOPE  H12R 4190   3.902   3.061  10.673  1.1136 -0.4684 -0.9650
   33DOPE  H12S 4191   3.824   2.903  10.673 -1.5821 -0.6852 -1.8389
   33DOPE  C213 4192   3.707   3.062  10.745 -0.1633  0.5217  0.0202
   33DOPE  H13R 4193   3.612   3.004  10.745 -0.3647  0.7453  2.3252
   33DOPE  H13S 4194   3.672   3.166  10.727 -0.7327 -0.2695 -4.6659
   33DOPE  C214 4195   3.763   3.049  10.891 -0.1669  0.9458 -0.2388
   33DOPE  H14R 4196   3.833   3.130  10.920 -1.3565  0.9550  2.9906
   33DOPE  H14S 4197   3.813   2.950  10.896 -0.1605  0.9531 -0.1624
   33DOPE  C215 4198   3.652   3.052  10.996  0.4884  0.2207 -0.4163
   33DOPE  H15R 4199   3.596   2.956  10.986 -0.8354  1.0864 -1.8672
   33DOPE  H15S 4200   3.595   3.137  10.953  0.7701 -0.1123 -1.4795
   33DOPE  C216 4201   3.696   3.070  11.142 -0.7242  0.5657 -0.2561
   33DOPE  H16R 4202   3.771   3.151  11.152 -0.9042  0.5704  1.3116
   33DOPE  H16S 4203   3.742   2.976  11.178 -2.0259 -0.9586 -2.3597
   33DOPE  C217 4204   3.576   3.126  11.217 -0.3447 -0.4444 -0.3467
   33DOPE  H17R 4205   3.489   3.065  11.184 -1.0804 -0.0760  0.8533
   33DOPE  H17S 4206   3.565   3.234  11.195  2.2385  0.1989  1.0457
   33DOPE  C218 4207   3.598   3.107  11.373  1.4331  0.3123  0.8917
   33DOPE  H18R 4208   3.698   3.142  11.406  1.3618  0.9991  0.3976
   33DOPE  H18S 4209   3.593   2.998  11.394 -1.1057 -0.1126 -1.2982
   33DOPE  H18T 4210   3.516   3.162  11.424  1.2485 -0.0175  0.9561
   33DOPE   C33 4211   3.430   3.486   9.481  0.4135  0.1879  0.2729
   33DOPE   H3X 4212   3.325   3.523   9.484 -0.0097 -0.7250 -1.7945
   33DOPE   H3Y 4213   3.495   3.576   9.476  0.4035  0.1729 -0.1578
   33DOPE   C34 4214   3.453   3.404   9.609  0.0476 -1.3326  0.5832
   33DOPE   H4X 4215   3.372   3.328   9.605 -1.8298  0.6016 -0.7978
   33DOPE   H4Y 4216   3.551   3.351   9.602 -0.1650 -1.6407 -0.2413
   33DOPE   C35 4217   3.440   3.488   9.737 -0.0162  0.1247 -0.0010
   33DOPE   H5X 4218   3.343   3.541   9.727  0.3368  0.7855  0.0430
   33DOPE   H5Y 4219   3.523   3.561   9.742 -1.6683  2.0220  2.7460
   33DOPE   C36 4220   3.440   3.408   9.864  0.6764 -0.2322  0.4387
   33DOPE   H6X 4221   3.542   3.367   9.880  0.0942 -0.7847  3.3972
   33DOPE   H6Y 4222   3.370   3.321   9.857 -0.4904  0.6431  0.8894
   33DOPE   C37 4223   3.404   3.494   9.983 -0.1041 -0.1104  0.1029
   33DOPE   H7X 4224   3.478   3.577   9.988 -0.3030  0.1814 -1.3206
   33DOPE   H7Y 4225   3.301   3.537   9.991 -0.2142  0.2183 -2.3177
   33DOPE   C38 4226   3.430   3.421  10.125  0.1686 -0.0681  0.3214
   33DOPE   H8X 4227   3.450   3.496  10.205  2.2617 -0.9932  0.7449
   33DOPE   H8Y 4228   3.521   3.358  10.116  0.4352  0.4862 -1.1364
   33DOPE   C39 4229   3.310   3.339  10.164  0.5309  0.3509 -0.1000
   33DOPE   H9X 4230   3.226   3.325  10.095  0.6994 -2.9399  0.2472
   33DOPE  C310 4231   3.295   3.273  10.280  0.4756 -0.5795 -0.0637
   33DOPE  H10X 4232   3.202   3.216  10.294 -0.8439  0.1834 -4.2929
   33DOPE  C311 4233   3.390   3.279  10.395 -0.1528  0.2783  0.1203
   33DOPE  H11X 4234   3.440   3.181  10.415 -1.6792 -0.3029  1.2669
   33DOPE  H11Y 4235   3.473   3.351  10.381 -1.1414  1.2693 -0.7386
   33DOPE  C312 4236   3.325   3.309  10.532  0.3898 -0.5437  0.3310
   33DOPE  H12X 4237   3.237   3.249  10.563 -0.0944  1.1168  2.3751
   33DOPE  H12Y 4238   3.294   3.415  10.524  1.6455 -0.1980 -0.2181
   33DOPE  C313 4239   3.438   3.293  10.640 -0.1379  0.0598 -0.0703
   33DOPE  H13X 4240   3.477   3.189  10.631  0.7690  0.5708 -2.5566
   33DOPE  H13Y 4241   3.519   3.363  10.612  2.4111 -1.8102  2.0861
   33DOPE  C314 4242   3.404   3.338  10.783  0.5792  0.5880  0.0652
   33DOPE  H14X 4243   3.395   3.448  10.777 -2.0239  0.4474  0.4994
   33DOPE  H14Y 4244   3.494   3.311  10.843 -0.7044  0.7848  2.1731
   33DOPE  C315 4245   3.275   3.286  10.851 -0.4687  0.1139 -0.2375
   33DOPE  H15X 4246   3.279   3.175  10.840  0.5760  0.1144  0.0262
   33DOPE  H15Y 4247   3.199   3.316  10.776  1.5688  0.3097 -2.3278
   33DOPE  C316 4248   3.252   3.332  10.998  0.1128 -0.0432  0.2687
   33DOPE  H16X 4249   3.247   3.443  10.993  0.9924 -0.0137 -0.1969
   33DOPE  H16Y 4250   3.345   3.332  11.060  0.6915 -0.1566 -0.5726
   33DOPE  C317 4251   3.138   3.267  11.066  0.4377  0.6335  0.0550
   33DOPE  H17X 4252   3.089   3.338  11.136  0.5611 -0.0428  0.8347
   33DOPE  H17Y 4253   3.068   3.242  10.984  1.2963  1.6079 -1.0031
   33DOPE  C318 4254   3.179   3.138  11.133 -0.0082  0.7078  0.2220
   33DOPE  H18X 4255   3.101   3.077  11.184  2.6281 -3.7765 -0.5330
   33DOPE  H18Y 4256   3.214   3.068  11.054  0.5318  1.6433 -0.3896
   33DOPE  H18Z 4257   3.253   3.154  11.214  0.2595  0.7747 -0.0356
   34DOPE     N 4258   3.153   4.428   8.640 -0.2435 -0.2810 -0.1027
   34DOPE   HN1 4259   3.155   4.459   8.541 -0.0044 -2.9114 -1.0141
   34DOPE   HN2 4260   3.186   4.329   8.651  1.2123  0.0031 -1.4667
   34DOPE   HN3 4261   3.053   4.428   8.668  0.2706  1.8129  2.1322
   34DOPE   C12 4262   3.230   4.514   8.738  0.1804 -0.1081 -0.1416
   34DOPE  H12A 4263   3.311   4.453   8.782 -0.9191 -0.7975  0.9819
   34DOPE  H12B 4264   3.166   4.553   8.821  1.7358  0.0223  1.0375
   34DOPE   C11 4265   3.296   4.637   8.667 -0.2988  0.3726  0.0951
   34DOPE  H11A 4266   3.332   4.604   8.567  0.4140  2.7321 -0.4943
   34DOPE  H11B 4267   3.374   4.676   8.736 -0.6475 -0.1239  0.7799
   34DOPE     P 4268   3.236   4.892   8.622 -0.5409  0.3713  0.1244
   34DOPE   O13 4269   3.119   4.955   8.560 -0.5671 -0.0519  0.6193
   34DOPE   O14 4270   3.360   4.901   8.538 -0.0640 -0.3332 -0.4024
   34DOPE   O11 4271   3.259   4.946   8.770  0.3959 -0.2115 -0.1880
   34DOPE   O12 4272   3.200   4.740   8.636  0.5828  0.1378  0.2943
   34DOPE    C1 4273   3.154   4.958   8.867 -1.2426  0.8304  0.6045
   34DOPE    HA 4274   3.054   4.941   8.823 -1.3202 -0.3355  1.1933
   34DOPE    HB 4275   3.159   5.064   8.900  0.7972  1.4184 -1.3278
   34DOPE    C2 4276   3.173   4.873   8.990  0.7613 -0.3661  0.2391
   34DOPE    HS 4277   3.154   4.768   8.960 -1.2960 -0.4868  1.7525
   34DOPE   O21 4278   3.063   4.920   9.071 -0.6304 -0.9350  0.2072
   34DOPE   C21 4279   3.014   4.827   9.154 -0.4528  0.6033 -0.0511
   34DOPE   O22 4280   3.063   4.712   9.163  0.3461 -0.4307  0.0782
   34DOPE   C22 4281   2.905   4.887   9.243  0.5276 -0.1339 -0.2987
   34DOPE   H2R 4282   2.803   4.873   9.201  1.0319 -1.7135 -1.0720
   34DOPE   H2S 4283   2.924   4.996   9.257  0.1963 -0.1453  0.2598
   34DOPE    C3 4284   3.311   4.905   9.050  0.2584  0.2336 -0.3427
   34DOPE    HX 4285   3.307   5.015   9.064  0.8490  0.2520 -0.2684
   34DOPE    HY 4286   3.393   4.891   8.976  0.7865  0.2776  0.2303
   34DOPE   O31 4287   3.340   4.839   9.178 -0.3198 -0.3943 -0.0535
   34DOPE   C31 4288   3.379   4.712   9.160  0.7385 -0.1106 -0.7688
   34DOPE   O32 4289   3.409   4.660   9.059 -0.2300  0.3254 -0.0765
   34DOPE   C32 4290   3.392   4.641   9.291  0.0378  0.4836  0.2351
   34DOPE   H2X 4291   3.326   4.552   9.298  2.0449 -1.9877 -5.7285
   34DOPE   H2Y 4292   3.497   4.605   9.299 -0.1352  0.0575  0.6699
   34DOPE   C23 4293   2.904   4.820   9.383 -0.2679  0.4956 -0.5731
   34DOPE   H3R 4294   3.001   4.841   9.433 -0.1385  0.8763 -0.9816
   34DOPE   H3S 4295   2.889   4.710   9.378  0.1328  0.3065  1.3746
   34DOPE   C24 4296   2.789   4.867   9.472  0.0126  0.1295  1.2407
   34DOPE   H4R 4297   2.700   4.830   9.417  0.5360  0.1280  0.3785
   34DOPE   H4S 4298   2.781   4.978   9.466 -0.6467  0.0042 -1.5690
   34DOPE   C25 4299   2.802   4.814   9.616 -0.6221 -0.0481 -0.1904
   34DOPE   H5R 4300   2.844   4.711   9.614 -0.0661  0.1835 -0.3920
   34DOPE   H5S 4301   2.697   4.822   9.652 -0.6531  0.2026 -0.3309
   34DOPE   C26 4302   2.896   4.886   9.718 -0.0989 -0.2558  0.2481
   34DOPE   H6R 4303   2.829   4.952   9.777 -1.3754  1.3463 -2.7429
   34DOPE   H6S 4304   2.969   4.944   9.658 -1.3437  1.3530  0.2242
   34DOPE   C27 4305   2.965   4.787   9.810 -0.0055  0.3115 -0.6941
   34DOPE   H7R 4306   3.014   4.706   9.752 -0.8233 -1.4666  0.9833
   34DOPE   H7S 4307   2.885   4.737   9.867  1.1588  1.1261  1.7900
   34DOPE   C28 4308   3.071   4.853   9.904 -0.3709  0.4607 -0.4704
   34DOPE   H8R 4309   3.142   4.922   9.853  1.0256 -1.6696 -1.5842
   34DOPE   H8S 4310   3.135   4.768   9.937 -0.3379  0.4283 -0.6211
   34DOPE   C29 4311   3.001   4.922  10.020  0.5639 -0.1191 -0.2493
   34DOPE   H9R 4312   2.935   5.006   9.992  1.9658  0.8041 -0.8925
   34DOPE  C210 4313   3.014   4.891  10.153  0.9894  0.4791  0.4510
   34DOPE  H10R 4314   2.941   4.938  10.220  0.1971 -1.0583  0.7091
   34DOPE  C211 4315   3.092   4.784  10.219  0.1116 -0.2114  0.7818
   34DOPE  H11R 4316   3.183   4.767  10.157 -0.9296  0.6278 -1.0400
   34DOPE  H11S 4317   3.037   4.688  10.231 -1.4233  0.3555 -1.1152
   34DOPE  C212 4318   3.139   4.829  10.352  0.1640 -0.5475 -0.0365
   34DOPE  H12R 4319   3.061   4.870  10.420 -1.2459 -0.1610 -1.8283
   34DOPE  H12S 4320   3.213   4.911  10.342  0.5301 -0.9858 -1.0619
   34DOPE  C213 4321   3.221   4.721  10.419 -0.4971  0.0440 -0.2341
   34DOPE  H13R 4322   3.286   4.682  10.338 -0.0994 -0.5226  0.3425
   34DOPE  H13S 4323   3.157   4.638  10.456  1.3252 -1.6013 -0.5838
   34DOPE  C214 4324   3.316   4.764  10.528 -0.2723  0.4805  0.1304
   34DOPE  H14R 4325   3.366   4.858  10.500  1.5537 -0.7080 -0.8035
   34DOPE  H14S 4326   3.388   4.679  10.536 -0.3995  0.2990 -0.5804
   34DOPE  C215 4327   3.253   4.790  10.665  0.4500 -0.1092 -0.0441
   34DOPE  H15R 4328   3.158   4.736  10.681  0.6293 -0.3358  0.2675
   34DOPE  H15S 4329   3.224   4.897  10.674 -0.3665 -0.1907 -1.4355
   34DOPE  C216 4330   3.349   4.750  10.772 -0.3179 -0.0361 -0.9174
   34DOPE  H16R 4331   3.450   4.793  10.756 -0.2888  0.8473  1.3424
   34DOPE  H16S 4332   3.368   4.640  10.765  0.5062 -0.0925  1.4921
   34DOPE  C217 4333   3.306   4.782  10.915  0.0674 -0.1067  0.1828
   34DOPE  H17R 4334   3.205   4.738  10.927 -0.8651  2.0897  0.8116
   34DOPE  H17S 4335   3.287   4.891  10.924  0.3134  0.0067 -0.6021
   34DOPE  C218 4336   3.408   4.755  11.023 -0.4277  0.2691  0.6897
   34DOPE  H18R 4337   3.365   4.785  11.121 -1.5256 -2.9926  1.3471
   34DOPE  H18S 4338   3.493   4.822  10.998 -0.2048  0.0177  0.7717
   34DOPE  H18T 4339   3.442   4.649  11.018 -0.3414  0.2976  0.6871
   34DOPE   C33 4340   3.367   4.721   9.416 -0.2958 -0.4159  0.0001
   34DOPE   H3X 4341   3.257   4.736   9.417 -0.5183 -1.7977 -0.7657
   34DOPE   H3Y 4342   3.422   4.817   9.406  0.3596 -0.9464 -1.8558
   34DOPE   C34 4343   3.424   4.650   9.535  0.4677 -0.4163  0.1947
   34DOPE   H4X 4344   3.370   4.554   9.547 -0.0495 -0.1117  0.3238
   34DOPE   H4Y 4345   3.532   4.628   9.521 -0.0713 -2.0027 -1.9157
   34DOPE   C35 4346   3.393   4.726   9.668  0.3298  0.2875  0.1110
   34DOPE   H5X 4347   3.404   4.652   9.750  2.6864  1.6466  1.0936
   34DOPE   H5Y 4348   3.287   4.758   9.655 -0.9388 -3.5389 -0.5463
   34DOPE   C36 4349   3.489   4.838   9.699 -0.8355  0.1513 -0.5721
   34DOPE   H6X 4350   3.481   4.915   9.619 -0.8888  3.3496  2.2590
   34DOPE   H6Y 4351   3.591   4.796   9.690 -1.8325 -2.4591 -0.4237
   34DOPE   C37 4352   3.455   4.907   9.832  0.4273 -0.1165  0.2111
   34DOPE   H7X 4353   3.491   5.012   9.827 -2.8363  1.1210  0.3929
   34DOPE   H7Y 4354   3.344   4.900   9.835  0.2627 -0.2850 -2.8466
   34DOPE   C38 4355   3.496   4.825   9.951  0.2298 -0.1291  0.2425
   34DOPE   H8X 4356   3.437   4.732   9.943  0.3401 -0.2606  0.8407
   34DOPE   H8Y 4357   3.457   4.879  10.040 -1.0402 -2.0985  0.9398
   34DOPE   C39 4358   3.643   4.788   9.967  0.4231  0.1314 -0.1584
   34DOPE   H9X 4359   3.720   4.862   9.941  1.0006 -0.7483 -1.0491
   34DOPE  C310 4360   3.688   4.677  10.031 -0.2821  0.6267  0.4573
   34DOPE  H10X 4361   3.796   4.664  10.048 -0.3735 -1.0839 -0.1155
   34DOPE  C311 4362   3.606   4.575  10.107  0.0941 -0.1077  0.5818
   34DOPE  H11X 4363   3.499   4.576  10.075  0.4920  1.1565 -0.8613
   34DOPE  H11Y 4364   3.655   4.477  10.088  3.3477  1.4624  0.2930
   34DOPE  C312 4365   3.611   4.602  10.263  0.3394  0.5976  0.8098
   34DOPE  H12X 4366   3.536   4.534  10.308  1.3320 -0.2845  1.1730
   34DOPE  H12Y 4367   3.593   4.711  10.277  1.3319  1.2792 -2.2773
   34DOPE  C313 4368   3.742   4.566  10.334  0.3014  0.5088 -0.0621
   34DOPE  H13X 4369   3.774   4.459  10.328 -1.5410 -0.0973  0.3854
   34DOPE  H13Y 4370   3.827   4.628  10.295  0.3084  0.3900 -0.2403
   34DOPE  C314 4371   3.732   4.605  10.488  0.1930  0.3041  0.2487
   34DOPE  H14X 4372   3.650   4.537  10.519  0.6268 -0.8412 -1.0081
   34DOPE  H14Y 4373   3.702   4.711  10.497  1.0653  0.5358  0.5484
   34DOPE  C315 4374   3.862   4.577  10.566  0.1403  0.2412 -0.5696
   34DOPE  H15X 4375   3.945   4.626  10.511  0.6553  0.8842  0.7168
   34DOPE  H15Y 4376   3.891   4.470  10.569  1.9610  0.6969 -0.9749
   34DOPE  C316 4377   3.864   4.645  10.707 -0.0851  0.0253 -0.2667
   34DOPE  H16X 4378   3.815   4.744  10.709  1.2835  0.7282  2.0578
   34DOPE  H16Y 4379   3.964   4.654  10.753 -0.5667  0.6196  0.7088
   34DOPE  C317 4380   3.788   4.557  10.807  0.1146  0.6231 -0.1070
   34DOPE  H17X 4381   3.688   4.525  10.769 -0.2325 -0.3769  1.5639
   34DOPE  H17Y 4382   3.844   4.465  10.831 -0.0975  0.3897 -0.5000
   34DOPE  C318 4383   3.772   4.631  10.944  0.1025 -0.3492  1.0034
   34DOPE  H18X 4384   3.870   4.664  10.983  0.8737 -0.8946 -0.4040
   34DOPE  H18Y 4385   3.701   4.716  10.952  0.0797 -0.1398 -0.8243
   34DOPE  H18Z 4386   3.725   4.558  11.013 -1.4094  0.1036  0.4860
   35DOPE     N 4387   5.748   4.181   8.285 -0.1752 -0.4046  0.0451
   35DOPE   HN1 4388   5.724   4.108   8.355 -0.0044  0.1584  0.7011
   35DOPE   HN2 4389   5.667   4.177   8.220 -1.2406  0.8248  1.2266
   35DOPE   HN3 4390   5.836   4.150   8.240 -0.8886 -0.5525 -1.2778
   35DOPE   C12 4391   5.755   4.318   8.348  0.4850  0.7297  0.2347
   35DOPE  H12A 4392   5.693   4.386   8.286 -2.6840 -2.1218  0.0303
   35DOPE  H12B 4393   5.861   4.351   8.339  0.2998  1.5265  0.8094
   35DOPE   C11 4394   5.709   4.324   8.496  0.1506 -0.5247 -0.9697
   35DOPE  H11A 4395   5.714   4.431   8.528 -2.9669 -0.6695  0.3083
   35DOPE  H11B 4396   5.785   4.275   8.562 -0.6482  1.3823  1.5416
   35DOPE     P 4397   5.535   4.146   8.565 -0.1297  0.4133  0.3635
   35DOPE   O13 4398   5.617   4.036   8.501 -0.0638 -0.9063 -0.0613
   35DOPE   O14 4399   5.387   4.120   8.558 -0.9200 -0.2732 -0.3164
   35DOPE   O11 4400   5.568   4.156   8.716  0.8027 -0.0124  0.2359
   35DOPE   O12 4401   5.575   4.290   8.510 -0.8441  0.3167 -0.4942
   35DOPE    C1 4402   5.508   4.269   8.781 -0.3111  0.0175  0.0005
   35DOPE    HA 4403   5.398   4.278   8.768 -0.3014  0.3762  0.1588
   35DOPE    HB 4404   5.549   4.367   8.749  0.1197  0.2592  1.2571
   35DOPE    C2 4405   5.529   4.272   8.936  0.5108 -0.3042  0.9197
   35DOPE    HS 4406   5.474   4.363   8.970  0.0660  0.0537 -0.6788
   35DOPE   O21 4407   5.670   4.280   8.972 -0.4368  0.0341 -0.3247
   35DOPE   C21 4408   5.720   4.401   8.945  0.4724  0.1641  0.2833
   35DOPE   O22 4409   5.653   4.496   8.897 -0.4245 -0.0237  0.1680
   35DOPE   C22 4410   5.852   4.423   9.005 -0.0007  0.0357  0.9592
   35DOPE   H2R 4411   5.914   4.484   8.936  1.2518 -2.5799 -0.3826
   35DOPE   H2S 4412   5.907   4.328   9.025  4.0169  2.0053  0.2965
   35DOPE    C3 4413   5.456   4.154   9.003  0.0510 -1.0400  0.0410
   35DOPE    HX 4414   5.506   4.061   8.971  1.3756 -0.4553  0.3456
   35DOPE    HY 4415   5.355   4.149   8.957 -1.1076 -0.8896  2.3910
   35DOPE   O31 4416   5.444   4.166   9.146 -0.5535 -0.2561  0.5108
   35DOPE   C31 4417   5.382   4.065   9.197 -0.1034 -0.0173 -0.5087
   35DOPE   O32 4418   5.336   3.969   9.138 -0.4823  0.2504 -0.4079
   35DOPE   C32 4419   5.373   4.082   9.350 -0.1509 -0.8607  0.2900
   35DOPE   H2X 4420   5.472   4.118   9.387 -0.4087 -0.3596  0.5098
   35DOPE   H2Y 4421   5.314   4.174   9.371  3.2053  0.8404  3.4413
   35DOPE   C23 4422   5.845   4.492   9.147 -0.1092  0.4915  0.2071
   35DOPE   H3R 4423   5.757   4.552   9.177  0.5658  0.3542  2.7273
   35DOPE   H3S 4424   5.935   4.557   9.138  2.1881 -2.3041  1.4375
   35DOPE   C24 4425   5.860   4.393   9.266 -0.0002  0.3899 -0.7380
   35DOPE   H4R 4426   5.895   4.450   9.354  1.2099  1.5430 -1.9134
   35DOPE   H4S 4427   5.935   4.316   9.238 -0.1003  0.1490 -0.3494
   35DOPE   C25 4428   5.734   4.324   9.305  0.1827  0.7017 -1.0315
   35DOPE   H5R 4429   5.692   4.264   9.221 -0.4127  0.5630 -0.6402
   35DOPE   H5S 4430   5.653   4.391   9.341 -0.3219 -0.1143 -0.6179
   35DOPE   C26 4431   5.768   4.243   9.430  0.1559 -0.4630 -0.2435
   35DOPE   H6R 4432   5.878   4.226   9.434  0.0029 -1.3367  0.3845
   35DOPE   H6S 4433   5.713   4.147   9.425 -0.9395  0.1050  0.4818
   35DOPE   C27 4434   5.735   4.321   9.555  0.3495 -0.4131 -1.0159
   35DOPE   H7R 4435   5.632   4.358   9.539 -0.7934 -3.3682 -1.0814
   35DOPE   H7S 4436   5.797   4.414   9.562  0.8796 -0.7278 -1.4401
   35DOPE   C28 4437   5.746   4.255   9.692 -0.8191 -0.1688 -0.0351
   35DOPE   H8R 4438   5.727   4.332   9.770 -0.8653 -0.0637 -0.1497
   35DOPE   H8S 4439   5.854   4.233   9.707 -0.9241  1.0354  3.2954
   35DOPE   C29 4440   5.663   4.140   9.721 -0.6376 -0.2941 -0.8638
   35DOPE   H9R 4441   5.628   4.091   9.629  1.3419  1.0168 -2.3993
   35DOPE  C210 4442   5.620   4.106   9.842 -0.2505  1.1159  0.1119
   35DOPE  H10R 4443   5.570   4.009   9.850  1.3037  0.2286 -0.5452
   35DOPE  C211 4444   5.649   4.170   9.977 -0.4477 -0.2457 -0.1373
   35DOPE  H11R 4445   5.734   4.242   9.978 -1.8188  1.4057  0.9862
   35DOPE  H11S 4446   5.678   4.086  10.044 -1.9365  1.0031  2.1995
   35DOPE  C212 4447   5.527   4.236  10.035 -0.1699 -0.2845 -0.1961
   35DOPE  H12R 4448   5.433   4.178  10.024  1.2729 -2.6784 -0.7943
   35DOPE  H12S 4449   5.518   4.324   9.968  0.6853  0.3446  0.4953
   35DOPE  C213 4450   5.546   4.274  10.180  0.3670 -0.8952 -0.5166
   35DOPE  H13R 4451   5.462   4.340  10.209  2.5599  1.9610 -0.1539
   35DOPE  H13S 4452   5.643   4.329  10.188 -0.2772  0.0729  1.2274
   35DOPE  C214 4453   5.541   4.157  10.284  0.1523 -0.5180  0.4859
   35DOPE  H14R 4454   5.614   4.077  10.258  0.4828 -0.7573  2.0710
   35DOPE  H14S 4455   5.438   4.115  10.282 -1.2099  2.4447  1.4266
   35DOPE  C215 4456   5.565   4.194  10.431  0.5303  0.1634 -0.6128
   35DOPE  H15R 4457   5.485   4.258  10.473  1.2697  0.1983  0.8070
   35DOPE  H15S 4458   5.653   4.262  10.425 -0.3407  1.1903 -2.5795
   35DOPE  C216 4459   5.581   4.062  10.520 -0.0625 -1.0065  0.6240
   35DOPE  H16R 4460   5.666   4.000  10.486  1.6948  0.9882  1.1470
   35DOPE  H16S 4461   5.485   4.008  10.506 -0.5539  0.2951 -1.5969
   35DOPE  C217 4462   5.601   4.097  10.666 -0.2352  0.4614  0.3318
   35DOPE  H17R 4463   5.516   4.157  10.705  1.0620  0.2975  3.7176
   35DOPE  H17S 4464   5.695   4.153  10.686 -0.4691  1.0478 -0.1632
   35DOPE  C218 4465   5.614   3.969  10.743 -0.6473 -0.2794  0.2012
   35DOPE  H18R 4466   5.584   3.884  10.678 -2.5282  0.7188 -0.3049
   35DOPE  H18S 4467   5.550   3.967  10.834 -0.3644  0.4509  0.4246
   35DOPE  H18T 4468   5.718   3.951  10.780 -1.0697 -0.6492  1.2670
   35DOPE   C33 4469   5.322   3.961   9.421  0.2281  0.3874  0.8039
   35DOPE   H3X 4470   5.398   3.880   9.418 -0.4633 -0.2747  0.8667
   35DOPE   H3Y 4471   5.222   3.932   9.382  0.2838 -0.0382  0.9756
   35DOPE   C34 4472   5.305   3.989   9.575 -0.3742 -1.0258  0.7307
   35DOPE   H4X 4473   5.403   4.019   9.618 -0.8365 -0.3454  1.3458
   35DOPE   H4Y 4474   5.247   4.084   9.582 -0.3474 -1.0476  1.3398
   35DOPE   C35 4475   5.251   3.875   9.648  0.2688  0.7530  0.3500
   35DOPE   H5X 4476   5.341   3.814   9.672  0.9704  1.9123  0.7086
   35DOPE   H5Y 4477   5.185   3.813   9.583  0.8604  0.7673 -0.2682
   35DOPE   C36 4478   5.177   3.898   9.783 -0.3766  1.0290  0.1251
   35DOPE   H6X 4479   5.147   3.795   9.813 -0.4355  0.7116 -0.9872
   35DOPE   H6Y 4480   5.091   3.968   9.773 -1.6097 -0.3687  0.6518
   35DOPE   C37 4481   5.272   3.949   9.884  0.0487 -0.0959  0.0532
   35DOPE   H7X 4482   5.370   3.899   9.871  0.4453  0.2246  1.6263
   35DOPE   H7Y 4483   5.310   4.052   9.870  1.5195 -0.6870 -0.4722
   35DOPE   C38 4484   5.238   3.939  10.033  0.6544 -0.1941  0.3898
   35DOPE   H8X 4485   5.318   3.983  10.095  0.5140 -1.3661  1.4328
   35DOPE   H8Y 4486   5.224   3.833  10.064  0.3631 -0.4083 -0.4298
   35DOPE   C39 4487   5.113   4.019  10.071 -0.8026 -1.1654  0.4204
   35DOPE   H9X 4488   5.077   4.083   9.989 -0.4635 -0.3179  0.9215
   35DOPE  C310 4489   5.063   4.048  10.192 -0.2158 -0.0696  0.5330
   35DOPE  H10X 4490   4.977   4.114  10.209  0.0460  0.4400 -0.0784
   35DOPE  C311 4491   5.136   4.002  10.311  0.9163  0.7839 -0.5293
   35DOPE  H11X 4492   5.246   3.995  10.297  1.3298  1.3489  1.9563
   35DOPE  H11Y 4493   5.136   4.076  10.394  1.8068  0.0706  0.1301
   35DOPE  C312 4494   5.063   3.873  10.348  0.0649 -0.1681  0.0569
   35DOPE  H12X 4495   5.065   3.817  10.252  1.7318  1.5665 -0.9879
   35DOPE  H12Y 4496   4.957   3.892  10.376  0.3219 -0.7261  1.5555
   35DOPE  C313 4497   5.132   3.787  10.458 -0.0702  0.5722 -0.1708
   35DOPE  H13X 4498   5.064   3.703  10.484 -0.7192  0.9609 -0.5774
   35DOPE  H13Y 4499   5.232   3.751  10.425  0.6264  0.8756  1.5450
   35DOPE  C314 4500   5.153   3.875  10.581 -0.2255 -0.0932 -0.4890
   35DOPE  H14X 4501   5.078   3.957  10.593  0.2403  0.4209 -1.0115
   35DOPE  H14Y 4502   5.247   3.933  10.567 -1.1305  1.2982 -1.0859
   35DOPE  C315 4503   5.164   3.810  10.719 -0.4084 -0.4714  0.0971
   35DOPE  H15X 4504   5.222   3.715  10.716  1.1769  0.4456  0.6368
   35DOPE  H15Y 4505   5.066   3.777  10.761 -0.1028  0.1508  1.3552
   35DOPE  C316 4506   5.217   3.912  10.824 -0.1838  0.5383 -0.7384
   35DOPE  H16X 4507   5.161   4.007  10.826 -0.2212  0.5024  0.7446
   35DOPE  H16Y 4508   5.322   3.940  10.797 -0.5658  0.3717 -2.5237
   35DOPE  C317 4509   5.218   3.858  10.974 -0.0120 -0.3531 -0.3352
   35DOPE  H17X 4510   5.120   3.807  10.981  0.5280 -1.3939 -0.1681
   35DOPE  H17Y 4511   5.303   3.793  11.004  0.8836  1.8868  2.4707
   35DOPE  C318 4512   5.217   3.961  11.083 -0.5229 -0.1842  0.1428
   35DOPE  H18X 4513   5.138   4.033  11.052  0.7117  1.2625  0.2665
   35DOPE  H18Y 4514   5.185   3.908  11.176 -3.9495  2.7467  0.8549
   35DOPE  H18Z 4515   5.314   4.013  11.092  0.3951 -1.7733 -0.2034
   36DOPE     N 4516   4.868   5.164   8.652  0.4457  0.0352  0.2516
   36DOPE   HN1 4517   4.854   5.062   8.639  0.2527  0.1310 -0.3151
   36DOPE   HN2 4518   4.851   5.195   8.750 -1.8681 -0.2111 -0.0268
   36DOPE   HN3 4519   4.796   5.216   8.599  0.2530 -0.6383 -0.1523
   36DOPE   C12 4520   5.003   5.204   8.600  0.3964  0.0310  0.5894
   36DOPE  H12A 4521   5.019   5.306   8.642 -1.7437  0.2179  1.0770
   36DOPE  H12B 4522   5.006   5.205   8.489  0.8510 -1.8701  0.5621
   36DOPE   C11 4523   5.110   5.117   8.661 -0.4768  0.0647 -0.1634
   36DOPE  H11A 4524   5.084   5.114   8.769 -1.8571 -0.0429 -0.4736
   36DOPE  H11B 4525   5.210   5.165   8.656  1.6000 -3.7737  0.8655
   36DOPE     P 4526   5.242   4.907   8.596 -0.0568 -0.1561  0.2375
   36DOPE   O13 4527   5.346   5.000   8.545 -0.0919  0.0093  0.2738
   36DOPE   O14 4528   5.216   4.789   8.509 -0.0192  0.1761  0.2780
   36DOPE   O11 4529   5.281   4.866   8.739  0.2501 -0.5609  0.3961
   36DOPE   O12 4530   5.104   4.983   8.609  0.2167  0.1022 -0.6540
   36DOPE    C1 4531   5.192   4.800   8.829 -0.5023 -0.1569  0.1177
   36DOPE    HA 4532   5.157   4.704   8.784 -1.0557  0.9669 -1.9618
   36DOPE    HB 4533   5.101   4.862   8.838  0.1797  0.7394  1.0076
   36DOPE    C2 4534   5.247   4.787   8.978 -1.0811  0.6933  0.7513
   36DOPE    HS 4535   5.176   4.734   9.045 -1.1565  2.2976  1.9935
   36DOPE   O21 4536   5.292   4.912   9.029 -0.1842 -0.0752 -0.4816
   36DOPE   C21 4537   5.194   4.999   9.067  0.2753 -0.4416  0.3374
   36DOPE   O22 4538   5.076   4.981   9.042 -0.0074 -0.2549  0.2128
   36DOPE   C22 4539   5.247   5.119   9.135 -0.4080  0.0232  1.0148
   36DOPE   H2R 4540   5.154   5.165   9.176 -0.2843  0.3784  0.8987
   36DOPE   H2S 4541   5.287   5.183   9.053 -3.6113 -0.3786 -1.0294
   36DOPE    C3 4542   5.369   4.696   8.973 -0.1933  0.0707 -0.1619
   36DOPE    HX 4543   5.441   4.738   8.899  1.0722 -0.6175  0.6395
   36DOPE    HY 4544   5.349   4.591   8.945 -0.9217  0.3687 -0.8083
   36DOPE   O31 4545   5.423   4.685   9.106  0.3518  0.9268  0.3610
   36DOPE   C31 4546   5.537   4.752   9.137 -0.1594  0.6323  0.4304
   36DOPE   O32 4547   5.608   4.806   9.057 -0.9123 -0.0586 -0.0450
   36DOPE   C32 4548   5.552   4.761   9.284  0.9218  0.5244  0.1927
   36DOPE   H2X 4549   5.460   4.805   9.327 -0.0091  0.0466 -1.2546
   36DOPE   H2Y 4550   5.554   4.654   9.316 -0.9917  0.8533  1.5872
   36DOPE   C23 4551   5.364   5.107   9.248 -0.2232  0.0507  0.1794
   36DOPE   H3R 4552   5.401   5.211   9.258  1.3807 -0.4841  0.0993
   36DOPE   H3S 4553   5.446   5.041   9.210  1.1096  1.4188  0.5990
   36DOPE   C24 4554   5.303   5.045   9.375  0.0646 -0.3169  0.5510
   36DOPE   H4R 4555   5.274   4.944   9.341 -1.5357  0.9281 -2.1369
   36DOPE   H4S 4556   5.207   5.095   9.400  0.2862  1.7687 -2.2269
   36DOPE   C25 4557   5.402   5.035   9.494 -0.4115  0.2747  0.5772
   36DOPE   H5R 4558   5.427   5.140   9.520 -1.3351  0.6603 -0.0630
   36DOPE   H5S 4559   5.494   4.974   9.482  0.1622  1.1053  0.6286
   36DOPE   C26 4560   5.333   4.989   9.624  0.9973  0.2326  0.2839
   36DOPE   H6R 4561   5.316   4.880   9.614  1.4692  0.0491  1.3048
   36DOPE   H6S 4562   5.238   5.046   9.632  0.7699 -0.1372  0.2165
   36DOPE   C27 4563   5.417   5.024   9.749  0.1712  0.3156  0.0268
   36DOPE   H7R 4564   5.435   5.132   9.768 -2.1357  0.5111  1.5042
   36DOPE   H7S 4565   5.518   4.980   9.733 -0.4916 -0.9598 -0.7683
   36DOPE   C28 4566   5.361   4.964   9.877 -0.0657 -0.2251  0.0920
   36DOPE   H8R 4567   5.446   4.975   9.947  0.8642 -1.3110 -0.8087
   36DOPE   H8S 4568   5.349   4.857   9.849  0.1798 -0.1389 -0.3656
   36DOPE   C29 4569   5.229   5.034   9.915 -0.7403  0.1413  0.4842
   36DOPE   H9R 4570   5.158   5.047   9.833  0.3466 -1.9922 -0.8867
   36DOPE  C210 4571   5.190   5.063  10.037  0.3375  0.6664  0.3415
   36DOPE  H10R 4572   5.097   5.121  10.047 -1.0041 -1.0805 -1.3366
   36DOPE  C211 4573   5.266   5.053  10.168  0.2511  0.6686  0.0609
   36DOPE  H11R 4574   5.337   5.137  10.183 -0.8964  1.6965 -0.0357
   36DOPE  H11S 4575   5.327   4.961  10.176  1.2648  1.4375  1.7418
   36DOPE  C212 4576   5.190   5.041  10.307  0.6286 -0.4675  0.2574
   36DOPE  H12R 4577   5.107   5.114  10.293  1.0950  0.5781  2.5419
   36DOPE  H12S 4578   5.258   5.082  10.385  1.1635 -0.7269 -0.0642
   36DOPE  C213 4579   5.132   4.906  10.338 -0.2745 -0.2220  0.1575
   36DOPE  H13R 4580   5.211   4.830  10.356 -1.1777 -1.1915  0.0898
   36DOPE  H13S 4581   5.071   4.872  10.252  1.4585  1.4774 -1.8778
   36DOPE  C214 4582   5.058   4.897  10.474  0.3275  0.3490 -0.1553
   36DOPE  H14R 4583   5.029   4.789  10.473 -0.7220  0.4797  3.2494
   36DOPE  H14S 4584   4.966   4.959  10.478 -0.7344 -1.2148  1.9042
   36DOPE  C215 4585   5.148   4.918  10.597 -0.1610  0.0423 -0.2129
   36DOPE  H15R 4586   5.174   5.026  10.598  0.3115 -0.0639  1.2707
   36DOPE  H15S 4587   5.235   4.858  10.564  1.6221  1.4770  1.6586
   36DOPE  C216 4588   5.111   4.847  10.729  0.3896  0.5889  0.1734
   36DOPE  H16R 4589   5.097   4.744  10.691  0.2053  1.1201 -1.3016
   36DOPE  H16S 4590   5.012   4.891  10.752 -0.1901  0.3949 -1.7248
   36DOPE  C217 4591   5.223   4.882  10.832  0.5421  0.3559 -0.2484
   36DOPE  H17R 4592   5.228   4.992  10.848  1.0571  0.2433  0.4276
   36DOPE  H17S 4593   5.315   4.850  10.779 -0.5291 -0.4088 -1.7206
   36DOPE  C218 4594   5.221   4.816  10.968 -0.2745 -0.2857  0.2810
   36DOPE  H18R 4595   5.304   4.851  11.034 -0.9081 -0.0979  0.9833
   36DOPE  H18S 4596   5.224   4.706  10.962 -0.1267 -0.2391 -0.5673
   36DOPE  H18T 4597   5.132   4.838  11.030 -0.1831 -0.6687  0.5504
   36DOPE   C33 4598   5.687   4.819   9.333  0.2362  0.1953  0.6410
   36DOPE   H3X 4599   5.682   4.930   9.338  0.8549  0.3585 -1.3870
   36DOPE   H3Y 4600   5.769   4.800   9.260 -0.2849 -3.0486  0.7675
   36DOPE   C34 4601   5.740   4.761   9.463 -0.1591 -0.8504 -0.1102
   36DOPE   H4X 4602   5.752   4.654   9.437  0.6155 -1.3093  1.9948
   36DOPE   H4Y 4603   5.837   4.814   9.475 -0.8851  0.2064  1.4425
   36DOPE   C35 4604   5.650   4.774   9.584 -0.0226  0.0070 -0.1077
   36DOPE   H5X 4605   5.560   4.713   9.561  0.2341 -1.1107  1.6911
   36DOPE   H5Y 4606   5.631   4.882   9.599 -1.4137 -0.1019 -0.9282
   36DOPE   C36 4607   5.702   4.721   9.710  1.0090  0.1363 -0.1681
   36DOPE   H6X 4608   5.766   4.789   9.770 -0.6911  1.6891 -0.0503
   36DOPE   H6Y 4609   5.771   4.637   9.686 -0.1011 -0.2504 -2.2259
   36DOPE   C37 4610   5.600   4.662   9.814 -0.3260 -0.1811  0.6099
   36DOPE   H7X 4611   5.503   4.717   9.805 -0.4826 -0.2757  1.6210
   36DOPE   H7Y 4612   5.586   4.556   9.785  2.6344 -0.4839 -0.0034
   36DOPE   C38 4613   5.646   4.667   9.963 -0.3072 -0.6213  0.4997
   36DOPE   H8X 4614   5.693   4.765   9.987  0.3020 -1.3978  2.7248
   36DOPE   H8Y 4615   5.729   4.595   9.980 -0.3744 -0.3886  1.9193
   36DOPE   C39 4616   5.539   4.625  10.053 -0.1976 -0.1919  0.0442
   36DOPE   H9X 4617   5.485   4.530  10.040 -1.3184  0.2670  1.0825
   36DOPE  C310 4618   5.503   4.685  10.163  0.9004 -0.2522 -0.2083
   36DOPE  H10X 4619   5.429   4.625  10.219  1.1715  0.4109  0.8951
   36DOPE  C311 4620   5.558   4.806  10.236 -0.2596 -0.4718 -0.1127
   36DOPE  H11X 4621   5.627   4.852  10.162 -1.0391 -0.7177 -1.0129
   36DOPE  H11Y 4622   5.476   4.866  10.278  0.6386  2.1969 -1.8851
   36DOPE  C312 4623   5.658   4.757  10.346 -0.2313 -0.7053 -0.1571
   36DOPE  H12X 4624   5.726   4.842  10.370  0.9032 -1.7226  0.3286
   36DOPE  H12Y 4625   5.719   4.668  10.322 -0.4815 -0.5847 -1.3004
   36DOPE  C313 4626   5.579   4.732  10.472  0.8779  0.5182  0.4624
   36DOPE  H13X 4627   5.648   4.745  10.558  1.3676  0.7575  0.0401
   36DOPE  H13Y 4628   5.506   4.815  10.487  0.1489 -0.0480  0.0476
   36DOPE  C314 4629   5.517   4.589  10.485 -0.1489  0.2993  0.2712
   36DOPE  H14X 4630   5.591   4.508  10.465 -1.4777 -1.2654  1.3646
   36DOPE  H14Y 4631   5.436   4.586  10.409  0.2330  0.0005 -0.1379
   36DOPE  C315 4632   5.443   4.547  10.613 -0.3633 -0.1161  0.6873
   36DOPE  H15X 4633   5.395   4.451  10.584  0.9568 -0.5268 -0.2435
   36DOPE  H15Y 4634   5.367   4.620  10.647 -0.6300 -1.1181  2.3935
   36DOPE  C316 4635   5.543   4.506  10.719  0.1705  0.8554  0.0975
   36DOPE  H16X 4636   5.602   4.593  10.753 -0.7093  2.0458 -1.3133
   36DOPE  H16Y 4637   5.620   4.434  10.683  0.6273 -0.2412  3.0119
   36DOPE  C317 4638   5.475   4.430  10.837 -0.3267 -0.0257 -0.6112
   36DOPE  H17X 4639   5.426   4.338  10.798 -0.9702  1.2129 -2.9555
   36DOPE  H17Y 4640   5.549   4.395  10.911  0.6101  0.2438 -1.3943
   36DOPE  C318 4641   5.381   4.517  10.910  0.4409 -0.5074 -0.0922
   36DOPE  H18X 4642   5.334   4.476  11.002 -0.4368 -1.3830 -0.9053
   36DOPE  H18Y 4643   5.434   4.610  10.939  0.3153 -0.7498  0.9580
   36DOPE  H18Z 4644   5.292   4.539  10.847  0.2233 -0.4696  0.2226
   37DOPE     N 4645   2.922   4.110   8.346 -0.2278  0.2764 -0.1054
   37DOPE   HN1 4646   2.898   4.153   8.255 -0.8609 -0.8602 -0.4900
   37DOPE   HN2 4647   2.865   4.158   8.418  0.3768  0.3764  0.3195
   37DOPE   HN3 4648   3.022   4.132   8.368 -0.2724  2.5273 -1.8186
   37DOPE   C12 4649   2.883   3.969   8.347  0.2520 -0.1757 -0.2563
   37DOPE  H12A 4650   2.936   3.917   8.264  3.0826 -1.7144  2.3283
   37DOPE  H12B 4651   2.771   3.966   8.345  0.2337 -1.5147  0.9395
   37DOPE   C11 4652   2.908   3.903   8.479 -0.6335 -0.0194  0.7356
   37DOPE  H11A 4653   2.875   3.797   8.491 -0.4209 -0.0150  1.3942
   37DOPE  H11B 4654   2.852   3.963   8.554  0.0371  2.7530 -0.8407
   37DOPE     P 4655   3.118   3.883   8.639 -0.1180 -0.7818 -0.2038
   37DOPE   O13 4656   3.235   3.975   8.647  0.5753  0.3977 -0.5046
   37DOPE   O14 4657   3.142   3.740   8.653 -0.2468  0.4672  0.6241
   37DOPE   O11 4658   3.012   3.920   8.754  0.0554 -0.0910 -0.2479
   37DOPE   O12 4659   3.046   3.911   8.505  0.2553  0.4184  0.2051
   37DOPE    C1 4660   2.977   4.053   8.783 -0.8762 -0.0723 -0.1681
   37DOPE    HA 4661   2.866   4.062   8.781 -0.7328  2.2220 -0.6096
   37DOPE    HB 4662   3.013   4.126   8.707  1.4877 -0.0784  0.8739
   37DOPE    C2 4663   3.026   4.109   8.916  0.1194 -0.1818 -0.2631
   37DOPE    HS 4664   3.015   4.220   8.921  0.2732 -0.2008  0.8711
   37DOPE   O21 4665   3.163   4.085   8.948 -0.1500 -0.4593 -0.1060
   37DOPE   C21 4666   3.247   4.134   8.863 -0.7275 -0.2370  0.0849
   37DOPE   O22 4667   3.219   4.213   8.778 -0.3786  0.5114  0.2232
   37DOPE   C22 4668   3.389   4.080   8.883  0.2226  0.2587 -0.0954
   37DOPE   H2R 4669   3.429   4.086   8.779  0.9355 -0.1022  0.1520
   37DOPE   H2S 4670   3.384   3.973   8.910  2.9886  0.0044 -0.2752
   37DOPE    C3 4671   2.935   4.055   9.032  0.9868 -0.3428  0.2645
   37DOPE    HX 4672   2.940   3.946   9.010 -0.5421 -0.3091 -0.3356
   37DOPE    HY 4673   2.830   4.087   9.016  0.6576 -1.4700  0.0870
   37DOPE   O31 4674   2.980   4.080   9.163 -0.3036  0.5315 -0.4342
   37DOPE   C31 4675   2.953   4.200   9.208 -0.0933  0.0124  0.7635
   37DOPE   O32 4676   2.888   4.285   9.151  0.3412 -0.4172 -0.1546
   37DOPE   C32 4677   3.028   4.198   9.337  0.3878 -0.5512 -0.0537
   37DOPE   H2X 4678   2.995   4.109   9.395 -0.7553  0.9412  1.6793
   37DOPE   H2Y 4679   3.136   4.178   9.320  0.3053 -1.3407  0.3241
   37DOPE   C23 4680   3.480   4.165   8.979 -0.3578 -0.0549 -0.0864
   37DOPE   H3R 4681   3.480   4.270   8.943 -0.7926  1.4101  3.6860
   37DOPE   H3S 4682   3.585   4.130   8.975  0.0477  1.0923  0.2131
   37DOPE   C24 4683   3.433   4.158   9.124  0.1383  0.3723 -0.2092
   37DOPE   H4R 4684   3.448   4.054   9.162 -3.3316  0.6983  2.4865
   37DOPE   H4S 4685   3.325   4.171   9.144 -0.1287 -1.8931  0.1556
   37DOPE   C25 4686   3.504   4.249   9.220 -0.1352 -0.1965  0.3208
   37DOPE   H5R 4687   3.509   4.354   9.184 -1.8802  0.4389  1.7720
   37DOPE   H5S 4688   3.612   4.223   9.215  0.0436  0.4922  0.5556
   37DOPE   C26 4689   3.459   4.229   9.364  0.2109  0.3322  0.6956
   37DOPE   H6R 4690   3.444   4.119   9.370  4.1744 -0.6336 -2.3859
   37DOPE   H6S 4691   3.364   4.286   9.377 -0.2345 -0.7542  2.6246
   37DOPE   C27 4692   3.560   4.282   9.475  0.5971 -0.3780  0.7143
   37DOPE   H7R 4693   3.573   4.388   9.446 -0.0636 -0.7923 -1.2414
   37DOPE   H7S 4694   3.657   4.236   9.448 -0.1092 -2.7380  1.9014
   37DOPE   C28 4695   3.520   4.271   9.622 -0.1752  0.4850 -0.4391
   37DOPE   H8R 4696   3.511   4.166   9.659 -1.6608  0.5760 -0.4628
   37DOPE   H8S 4697   3.412   4.297   9.631 -1.0861 -2.7709 -0.3832
   37DOPE   C29 4698   3.604   4.352   9.717 -0.6406  0.3060 -0.8083
   37DOPE   H9R 4699   3.579   4.459   9.706 -2.2578  0.0275 -0.0908
   37DOPE  C210 4700   3.689   4.306   9.811  0.1809  0.2091  0.1162
   37DOPE  H10R 4701   3.736   4.380   9.877 -0.5215 -0.8049  1.8162
   37DOPE  C211 4702   3.726   4.164   9.837  0.1972 -0.2204 -0.1886
   37DOPE  H11R 4703   3.832   4.138   9.814  0.4160  1.1615 -0.8646
   37DOPE  H11S 4704   3.661   4.100   9.774 -2.6663  0.6851  1.6752
   37DOPE  C212 4705   3.690   4.120   9.976 -0.0245  0.5641 -0.1321
   37DOPE  H12R 4706   3.660   4.013   9.980  0.4484  0.4654  2.0698
   37DOPE  H12S 4707   3.593   4.166  10.006 -0.4913 -0.9058  0.7675
   37DOPE  C213 4708   3.788   4.160  10.088  0.5489 -0.0224  0.4331
   37DOPE  H13R 4709   3.801   4.269  10.075 -2.5444  0.5098  1.0636
   37DOPE  H13S 4710   3.886   4.108  10.077  1.8468  2.4951 -0.5682
   37DOPE  C214 4711   3.735   4.131  10.226  1.1542 -0.4109  0.3802
   37DOPE  H14R 4712   3.689   4.030  10.232  0.1989  0.0877  1.8746
   37DOPE  H14S 4713   3.650   4.198  10.251  0.7858  0.2326 -2.2971
   37DOPE  C215 4714   3.841   4.159  10.336 -0.4243  0.2307 -0.1910
   37DOPE  H15R 4715   3.881   4.262  10.325  2.1310 -0.8912 -2.7382
   37DOPE  H15S 4716   3.919   4.080  10.331 -0.1577  0.5296 -0.7490
   37DOPE  C216 4717   3.775   4.145  10.478  0.2417  0.5165  0.0550
   37DOPE  H16R 4718   3.704   4.060  10.476  0.1403  0.6039 -0.1197
   37DOPE  H16S 4719   3.718   4.239  10.492 -1.9750 -0.6263 -0.6909
   37DOPE  C217 4720   3.879   4.121  10.585 -0.1383 -1.1459  0.3381
   37DOPE  H17R 4721   3.939   4.214  10.587  0.3519 -1.4682  0.6435
   37DOPE  H17S 4722   3.961   4.050  10.560  0.1607 -0.4382 -0.7359
   37DOPE  C218 4723   3.830   4.089  10.723  0.0437 -0.0864 -0.7766
   37DOPE  H18R 4724   3.910   4.061  10.795  0.3405  1.2397 -0.5699
   37DOPE  H18S 4725   3.759   4.002  10.725 -0.6525  0.4809 -0.1844
   37DOPE  H18T 4726   3.778   4.174  10.772  1.4636 -0.5764  1.7204
   37DOPE   C33 4727   2.998   4.312   9.447  0.7548  1.2019 -0.2722
   37DOPE   H3X 4728   2.905   4.287   9.503  0.4833  0.7968 -0.8976
   37DOPE   H3Y 4729   2.982   4.414   9.406  0.3116  0.6484 -1.5457
   37DOPE   C34 4730   3.111   4.320   9.550  0.0679  0.3631  0.9989
   37DOPE   H4X 4731   3.151   4.218   9.570  0.4353  0.2957 -0.0378
   37DOPE   H4Y 4732   3.200   4.378   9.515 -0.4188  1.6740  1.8351
   37DOPE   C35 4733   3.061   4.364   9.685  0.2106  0.2334  0.6807
   37DOPE   H5X 4734   2.980   4.292   9.711  1.0391 -0.5933  1.0099
   37DOPE   H5Y 4735   3.016   4.465   9.677 -0.2024 -0.0249 -0.5889
   37DOPE   C36 4736   3.175   4.372   9.787  0.2831 -0.1894  0.4301
   37DOPE   H6X 4737   3.259   4.436   9.752  0.1462  0.7563  1.7447
   37DOPE   H6Y 4738   3.219   4.271   9.804  1.2019 -0.1607 -1.5023
   37DOPE   C37 4739   3.131   4.435   9.919 -0.3580  0.1446 -0.6610
   37DOPE   H7X 4740   3.085   4.530   9.886  0.6862  1.0615  0.4295
   37DOPE   H7Y 4741   3.058   4.377   9.979  1.2195 -0.3508  0.8868
   37DOPE   C38 4742   3.260   4.471  10.011  0.3617 -0.2029  0.0248
   37DOPE   H8X 4743   3.209   4.543  10.078 -2.0260 -0.3935 -1.5007
   37DOPE   H8Y 4744   3.331   4.527   9.947  1.3739 -1.1556  0.2654
   37DOPE   C39 4745   3.328   4.341  10.056  0.1577  0.3221 -0.2569
   37DOPE   H9X 4746   3.403   4.299   9.987  0.5384 -0.6956  0.7548
   37DOPE  C310 4747   3.299   4.272  10.174 -0.0546 -0.7347  1.1891
   37DOPE  H10X 4748   3.357   4.179  10.185  1.3504 -0.1161 -0.6477
   37DOPE  C311 4749   3.205   4.312  10.279  0.0954 -0.0969 -0.4817
   37DOPE  H11X 4750   3.148   4.399  10.240  1.8538  2.6869  2.6201
   37DOPE  H11Y 4751   3.138   4.226  10.302  0.7301 -0.5861 -0.4457
   37DOPE  C312 4752   3.272   4.356  10.410  0.5021 -0.6540 -0.1052
   37DOPE  H12X 4753   3.194   4.394  10.479  0.4348 -2.5478  0.9358
   37DOPE  H12Y 4754   3.342   4.440  10.391  1.2947 -1.4033 -0.5350
   37DOPE  C313 4755   3.352   4.249  10.473 -0.6857 -0.1785 -0.1509
   37DOPE  H13X 4756   3.279   4.167  10.489 -3.0780  1.7679 -0.3924
   37DOPE  H13Y 4757   3.428   4.227  10.395 -1.9584 -0.9382 -1.2221
   37DOPE  C314 4758   3.437   4.293  10.595  0.3232  0.4538 -0.1926
   37DOPE  H14X 4759   3.515   4.365  10.562  0.8540  0.0172  0.0819
   37DOPE  H14Y 4760   3.499   4.210  10.635 -1.6836 -0.5853  0.9338
   37DOPE  C315 4761   3.348   4.355  10.704  0.1652  0.0012 -0.4343
   37DOPE  H15X 4762   3.267   4.289  10.741  0.2243  0.2732  0.1768
   37DOPE  H15Y 4763   3.298   4.444  10.659 -0.7025 -0.0524  0.3995
   37DOPE  C316 4764   3.421   4.394  10.834 -0.1256 -0.1835 -0.1889
   37DOPE  H16X 4765   3.363   4.474  10.883  0.0711 -1.4396  2.2897
   37DOPE  H16Y 4766   3.513   4.453  10.814 -0.9011  0.9288 -0.5144
   37DOPE  C317 4767   3.452   4.281  10.931  0.2035  0.0995 -0.0386
   37DOPE  H17X 4768   3.361   4.226  10.963 -1.4689  3.1208  0.7823
   37DOPE  H17Y 4769   3.516   4.209  10.876  0.8664  1.2376 -0.7988
   37DOPE  C318 4770   3.536   4.326  11.049  0.5322 -0.1327  0.0661
   37DOPE  H18X 4771   3.614   4.389  11.002 -3.2605  2.9468 -2.8680
   37DOPE  H18Y 4772   3.480   4.386  11.124  0.5780 -2.9241  2.4587
   37DOPE  H18Z 4773   3.590   4.244  11.100  1.1496 -0.6110 -1.3106
   38DOPE     N 4774   4.989   5.600   8.209  0.6606  0.5018 -0.1841
   38DOPE   HN1 4775   4.924   5.669   8.167 -0.0742 -0.2324 -0.2721
   38DOPE   HN2 4776   5.001   5.525   8.138 -0.8683  0.2664 -0.2185
   38DOPE   HN3 4777   4.927   5.558   8.281  0.2787  1.8146  0.2636
   38DOPE   C12 4778   5.120   5.652   8.259 -0.2415  0.2338 -0.5000
   38DOPE  H12A 4779   5.112   5.759   8.287  1.4313 -0.2355  2.1327
   38DOPE  H12B 4780   5.200   5.645   8.182  0.4674 -0.1553  0.2533
   38DOPE   C11 4781   5.169   5.565   8.377 -0.1779  0.2035 -0.2776
   38DOPE  H11A 4782   5.262   5.611   8.415 -0.4017  0.9708 -0.6240
   38DOPE  H11B 4783   5.199   5.468   8.332 -3.8744 -0.4569 -1.6907
   38DOPE     P 4784   5.101   5.589   8.635  0.7726  0.1124 -0.3396
   38DOPE   O13 4785   5.108   5.743   8.647  0.2856  0.0056  0.4393
   38DOPE   O14 4786   5.225   5.515   8.672 -0.1288 -0.4114  0.0440
   38DOPE   O11 4787   4.970   5.529   8.717  0.3715  0.2701  0.1401
   38DOPE   O12 4788   5.065   5.555   8.484  0.3020 -0.2148  0.5726
   38DOPE    C1 4789   4.840   5.552   8.668 -0.2120 -0.4814 -0.0787
   38DOPE    HA 4790   4.785   5.460   8.696 -1.8330  0.8764  1.3811
   38DOPE    HB 4791   4.826   5.547   8.558  0.8080 -1.0468 -0.2034
   38DOPE    C2 4792   4.778   5.678   8.733 -0.6205  0.1098  0.3712
   38DOPE    HS 4793   4.851   5.761   8.718  1.1239 -1.2680  0.8217
   38DOPE   O21 4794   4.742   5.641   8.872 -0.6205  0.2354  0.2011
   38DOPE   C21 4795   4.818   5.701   8.967 -0.5697 -0.4193  0.6573
   38DOPE   O22 4796   4.917   5.777   8.949  0.1117  0.2151  0.6927
   38DOPE   C22 4797   4.756   5.677   9.105  0.2397  0.1972 -0.0289
   38DOPE   H2R 4798   4.734   5.569   9.121 -1.2529  0.3479 -0.9136
   38DOPE   H2S 4799   4.658   5.728   9.105 -0.6655 -1.4765 -0.0703
   38DOPE    C3 4800   4.654   5.727   8.667  0.3012  0.4832  0.0509
   38DOPE    HX 4801   4.586   5.638   8.664  1.0930 -0.1718 -3.7500
   38DOPE    HY 4802   4.660   5.752   8.559  0.4225 -0.0547 -0.0684
   38DOPE   O31 4803   4.582   5.835   8.732  0.4967  0.0367 -0.1856
   38DOPE   C31 4804   4.645   5.953   8.720 -0.0438  0.5031 -0.5110
   38DOPE   O32 4805   4.738   5.978   8.646  0.2757  0.6954 -0.1278
   38DOPE   C32 4806   4.601   6.060   8.822 -0.1427  0.8849 -0.3700
   38DOPE   H2X 4807   4.701   6.099   8.853  0.8004 -3.0466  2.4745
   38DOPE   H2Y 4808   4.538   6.135   8.772 -0.8935  0.7671  0.3798
   38DOPE   C23 4809   4.834   5.733   9.221  0.1017  0.3331  0.3754
   38DOPE   H3R 4810   4.874   5.835   9.201 -1.1172  1.1171  1.7683
   38DOPE   H3S 4811   4.917   5.660   9.235  0.3489  0.5127 -0.1368
   38DOPE   C24 4812   4.745   5.728   9.352  0.2592  0.0567 -0.1747
   38DOPE   H4R 4813   4.705   5.625   9.364 -1.6943  0.9146  1.1788
   38DOPE   H4S 4814   4.672   5.811   9.344  1.5850  1.1834 -1.2699
   38DOPE   C25 4815   4.829   5.736   9.485 -0.2962 -0.5438 -0.6673
   38DOPE   H5R 4816   4.869   5.839   9.498 -0.0999 -0.8455  1.5733
   38DOPE   H5S 4817   4.910   5.660   9.474  0.4195  0.5258 -3.7136
   38DOPE   C26 4818   4.732   5.707   9.597 -0.4635  0.0504  0.3820
   38DOPE   H6R 4819   4.676   5.618   9.559  0.2141  0.6530 -2.2628
   38DOPE   H6S 4820   4.676   5.801   9.613  0.3840  1.1590 -2.5552
   38DOPE   C27 4821   4.809   5.688   9.726  0.4262 -0.0897 -0.0723
   38DOPE   H7R 4822   4.874   5.774   9.752  0.0194  0.1908  0.0363
   38DOPE   H7S 4823   4.871   5.599   9.704 -0.4497 -0.9029  0.6723
   38DOPE   C28 4824   4.733   5.652   9.852 -0.2424 -0.0942 -0.4259
   38DOPE   H8R 4825   4.811   5.626   9.927 -0.4367 -1.0466 -0.5490
   38DOPE   H8S 4826   4.680   5.555   9.843  1.5885 -1.2281  0.3299
   38DOPE   C29 4827   4.644   5.768   9.884  0.4983  0.4160  0.3272
   38DOPE   H9R 4828   4.587   5.801   9.796 -0.0269 -0.4359  0.3472
   38DOPE  C210 4829   4.624   5.822  10.008  0.5579 -0.0777 -0.4532
   38DOPE  H10R 4830   4.563   5.913  10.017  0.3850 -0.2868  0.8007
   38DOPE  C211 4831   4.694   5.775  10.131  0.2332  0.6285 -0.2858
   38DOPE  H11R 4832   4.776   5.846  10.159 -0.4314  0.4275  2.4507
   38DOPE  H11S 4833   4.740   5.675  10.115 -0.4347 -0.3692  3.1191
   38DOPE  C212 4834   4.611   5.773  10.267  0.1322  0.5840 -0.8230
   38DOPE  H12R 4835   4.525   5.705  10.249  0.4665 -0.6010  1.6820
   38DOPE  H12S 4836   4.571   5.877  10.268  1.9107  1.3080 -1.1707
   38DOPE  C213 4837   4.694   5.738  10.390  0.2739 -0.2839  0.6289
   38DOPE  H13R 4838   4.793   5.788  10.394  0.5666 -0.9177  1.5762
   38DOPE  H13S 4839   4.704   5.628  10.379 -1.3876 -0.2559 -2.0631
   38DOPE  C214 4840   4.621   5.760  10.524 -0.4454  0.1587  0.0410
   38DOPE  H14R 4841   4.540   5.685  10.527 -0.5361  0.2640  2.3608
   38DOPE  H14S 4842   4.578   5.862  10.533  0.5707  0.4982  1.5477
   38DOPE  C215 4843   4.716   5.741  10.648  0.6020  0.0825  0.1669
   38DOPE  H15R 4844   4.797   5.817  10.643  0.6673  0.0338  0.4906
   38DOPE  H15S 4845   4.766   5.642  10.652 -1.6359 -1.1808 -0.8272
   38DOPE  C216 4846   4.643   5.769  10.781 -0.3645  0.1605  0.2144
   38DOPE  H16R 4847   4.534   5.746  10.776 -0.0074 -1.4644 -0.9356
   38DOPE  H16S 4848   4.650   5.879  10.794 -2.4036  0.0854  2.8288
   38DOPE  C217 4849   4.720   5.688  10.902  0.7221 -0.9451 -0.3296
   38DOPE  H17R 4850   4.831   5.703  10.899  0.4338  1.4108 -1.7731
   38DOPE  H17S 4851   4.705   5.580  10.881  0.1692 -1.2055  1.3320
   38DOPE  C218 4852   4.659   5.724  11.039  0.1506 -0.0478 -1.1302
   38DOPE  H18R 4853   4.688   5.830  11.054 -0.0977 -0.0038 -0.9581
   38DOPE  H18S 4854   4.711   5.662  11.115  0.3134 -0.4123 -1.5303
   38DOPE  H18T 4855   4.548   5.717  11.047  0.1406  0.4463 -0.8121
   38DOPE   C33 4856   4.534   5.999   8.945 -0.4840 -0.1082 -0.4473
   38DOPE   H3X 4857   4.604   5.921   8.982 -0.6384  0.8607  2.0648
   38DOPE   H3Y 4858   4.437   5.963   8.904  1.4285 -0.7741 -4.9621
   38DOPE   C34 4859   4.505   6.110   9.051  0.1004  0.8888 -0.6068
   38DOPE   H4X 4860   4.450   6.190   8.997  0.0487 -0.6631 -2.9916
   38DOPE   H4Y 4861   4.434   6.059   9.120 -0.1729 -0.3290 -1.7653
   38DOPE   C35 4862   4.624   6.141   9.142  0.0811 -0.2355  0.2422
   38DOPE   H5X 4863   4.688   6.215   9.090 -0.8768  0.1797 -0.3776
   38DOPE   H5Y 4864   4.689   6.053   9.160  0.4895  0.3407  1.7350
   38DOPE   C36 4865   4.598   6.202   9.275 -0.4216 -0.3906 -0.2286
   38DOPE   H6X 4866   4.525   6.285   9.267  0.3286  0.3942  0.8698
   38DOPE   H6Y 4867   4.690   6.259   9.300 -0.4334  0.7124 -2.4872
   38DOPE   C37 4868   4.572   6.094   9.382 -0.4292 -0.3274  0.2978
   38DOPE   H7X 4869   4.502   6.015   9.348 -0.0797 -0.9919  1.1059
   38DOPE   H7Y 4870   4.669   6.041   9.392 -0.7871 -0.7099  2.1685
   38DOPE   C38 4871   4.546   6.140   9.526  0.2262  0.4228  0.2376
   38DOPE   H8X 4872   4.479   6.228   9.520 -0.2528 -0.0027 -1.0535
   38DOPE   H8Y 4873   4.640   6.187   9.561  1.1674 -1.4779  0.4298
   38DOPE   C39 4874   4.501   6.035   9.628  0.0186  0.1516 -0.1279
   38DOPE   H9X 4875   4.516   5.934   9.587  0.6667  0.3668 -0.4370
   38DOPE  C310 4876   4.432   6.053   9.739  0.5763  0.3784  0.6271
   38DOPE  H10X 4877   4.397   5.968   9.797  1.2037  0.8468  1.7246
   38DOPE  C311 4878   4.394   6.192   9.789 -0.5137  0.2132  0.4951
   38DOPE  H11X 4879   4.449   6.268   9.730 -0.3576  0.8907  1.4998
   38DOPE  H11Y 4880   4.287   6.213   9.767  0.3080  2.8213 -1.4895
   38DOPE  C312 4881   4.426   6.228   9.930 -0.4414 -0.0911  0.7313
   38DOPE  H12X 4882   4.423   6.338   9.944 -1.4538  0.0107 -0.1230
   38DOPE  H12Y 4883   4.532   6.195   9.935  0.1235  0.8561 -2.4235
   38DOPE  C313 4884   4.342   6.165  10.041  0.1437 -0.2727  0.6482
   38DOPE  H13X 4885   4.245   6.215  10.057  0.8798  1.2319  0.6160
   38DOPE  H13Y 4886   4.314   6.061  10.014  0.8777 -1.0331  2.6203
   38DOPE  C314 4887   4.417   6.172  10.172  0.0965  0.2417  0.0694
   38DOPE  H14X 4888   4.519   6.214  10.154  1.4759 -2.7417  0.3909
   38DOPE  H14Y 4889   4.430   6.065  10.198 -2.1061 -0.4218 -1.3301
   38DOPE  C315 4890   4.344   6.256  10.269 -0.6663  0.0432  0.0453
   38DOPE  H15X 4891   4.244   6.213  10.292 -0.7169  0.4778  0.6609
   38DOPE  H15Y 4892   4.331   6.354  10.220 -0.4707  0.4707  0.8378
   38DOPE  C316 4893   4.415   6.278  10.397  0.0202 -0.6326 -0.1507
   38DOPE  H16X 4894   4.521   6.302  10.375  0.1428 -0.0988  0.9463
   38DOPE  H16Y 4895   4.400   6.190  10.463 -0.0111 -1.2933 -1.0243
   38DOPE  C317 4896   4.361   6.404  10.467  0.7137 -0.4480  0.3687
   38DOPE  H17X 4897   4.382   6.488  10.398 -1.2037  0.0121  0.2670
   38DOPE  H17Y 4898   4.255   6.385  10.497  1.1165  2.4949  4.5419
   38DOPE  C318 4899   4.427   6.422  10.607  0.3473  0.0553  0.9355
   38DOPE  H18X 4900   4.365   6.485  10.674 -0.2411  1.5556 -0.9069
   38DOPE  H18Y 4901   4.424   6.320  10.650  4.7236 -1.0404 -0.8283
   38DOPE  H18Z 4902   4.531   6.458  10.593  0.5438 -1.4599 -2.4705
   39DOPE     N 4903   1.550   5.931   8.889  0.5100  0.7116  0.6399
   39DOPE   HN1 4904   1.549   5.947   8.786 -0.1898 -0.6856  0.4050
   39DOPE   HN2 4905   1.644   5.949   8.929  1.0507  0.5352 -0.5042
   39DOPE   HN3 4906   1.508   5.838   8.909 -0.4337  0.4751 -1.9862
   39DOPE   C12 4907   1.447   6.024   8.949 -0.3651 -0.0655 -0.5524
   39DOPE  H12A 4908   1.494   6.072   9.037 -1.5235  1.1320 -0.5704
   39DOPE  H12B 4909   1.358   5.964   8.977  1.0699 -2.7190 -1.3131
   39DOPE   C11 4910   1.405   6.128   8.843 -0.2141  0.3813 -0.8913
   39DOPE  H11A 4911   1.333   6.205   8.878 -0.7246 -0.4791 -0.0027
   39DOPE  H11B 4912   1.344   6.078   8.764 -2.5092  0.4352  0.7329
   39DOPE     P 4913   1.589   6.316   8.827  0.2067 -0.5626 -0.0702
   39DOPE   O13 4914   1.492   6.427   8.803 -0.2552 -0.2227  0.6543
   39DOPE   O14 4915   1.723   6.327   8.760 -0.0311  0.3143 -0.4059
   39DOPE   O11 4916   1.619   6.306   8.987 -0.5842  0.0807 -0.6248
   39DOPE   O12 4917   1.520   6.183   8.776 -0.1674 -0.6340  0.1298
   39DOPE    C1 4918   1.750   6.280   9.037 -0.1449  0.1692 -0.7108
   39DOPE    HA 4919   1.807   6.375   9.038  0.4994 -0.2171  0.0753
   39DOPE    HB 4920   1.792   6.195   8.978 -2.3478 -0.8599 -0.9331
   39DOPE    C2 4921   1.739   6.226   9.173  0.2553  0.3419  0.1551
   39DOPE    HS 4922   1.686   6.129   9.166  0.3976  0.1013  1.9415
   39DOPE   O21 4923   1.667   6.324   9.260  0.0374 -0.3438  0.4116
   39DOPE   C21 4924   1.581   6.280   9.342  0.9303 -0.9907 -0.4326
   39DOPE   O22 4925   1.539   6.166   9.359 -0.0990 -0.1067 -0.1593
   39DOPE   C22 4926   1.539   6.398   9.429 -0.4096 -0.1934  0.4500
   39DOPE   H2R 4927   1.476   6.462   9.364  0.0462 -1.6465 -1.5302
   39DOPE   H2S 4928   1.626   6.464   9.444 -1.2878  1.0755  0.0936
   39DOPE    C3 4929   1.881   6.207   9.239 -0.6327 -0.1526  0.0200
   39DOPE    HX 4930   1.934   6.304   9.242  0.2924 -0.6629  0.6653
   39DOPE    HY 4931   1.937   6.145   9.166 -2.8221 -0.1831 -1.7525
   39DOPE   O31 4932   1.873   6.147   9.373  0.1818 -0.4643  0.3120
   39DOPE   C31 4933   1.886   6.021   9.380 -0.8077  0.5043  0.5388
   39DOPE   O32 4934   1.921   5.945   9.290 -0.3885  0.8063 -0.2923
   39DOPE   C32 4935   1.881   5.971   9.524  0.3594  0.6222  0.2738
   39DOPE   H2X 4936   1.934   6.037   9.596  1.6942 -0.9892  0.8326
   39DOPE   H2Y 4937   1.772   5.977   9.546  0.4385  0.1757  0.8066
   39DOPE   C23 4938   1.469   6.357   9.563 -0.6182  0.0610  0.4695
   39DOPE   H3R 4939   1.410   6.266   9.539  0.1975 -0.4160  0.2769
   39DOPE   H3S 4940   1.386   6.426   9.591 -0.7739 -0.0127  0.1922
   39DOPE   C24 4941   1.561   6.338   9.685 -0.6490 -0.0870  0.0152
   39DOPE   H4R 4942   1.587   6.439   9.725  0.3621  1.2914 -3.6976
   39DOPE   H4S 4943   1.660   6.297   9.657 -0.7617  0.8227 -1.8419
   39DOPE   C25 4944   1.505   6.249   9.796  0.5485  0.4910 -0.9251
   39DOPE   H5R 4945   1.462   6.168   9.733 -1.1865  2.9510 -3.1446
   39DOPE   H5S 4946   1.423   6.301   9.851  0.9111 -0.0377  0.1360
   39DOPE   C26 4947   1.607   6.220   9.900 -0.6721  0.0249  0.2993
   39DOPE   H6R 4948   1.672   6.309   9.915 -0.3636 -0.2609  0.6767
   39DOPE   H6S 4949   1.674   6.141   9.860  0.8865 -0.1668  3.0826
   39DOPE   C27 4950   1.553   6.181  10.039 -0.5290 -0.1595  0.7123
   39DOPE   H7R 4951   1.468   6.113  10.019 -1.1851  0.8138  0.1018
   39DOPE   H7S 4952   1.524   6.279  10.083 -1.9219 -0.5539  0.7157
   39DOPE   C28 4953   1.654   6.126  10.145  0.7208 -0.5071  0.0874
   39DOPE   H8R 4954   1.742   6.189  10.171  1.0058 -1.7001  2.2193
   39DOPE   H8S 4955   1.708   6.042  10.096  1.5325 -1.1272  1.9574
   39DOPE   C29 4956   1.579   6.093  10.273 -0.1472  1.0212 -0.3601
   39DOPE   H9R 4957   1.499   6.019  10.264  1.5526 -0.8375 -0.8598
   39DOPE  C210 4958   1.591   6.159  10.396  0.3185 -0.5790  0.6579
   39DOPE  H10R 4959   1.522   6.129  10.476  1.1977 -0.5383  1.4472
   39DOPE  C211 4960   1.686   6.285  10.419  0.4864  0.2576 -0.6379
   39DOPE  H11R 4961   1.623   6.376  10.430  0.0072 -0.3202  2.4405
   39DOPE  H11S 4962   1.754   6.312  10.336  0.9772  2.8266  0.5098
   39DOPE  C212 4963   1.774   6.268  10.543 -0.2485  0.5128 -0.3747
   39DOPE  H12R 4964   1.823   6.367  10.551 -1.9947  1.3271  0.9955
   39DOPE  H12S 4965   1.847   6.184  10.538 -0.1813  0.4428  1.1179
   39DOPE  C213 4966   1.704   6.263  10.678 -0.3387  0.9493  0.4561
   39DOPE  H13R 4967   1.608   6.214  10.652  0.1931 -0.3786  0.9441
   39DOPE  H13S 4968   1.694   6.370  10.708  0.0985  0.3232  3.0547
   39DOPE  C214 4969   1.783   6.202  10.795 -0.1551  0.9928  0.4581
   39DOPE  H14R 4970   1.861   6.278  10.816 -1.3688  2.9119 -1.4624
   39DOPE  H14S 4971   1.843   6.113  10.765 -0.3882  0.6309  1.0537
   39DOPE  C215 4972   1.709   6.169  10.928  0.1188  0.5212  0.0431
   39DOPE  H15R 4973   1.610   6.121  10.911  0.4167 -0.5183  1.1493
   39DOPE  H15S 4974   1.683   6.269  10.969 -1.3791  0.3530 -0.4182
   39DOPE  C216 4975   1.790   6.095  11.029 -0.3766  0.2446  0.8137
   39DOPE  H16R 4976   1.855   6.021  10.976 -0.2373  1.4981 -0.8322
   39DOPE  H16S 4977   1.713   6.043  11.091 -0.2355  1.4988  2.0935
   39DOPE  C217 4978   1.891   6.178  11.107 -0.8427  0.1255 -0.3555
   39DOPE  H17R 4979   1.840   6.268  11.148 -2.0387 -1.3659  1.6045
   39DOPE  H17S 4980   1.979   6.215  11.050  2.0702 -2.6846  1.9622
   39DOPE  C218 4981   1.959   6.109  11.225  0.0466  0.9948 -0.4944
   39DOPE  H18R 4982   1.876   6.070  11.288 -0.5577  1.8611 -0.7282
   39DOPE  H18S 4983   2.010   6.187  11.286 -1.0903  0.0273  1.8290
   39DOPE  H18T 4984   2.031   6.029  11.198 -0.0412  0.1825  1.5020
   39DOPE   C33 4985   1.933   5.827   9.551 -0.2617  0.1635 -0.0920
   39DOPE   H3X 4986   2.029   5.800   9.501  0.5865 -0.3019  1.6969
   39DOPE   H3Y 4987   1.865   5.753   9.504  0.6812  0.0185 -1.3042
   39DOPE   C34 4988   1.950   5.786   9.696  0.6553 -0.5115  0.1858
   39DOPE   H4X 4989   1.859   5.821   9.750  0.3421 -1.7448  0.4814
   39DOPE   H4Y 4990   1.962   5.676   9.692 -0.2540 -0.6255  0.3115
   39DOPE   C35 4991   2.067   5.858   9.763  0.5383 -0.6476  0.0875
   39DOPE   H5X 4992   2.050   5.968   9.765  0.4432 -0.6438 -0.7691
   39DOPE   H5Y 4993   2.161   5.840   9.706  1.5697 -2.3789  2.1760
   39DOPE   C36 4994   2.085   5.797   9.906  0.1543  0.5373 -0.9559
   39DOPE   H6X 4995   2.186   5.817   9.948 -0.3428  0.7237  0.1853
   39DOPE   H6Y 4996   2.072   5.687   9.894 -1.3133  0.5169  0.4755
   39DOPE   C37 4997   1.984   5.867  10.002 -0.1581  0.4485 -0.5195
   39DOPE   H7X 4998   2.011   5.974  10.014 -0.9317  0.8581 -2.1254
   39DOPE   H7Y 4999   1.878   5.875   9.971 -0.1267 -1.4569 -1.2663
   39DOPE   C38 5000   1.980   5.789  10.135  0.1469 -0.1567  0.1809
   39DOPE   H8X 5001   2.091   5.789  10.144  0.2701  1.8772 -0.7528
   39DOPE   H8Y 5002   1.949   5.684  10.117 -2.0395  0.6029 -0.8590
   39DOPE   C39 5003   1.895   5.859  10.242 -0.8960  0.2087 -0.3052
   39DOPE   H9X 5004   1.785   5.869  10.237 -0.6859  3.6693 -0.3001
   39DOPE  C310 5005   1.956   5.921  10.343 -0.3958  0.2137 -0.0667
   39DOPE  H10X 5006   1.888   5.973  10.412  1.8255  0.6671  1.9095
   39DOPE  C311 5007   2.099   5.926  10.383 -0.0658 -0.2921 -0.0817
   39DOPE  H11X 5008   2.167   5.952  10.299  0.1189 -0.5684 -0.0190
   39DOPE  H11Y 5009   2.102   6.009  10.457  0.0124 -1.8817  1.7695
   39DOPE  C312 5010   2.148   5.800  10.456  0.2088 -0.1501  0.1287
   39DOPE  H12X 5011   2.258   5.814  10.462  0.0496  0.8940  0.7921
   39DOPE  H12Y 5012   2.124   5.710  10.395 -3.2939 -0.6722  2.0467
   39DOPE  C313 5013   2.099   5.785  10.602  0.5548 -0.0248  0.4188
   39DOPE  H13X 5014   1.988   5.780  10.608  0.6339 -2.1239  1.3458
   39DOPE  H13Y 5015   2.131   5.682  10.630 -2.8997 -1.0510  1.1860
   39DOPE  C314 5016   2.150   5.897  10.687  0.3000 -0.0620  0.5626
   39DOPE  H14X 5017   2.081   5.984  10.693  1.0321  0.4723  1.5149
   39DOPE  H14Y 5018   2.248   5.933  10.651 -0.2699 -0.5039 -1.5624
   39DOPE  C315 5019   2.173   5.853  10.831  0.4213  0.4187 -0.4890
   39DOPE  H15X 5020   2.075   5.819  10.871  0.7960  0.1941  0.2594
   39DOPE  H15Y 5021   2.208   5.941  10.889  2.4448  0.9357 -2.3792
   39DOPE  C316 5022   2.281   5.739  10.853  1.0203  0.3679 -0.3460
   39DOPE  H16X 5023   2.252   5.650  10.793  1.3006  1.2230 -1.7796
   39DOPE  H16Y 5024   2.276   5.705  10.959  1.6196  0.1929 -0.3678
   39DOPE  C317 5025   2.422   5.778  10.807  0.3564 -0.3186  0.1241
   39DOPE  H17X 5026   2.401   5.825  10.708  1.6974  0.7469  0.3124
   39DOPE  H17Y 5027   2.461   5.852  10.880 -0.1704 -0.4226  0.5148
   39DOPE  C318 5028   2.520   5.656  10.787 -0.2191  0.3726 -0.0469
   39DOPE  H18X 5029   2.468   5.569  10.741  1.3546  0.1994 -1.6129
   39DOPE  H18Y 5030   2.602   5.685  10.719  0.1996 -0.1502  0.2202
   39DOPE  H18Z 5031   2.563   5.616  10.882  2.5015 -1.3189 -1.8539
   40DOPE     N 5032   3.759   5.918   8.314 -0.0582  0.4971  0.6327
   40DOPE   HN1 5033   3.843   5.866   8.281  0.0735  1.1206 -0.0436
   40DOPE   HN2 5034   3.790   5.971   8.398 -0.1939  1.6688 -0.0356
   40DOPE   HN3 5035   3.685   5.854   8.350 -1.8403 -0.2262 -3.6848
   40DOPE   C12 5036   3.708   6.007   8.206  0.8069  0.2120 -0.2215
   40DOPE  H12A 5037   3.696   5.937   8.121  2.0836 -0.7234  0.3460
   40DOPE  H12B 5038   3.779   6.087   8.178 -2.0072  2.3623 -1.6725
   40DOPE   C11 5039   3.564   6.060   8.231 -0.1233  0.6083 -1.2073
   40DOPE  H11A 5040   3.530   6.131   8.153 -1.2107  1.6377  0.1377
   40DOPE  H11B 5041   3.569   6.127   8.320  2.1597  0.2677 -1.0288
   40DOPE     P 5042   3.437   5.867   8.369 -0.3903 -0.0372  0.4079
   40DOPE   O13 5043   3.558   5.782   8.392 -0.4121 -0.5321 -0.2247
   40DOPE   O14 5044   3.309   5.796   8.353  0.4797 -0.7289 -0.1916
   40DOPE   O11 5045   3.425   5.975   8.486  0.4818  0.1593  0.4224
   40DOPE   O12 5046   3.466   5.957   8.239  0.0555  0.2095 -0.0674
   40DOPE    C1 5047   3.340   6.097   8.473 -0.1125  0.4756 -0.2823
   40DOPE    HA 5048   3.244   6.060   8.430  0.2574 -0.4969 -0.3133
   40DOPE    HB 5049   3.382   6.175   8.407  1.6141 -0.7588 -0.7204
   40DOPE    C2 5050   3.305   6.164   8.612 -0.4094 -0.4133 -0.1750
   40DOPE    HS 5051   3.403   6.202   8.648 -0.2857  0.2456 -1.1919
   40DOPE   O21 5052   3.245   6.065   8.696 -0.1047 -0.4021  0.2820
   40DOPE   C21 5053   3.287   6.076   8.819  0.5944 -0.6121 -0.7215
   40DOPE   O22 5054   3.362   6.163   8.862  0.0663 -0.0579  0.0860
   40DOPE   C22 5055   3.227   5.967   8.908  0.0926  0.0247 -0.1585
   40DOPE   H2R 5056   3.268   5.864   8.890  2.0384  0.6437  0.4560
   40DOPE   H2S 5057   3.118   5.967   8.887 -0.7171 -4.5805  2.4709
   40DOPE    C3 5058   3.212   6.288   8.593 -0.4902  0.5554 -0.3294
   40DOPE    HX 5059   3.114   6.257   8.551 -1.6712  0.9910  1.9703
   40DOPE    HY 5060   3.263   6.353   8.518  0.5134  1.1493  0.8343
   40DOPE   O31 5061   3.189   6.348   8.717  0.1317  0.0026 -0.1810
   40DOPE   C31 5062   3.276   6.451   8.740  0.4458  0.2570 -1.2386
   40DOPE   O32 5063   3.386   6.471   8.689  0.1358 -0.8383  0.2162
   40DOPE   C32 5064   3.212   6.539   8.850  0.6601 -1.3738 -1.1608
   40DOPE   H2X 5065   3.133   6.587   8.788 -1.1994 -1.5840  0.9574
   40DOPE   H2Y 5066   3.164   6.473   8.924 -0.4179  0.8322  0.2115
   40DOPE   C23 5067   3.249   6.016   9.059 -0.1856  0.1207  0.4719
   40DOPE   H3R 5068   3.192   6.111   9.057 -1.4799 -0.6343  0.2589
   40DOPE   H3S 5069   3.353   6.038   9.092 -0.5677 -0.6171  2.3123
   40DOPE   C24 5070   3.194   5.915   9.158  0.0106 -0.0304  0.7656
   40DOPE   H4R 5071   3.246   5.818   9.145  0.1287  0.1775 -0.4988
   40DOPE   H4S 5072   3.090   5.886   9.136 -0.4111  2.2038 -0.5577
   40DOPE   C25 5073   3.205   5.965   9.295 -0.6057 -0.0658  0.0706
   40DOPE   H5R 5074   3.152   6.063   9.297  0.4726  0.5194  0.9169
   40DOPE   H5S 5075   3.307   5.997   9.323 -1.2560  0.7040  1.7035
   40DOPE   C26 5076   3.165   5.868   9.400  0.1315  0.8682  0.3763
   40DOPE   H6R 5077   3.228   5.777   9.390 -0.6698  0.5248 -2.2371
   40DOPE   H6S 5078   3.059   5.845   9.379 -0.1854  3.0635 -0.7228
   40DOPE   C27 5079   3.171   5.935   9.534 -0.3840 -0.2353 -0.7883
   40DOPE   H7R 5080   3.091   6.012   9.527 -1.8370 -1.6463 -0.2490
   40DOPE   H7S 5081   3.270   5.985   9.546 -1.2669  1.6021 -0.6987
   40DOPE   C28 5082   3.147   5.849   9.656  0.3565 -0.2987  0.3268
   40DOPE   H8R 5083   3.231   5.777   9.655  0.3408 -0.5327  3.7482
   40DOPE   H8S 5084   3.054   5.788   9.644 -0.4792  1.1679 -1.0606
   40DOPE   C29 5085   3.159   5.929   9.781  1.0744  1.1622 -0.3163
   40DOPE   H9R 5086   3.253   5.984   9.798  1.9328 -0.5046  0.6335
   40DOPE  C210 5087   3.064   5.931   9.880 -0.1300  0.4753 -0.2477
   40DOPE  H10R 5088   3.102   5.984   9.969  1.4144 -2.0402  0.7209
   40DOPE  C211 5089   2.931   5.855   9.883 -0.3296 -0.3409 -0.2256
   40DOPE  H11R 5090   2.911   5.800   9.788 -0.9478 -1.0435  0.3030
   40DOPE  H11S 5091   2.845   5.924   9.896  0.4197  0.6766 -0.5753
   40DOPE  C212 5092   2.934   5.749   9.992 -0.4472  0.2154 -0.3700
   40DOPE  H12R 5093   3.020   5.680   9.979  0.6902  1.6980 -1.1544
   40DOPE  H12S 5094   2.840   5.694   9.976 -0.0198 -1.6153  2.6590
   40DOPE  C213 5095   2.938   5.808  10.134 -0.0846  0.0608  0.1379
   40DOPE  H13R 5096   2.859   5.886  10.138  0.6402  0.9274 -1.7088
   40DOPE  H13S 5097   3.036   5.858  10.142  0.7126 -1.1187 -1.7589
   40DOPE  C214 5098   2.933   5.696  10.249  0.4377  0.0684 -0.2506
   40DOPE  H14R 5099   3.007   5.618  10.220 -0.2033 -0.5482 -0.2426
   40DOPE  H14S 5100   2.831   5.656  10.269  1.1079 -0.3115  2.8515
   40DOPE  C215 5101   2.977   5.744  10.385 -0.2160 -0.0409 -0.8411
   40DOPE  H15R 5102   2.958   5.853  10.389  0.5667  0.1803 -2.3506
   40DOPE  H15S 5103   3.087   5.740  10.401 -0.2809  1.3097  0.1209
   40DOPE  C216 5104   2.919   5.666  10.511 -0.4647 -0.4319 -0.0912
   40DOPE  H16R 5105   2.957   5.561  10.507 -0.9151 -0.5861 -0.3708
   40DOPE  H16S 5106   2.809   5.656  10.504 -0.2676 -1.8932 -2.0859
   40DOPE  C217 5107   2.963   5.711  10.647 -0.0537  0.2817 -0.6279
   40DOPE  H17R 5108   2.924   5.636  10.720  0.6638 -0.6683 -1.1906
   40DOPE  H17S 5109   2.917   5.809  10.670 -0.3348  0.8241 -3.2311
   40DOPE  C218 5110   3.114   5.707  10.666  0.1372  0.7185  0.2341
   40DOPE  H18R 5111   3.158   5.797  10.617 -0.3797  1.1318  0.5188
   40DOPE  H18S 5112   3.149   5.605  10.641 -1.1215  0.3549 -0.0949
   40DOPE  H18T 5113   3.143   5.724  10.772 -1.3928  0.7634  0.6746
   40DOPE   C33 5114   3.311   6.645   8.906 -0.0439  0.1367  0.1289
   40DOPE   H3X 5115   3.330   6.714   8.820  1.1188  1.0465  1.0812
   40DOPE   H3Y 5116   3.404   6.601   8.947 -1.6827 -2.0460  1.7525
   40DOPE   C34 5117   3.250   6.718   9.029 -0.4165 -0.1879  0.2539
   40DOPE   H4X 5118   3.297   6.817   9.019 -0.4504 -0.3230 -1.4578
   40DOPE   H4Y 5119   3.141   6.728   9.008 -0.4623 -0.3290  0.4212
   40DOPE   C35 5120   3.282   6.644   9.158  0.3765 -0.5979  0.0258
   40DOPE   H5X 5121   3.387   6.619   9.184 -0.0683 -0.8381  1.6957
   40DOPE   H5Y 5122   3.233   6.545   9.147 -0.6890 -0.0830  0.0284
   40DOPE   C36 5123   3.222   6.735   9.273  0.6274  0.1353  0.1077
   40DOPE   H6X 5124   3.175   6.666   9.348  1.1528 -0.2938  0.0486
   40DOPE   H6Y 5125   3.138   6.795   9.234  1.5103 -0.4498 -2.9214
   40DOPE   C37 5126   3.323   6.833   9.326  0.0671 -0.0982  0.8128
   40DOPE   H7X 5127   3.415   6.773   9.338 -0.7225 -1.3081  1.0147
   40DOPE   H7Y 5128   3.344   6.899   9.239  1.5973 -2.8271 -1.0378
   40DOPE   C38 5129   3.272   6.913   9.443  0.1650  0.0982  0.1614
   40DOPE   H8X 5130   3.175   6.956   9.411  0.0031 -2.0133 -2.6090
   40DOPE   H8Y 5131   3.339   6.999   9.464 -0.2045  0.7137 -1.0811
   40DOPE   C39 5132   3.249   6.826   9.560  0.3895 -0.7499 -0.0634
   40DOPE   H9X 5133   3.186   6.737   9.542 -0.4659 -0.5841  1.8815
   40DOPE  C310 5134   3.299   6.846   9.683  0.2193 -0.5203  0.1239
   40DOPE  H10X 5135   3.285   6.772   9.763  0.0613 -2.5260 -1.6596
   40DOPE  C311 5136   3.381   6.963   9.736 -0.0424  0.3227  0.3624
   40DOPE  H11X 5137   3.488   6.947   9.711 -0.0294  1.6267 -0.5110
   40DOPE  H11Y 5138   3.366   7.053   9.673  0.0505 -0.0051 -0.1349
   40DOPE  C312 5139   3.372   6.986   9.888  0.0190 -0.3205  0.0951
   40DOPE  H12X 5140   3.270   7.004   9.929 -0.0453 -1.5944  0.5604
   40DOPE  H12Y 5141   3.440   7.069   9.918  1.0223 -1.5329  1.3412
   40DOPE  C313 5142   3.425   6.864   9.979 -0.0803 -0.6914 -0.0797
   40DOPE  H13X 5143   3.358   6.776   9.976 -1.7722  0.5092  0.7565
   40DOPE  H13Y 5144   3.525   6.832   9.943 -0.8294  0.1765 -3.3587
   40DOPE  C314 5145   3.434   6.907  10.125 -1.1418  0.0756  0.4804
   40DOPE  H14X 5146   3.333   6.937  10.160 -1.6390 -0.0900 -0.7685
   40DOPE  H14Y 5147   3.505   6.992  10.130 -1.3447  0.4788 -1.9703
   40DOPE  C315 5148   3.487   6.793  10.210  0.2479 -0.0887 -0.2916
   40DOPE  H15X 5149   3.571   6.738  10.164 -0.5211 -2.6327  1.1894
   40DOPE  H15Y 5150   3.403   6.722  10.221 -0.2132  0.6739  1.4422
   40DOPE  C316 5151   3.512   6.846  10.350  0.4802 -0.1844 -0.2410
   40DOPE  H16X 5152   3.584   6.929  10.360  1.7651 -1.3805  1.0134
   40DOPE  H16Y 5153   3.561   6.764  10.408 -1.8100 -1.3724  0.1182
   40DOPE  C317 5154   3.380   6.889  10.421  0.4177  0.0184  0.2621
   40DOPE  H17X 5155   3.344   6.984  10.375  0.6156  0.0702  0.2140
   40DOPE  H17Y 5156   3.308   6.811  10.388  1.3570 -0.7007 -0.1402
   40DOPE  C318 5157   3.385   6.885  10.574  0.2664  0.3444  0.0116
   40DOPE  H18X 5158   3.291   6.923  10.619 -0.5547 -0.9640 -0.5418
   40DOPE  H18Y 5159   3.388   6.779  10.609  1.2289  0.7283  1.1711
   40DOPE  H18Z 5160   3.475   6.942  10.607 -0.4192  0.6528  1.4224
   41DOPE     N 5161   2.007   5.952   8.522  0.2624  0.8234  0.0732
   41DOPE   HN1 5162   1.959   5.932   8.432 -0.6982  2.6768  0.1296
   41DOPE   HN2 5163   1.943   5.994   8.592 -0.3276  1.0480 -0.5956
   41DOPE   HN3 5164   2.078   6.026   8.508  0.6009  0.4651 -0.1535
   41DOPE   C12 5165   2.067   5.833   8.603 -0.1179  0.3162  0.2388
   41DOPE  H12A 5166   2.121   5.762   8.536 -0.8725  1.4787 -1.6730
   41DOPE  H12B 5167   1.976   5.786   8.647 -0.8203 -0.5831 -2.0321
   41DOPE   C11 5168   2.156   5.889   8.705 -0.0520 -0.3032 -0.4165
   41DOPE  H11A 5169   2.238   5.936   8.647  0.5379 -0.1975  0.4757
   41DOPE  H11B 5170   2.199   5.812   8.772  0.0173  0.5222  0.5254
   41DOPE     P 5171   2.061   5.993   8.939 -0.1903 -0.0729 -0.0543
   41DOPE   O13 5172   2.142   5.886   8.995 -0.1007  0.6978 -0.3886
   41DOPE   O14 5173   1.917   5.967   8.942  0.3471 -0.0232  0.0915
   41DOPE   O11 5174   2.090   6.144   8.981 -0.4001 -0.1953  0.5528
   41DOPE   O12 5175   2.096   5.991   8.785  0.2189  0.2021 -0.2263
   41DOPE    C1 5176   2.224   6.198   8.969 -0.7334  0.1514 -0.2226
   41DOPE    HA 5177   2.238   6.266   8.883  0.9486 -0.1288 -0.2188
   41DOPE    HB 5178   2.311   6.129   8.955 -1.1608 -0.6908  1.0363
   41DOPE    C2 5179   2.261   6.276   9.097 -0.1180  0.1012  0.1313
   41DOPE    HS 5180   2.368   6.296   9.117  0.2335 -1.8564  0.3535
   41DOPE   O21 5181   2.209   6.207   9.212 -0.0057 -0.0058 -0.2723
   41DOPE   C21 5182   2.286   6.110   9.253 -0.2597  0.5758  0.7413
   41DOPE   O22 5183   2.390   6.071   9.202 -0.1588 -0.5690  0.1324
   41DOPE   C22 5184   2.223   6.052   9.384  0.0074 -0.3162  0.4642
   41DOPE   H2R 5185   2.166   5.960   9.362 -1.8251  0.8628  0.0482
   41DOPE   H2S 5186   2.144   6.127   9.404  0.2498  0.8518 -2.4256
   41DOPE    C3 5187   2.195   6.420   9.104  0.0636  0.2911  0.3546
   41DOPE    HX 5188   2.084   6.411   9.095  0.1587  0.4741 -1.3954
   41DOPE    HY 5189   2.221   6.463   9.005 -0.9240 -0.9789 -0.4903
   41DOPE   O31 5190   2.235   6.491   9.221 -0.0216 -0.0463  0.1244
   41DOPE   C31 5191   2.329   6.582   9.206  0.0547 -0.8612 -0.8618
   41DOPE   O32 5192   2.389   6.600   9.099  0.2981 -0.1021 -0.1263
   41DOPE   C32 5193   2.346   6.659   9.338 -0.9055  0.6010 -1.0592
   41DOPE   H2X 5194   2.387   6.761   9.321  0.6560  0.3487  0.9015
   41DOPE   H2Y 5195   2.249   6.667   9.392  1.1958 -0.2391  3.1986
   41DOPE   C23 5196   2.318   6.022   9.503 -0.2542  0.6246  1.3417
   41DOPE   H3R 5197   2.418   6.008   9.456  0.8320 -0.4851  3.7798
   41DOPE   H3S 5198   2.296   5.927   9.556  0.2581 -0.2485  0.0396
   41DOPE   C24 5199   2.321   6.142   9.601  0.5015  0.0355 -0.0987
   41DOPE   H4R 5200   2.225   6.159   9.654  0.3719  0.2123 -0.3902
   41DOPE   H4S 5201   2.340   6.240   9.552  0.0425  0.6377  0.9126
   41DOPE   C25 5202   2.439   6.141   9.691 -0.1754 -0.2801  0.3231
   41DOPE   H5R 5203   2.461   6.243   9.730  1.8353  0.1098 -1.6473
   41DOPE   H5S 5204   2.528   6.111   9.632  0.7883  1.3254  0.8784
   41DOPE   C26 5205   2.426   6.037   9.798  0.0655 -0.0725  0.5910
   41DOPE   H6R 5206   2.387   5.943   9.753 -0.1871 -0.2678  1.2031
   41DOPE   H6S 5207   2.351   6.076   9.870 -1.4273  0.7594 -1.3086
   41DOPE   C27 5208   2.564   6.018   9.866  0.9005 -0.2857 -0.2686
   41DOPE   H7R 5209   2.607   6.115   9.897  0.1125 -0.1691  0.5191
   41DOPE   H7S 5210   2.638   5.973   9.796 -0.1442 -0.6125 -1.2042
   41DOPE   C28 5211   2.549   5.932  10.000 -0.8916 -0.2093  0.8237
   41DOPE   H8R 5212   2.650   5.927  10.045 -0.0460 -1.7563 -1.0553
   41DOPE   H8S 5213   2.518   5.833   9.959 -1.6122  0.6327 -0.7712
   41DOPE   C29 5214   2.450   5.980  10.104  0.2389 -1.0242 -0.4240
   41DOPE   H9R 5215   2.346   5.949  10.083  0.2590 -0.4178 -1.5246
   41DOPE  C210 5216   2.471   6.076  10.194  0.4361  0.1782  0.5632
   41DOPE  H10R 5217   2.396   6.088  10.273 -0.0834 -0.5281  0.1787
   41DOPE  C211 5218   2.605   6.144  10.231 -0.3477  0.2889  1.1105
   41DOPE  H11R 5219   2.584   6.252  10.248  1.0229  0.7562  0.0559
   41DOPE  H11S 5220   2.679   6.140  10.148 -0.7897 -1.4899  0.7651
   41DOPE  C212 5221   2.664   6.068  10.352 -0.2121  0.6907  0.7693
   41DOPE  H12R 5222   2.766   6.108  10.369 -0.3882  0.3707  2.9047
   41DOPE  H12S 5223   2.676   5.961  10.325 -0.2984  1.0104 -0.5799
   41DOPE  C213 5224   2.580   6.088  10.480 -0.2920 -0.0894  0.1661
   41DOPE  H13R 5225   2.479   6.046  10.457 -0.3903  1.4383 -2.6307
   41DOPE  H13S 5226   2.562   6.196  10.498 -1.9790 -0.5715  1.7231
   41DOPE  C214 5227   2.638   6.023  10.602 -0.8300  0.4232  0.5092
   41DOPE  H14R 5228   2.621   5.913  10.607  1.5270 -0.0785 -1.1475
   41DOPE  H14S 5229   2.586   6.059  10.694 -1.3819  0.5240  0.1650
   41DOPE  C215 5230   2.787   6.056  10.625 -0.3251 -0.2012  0.0418
   41DOPE  H15R 5231   2.806   6.150  10.569  0.8138 -1.1026 -1.1462
   41DOPE  H15S 5232   2.846   5.981  10.569 -0.7614 -0.0130 -0.6933
   41DOPE  C216 5233   2.831   6.066  10.774 -0.2819 -0.3344 -0.2296
   41DOPE  H16R 5234   2.807   5.971  10.826 -0.0154  0.5397  1.5721
   41DOPE  H16S 5235   2.761   6.139  10.821  2.0694  4.2842 -3.1602
   41DOPE  C217 5236   2.979   6.116  10.787  0.1313  0.1649 -0.3055
   41DOPE  H17R 5237   2.989   6.225  10.768  1.9966 -0.1072 -1.0558
   41DOPE  H17S 5238   3.036   6.063  10.708 -0.7391 -1.4681  0.1282
   41DOPE  C218 5239   3.045   6.101  10.924  0.2109 -0.0889 -0.3190
   41DOPE  H18R 5240   3.055   6.003  10.975  1.1557  1.0339  1.8189
   41DOPE  H18S 5241   2.997   6.164  11.003  1.2494 -1.1904  1.2613
   41DOPE  H18T 5242   3.146   6.147  10.930 -0.8775  2.2962  1.6885
   41DOPE   C33 5243   2.445   6.599   9.437  0.4199 -0.5154  0.3464
   41DOPE   H3X 5244   2.546   6.603   9.390  0.8773 -0.0170  1.3355
   41DOPE   H3Y 5245   2.419   6.492   9.454  3.3847 -1.5088 -0.7627
   41DOPE   C34 5246   2.438   6.665   9.576 -0.2338 -0.1786  0.3971
   41DOPE   H4X 5247   2.468   6.772   9.571  1.0007 -0.5287 -0.3347
   41DOPE   H4Y 5248   2.335   6.677   9.616 -0.9832  1.2650 -1.7583
   41DOPE   C35 5249   2.506   6.578   9.684  0.0657  0.5936  0.0158
   41DOPE   H5X 5250   2.614   6.571   9.662  0.3113  2.4552  0.4208
   41DOPE   H5Y 5251   2.459   6.478   9.669  1.2466  0.0225  0.0356
   41DOPE   C36 5252   2.494   6.630   9.824 -0.1176  0.2909 -0.5163
   41DOPE   H6X 5253   2.389   6.652   9.851 -0.0044  1.0686 -0.7042
   41DOPE   H6Y 5254   2.543   6.729   9.819 -0.0102  0.2022 -1.6760
   41DOPE   C37 5255   2.561   6.542   9.931 -0.2110  0.3122  0.3448
   41DOPE   H7X 5256   2.507   6.445   9.937 -3.3648  1.8591 -0.7114
   41DOPE   H7Y 5257   2.656   6.534   9.875  0.4134  1.6319  1.1558
   41DOPE   C38 5258   2.591   6.596  10.067 -1.2156 -0.6354 -0.2967
   41DOPE   H8X 5259   2.638   6.696  10.058 -1.1365 -0.7942 -1.8676
   41DOPE   H8Y 5260   2.656   6.523  10.120 -0.3995  3.0323  4.4463
   41DOPE   C39 5261   2.464   6.605  10.141 -0.1242  0.1529 -0.4072
   41DOPE   H9X 5262   2.373   6.602  10.079  0.9272 -2.4356 -1.9859
   41DOPE  C310 5263   2.455   6.596  10.269 -0.7786  0.4311 -1.0881
   41DOPE  H10X 5264   2.361   6.615  10.323 -0.4804 -0.2604 -0.3041
   41DOPE  C311 5265   2.582   6.599  10.364  0.4159  0.3559 -0.4570
   41DOPE  H11X 5266   2.672   6.560  10.312 -0.6417  0.5552 -2.5812
   41DOPE  H11Y 5267   2.609   6.706  10.373  3.0667  0.2865 -4.6949
   41DOPE  C312 5268   2.557   6.516  10.488 -0.3304  0.3104 -0.4722
   41DOPE  H12X 5269   2.534   6.411  10.462  0.0286 -0.2890  1.4967
   41DOPE  H12Y 5270   2.478   6.563  10.550 -0.3804 -0.8752  0.4052
   41DOPE  C313 5271   2.686   6.499  10.575 -0.3049  0.2888 -0.0297
   41DOPE  H13X 5272   2.750   6.413  10.549  1.1024  1.0009  0.9223
   41DOPE  H13Y 5273   2.743   6.594  10.565 -0.2864  0.3099  0.2615
   41DOPE  C314 5274   2.645   6.498  10.724  0.5775 -0.8562  0.4572
   41DOPE  H14X 5275   2.571   6.418  10.749 -2.7350  1.9657  0.5066
   41DOPE  H14Y 5276   2.591   6.589  10.755  2.6622 -0.1557  2.2561
   41DOPE  C315 5277   2.763   6.483  10.818  0.3519 -0.5365 -0.7449
   41DOPE  H15X 5278   2.840   6.552  10.779 -0.7007  0.8389 -0.4722
   41DOPE  H15Y 5279   2.797   6.377  10.811 -0.6260 -0.9439  0.3548
   41DOPE  C316 5280   2.724   6.514  10.966  0.5854 -1.1381 -0.4822
   41DOPE  H16X 5281   2.810   6.490  11.032  1.4650 -0.8139 -1.4866
   41DOPE  H16Y 5282   2.629   6.463  10.993  0.9560 -0.3045  2.9159
   41DOPE  C317 5283   2.714   6.664  10.985  0.2626 -0.2335  1.4395
   41DOPE  H17X 5284   2.807   6.715  10.950 -0.8456  0.7341 -0.2508
   41DOPE  H17Y 5285   2.632   6.710  10.925  0.6696 -1.7203 -0.3576
   41DOPE  C318 5286   2.682   6.706  11.132 -0.4294 -0.0614  0.0414
   41DOPE  H18X 5287   2.764   6.686  11.204 -1.1556  1.0891  1.2290
   41DOPE  H18Y 5288   2.642   6.810  11.126 -2.1899 -0.7010  0.0484
   41DOPE  H18Z 5289   2.594   6.652  11.172  0.1731  0.7606  2.6209
   42DOPE     N 5290   1.610   5.215   8.914 -0.8252 -0.5421 -0.0398
   42DOPE   HN1 5291   1.560   5.138   8.864 -0.4711 -0.9136  0.1792
   42DOPE   HN2 5292   1.602   5.297   8.851 -3.1745 -1.4166 -1.0183
   42DOPE   HN3 5293   1.709   5.186   8.921 -1.0066 -1.3711 -0.6791
   42DOPE   C12 5294   1.534   5.248   9.039  0.2026 -0.3625  0.0091
   42DOPE  H12A 5295   1.604   5.310   9.099 -0.2917 -0.4111  0.6452
   42DOPE  H12B 5296   1.519   5.157   9.102  1.7826  0.3373  1.4621
   42DOPE   C11 5297   1.404   5.320   9.005 -0.1246 -0.1333  0.1096
   42DOPE  H11A 5298   1.351   5.338   9.101 -0.0190  0.4590  0.0655
   42DOPE  H11B 5299   1.341   5.252   8.945 -2.3260  0.8321  1.2265
   42DOPE     P 5300   1.490   5.576   9.008 -0.0813 -0.1329  0.0486
   42DOPE   O13 5301   1.427   5.694   8.944  0.5204 -0.1624 -0.0833
   42DOPE   O14 5302   1.638   5.570   8.991 -0.3111 -0.0228  0.2494
   42DOPE   O11 5303   1.452   5.559   9.157 -0.3104 -0.0128 -0.8174
   42DOPE   O12 5304   1.441   5.441   8.937  0.0484 -0.1401  0.0228
   42DOPE    C1 5305   1.342   5.629   9.222  0.3310 -0.2831 -0.0149
   42DOPE    HA 5306   1.247   5.602   9.170  0.7265 -1.1102 -0.3411
   42DOPE    HB 5307   1.348   5.738   9.205 -2.1453 -0.2678 -1.3281
   42DOPE    C2 5308   1.327   5.585   9.368  0.2742  0.5572 -0.3377
   42DOPE    HS 5309   1.222   5.602   9.398 -0.4737 -4.2327  0.5187
   42DOPE   O21 5310   1.418   5.666   9.438  0.5340 -0.2173 -0.0888
   42DOPE   C21 5311   1.377   5.789   9.481  0.1678 -0.0162  0.6021
   42DOPE   O22 5312   1.266   5.832   9.477  0.0996 -0.6335  0.3461
   42DOPE   C22 5313   1.497   5.870   9.531  0.2339 -0.5301 -0.4151
   42DOPE   H2R 5314   1.473   5.977   9.543  0.5009 -0.5751  0.6275
   42DOPE   H2S 5315   1.588   5.862   9.467 -0.0321 -1.9868 -0.6645
   42DOPE    C3 5316   1.354   5.438   9.389  0.0630  0.1081 -0.5489
   42DOPE    HX 5317   1.461   5.410   9.373  0.3154  0.5561  0.2701
   42DOPE    HY 5318   1.299   5.387   9.307 -0.4345  0.2709 -0.3186
   42DOPE   O31 5319   1.326   5.397   9.525  0.0862 -0.6206  0.1821
   42DOPE   C31 5320   1.408   5.423   9.629  0.4659 -0.1136 -0.0753
   42DOPE   O32 5321   1.522   5.468   9.625 -0.2477 -0.5395  0.7853
   42DOPE   C32 5322   1.327   5.399   9.758 -0.7055 -0.0676  0.2986
   42DOPE   H2X 5323   1.267   5.492   9.765  0.0869  0.5436 -0.6607
   42DOPE   H2Y 5324   1.254   5.316   9.753 -0.4107 -0.3304  0.2807
   42DOPE   C23 5325   1.554   5.824   9.669 -0.7119 -0.9559 -0.1632
   42DOPE   H3R 5326   1.636   5.892   9.701 -1.6421  0.5046 -0.8124
   42DOPE   H3S 5327   1.595   5.721   9.654 -0.9702 -1.1920  0.7117
   42DOPE   C24 5328   1.451   5.839   9.782 -0.4628  0.1355  0.0608
   42DOPE   H4R 5329   1.367   5.770   9.761 -0.8274  0.9242 -1.1962
   42DOPE   H4S 5330   1.410   5.942   9.790  1.3056  0.8738  0.0738
   42DOPE   C25 5331   1.524   5.801   9.913 -0.6577  0.4634 -0.2729
   42DOPE   H5R 5332   1.608   5.866   9.944 -0.1550 -0.7571  1.0184
   42DOPE   H5S 5333   1.576   5.704   9.895 -0.3277  0.8605 -1.5900
   42DOPE   C26 5334   1.430   5.781  10.032  0.4456 -0.5095  0.5239
   42DOPE   H6R 5335   1.351   5.705  10.013  0.9106 -1.0648  0.7829
   42DOPE   H6S 5336   1.381   5.877  10.060 -0.1281 -0.6528  0.0269
   42DOPE   C27 5337   1.513   5.722  10.152  0.1225  0.9071 -0.0646
   42DOPE   H7R 5338   1.594   5.795  10.168 -0.8697  1.9320  0.4095
   42DOPE   H7S 5339   1.571   5.634  10.117  0.9794  0.9654  1.1504
   42DOPE   C28 5340   1.437   5.676  10.280 -0.0456 -0.7681 -0.4898
   42DOPE   H8R 5341   1.508   5.619  10.344 -1.1889 -2.1181 -0.3652
   42DOPE   H8S 5342   1.370   5.597  10.240  0.4567 -0.6137 -1.6695
   42DOPE   C29 5343   1.351   5.779  10.345  0.1756 -0.1152 -0.4415
   42DOPE   H9R 5344   1.273   5.818  10.278  0.9147 -0.0910 -1.3075
   42DOPE  C210 5345   1.386   5.847  10.461  0.3792 -0.1714  0.2944
   42DOPE  H10R 5346   1.313   5.927  10.480 -1.4610 -1.6181 -0.3632
   42DOPE  C211 5347   1.510   5.832  10.553  0.2633  0.5106  0.4884
   42DOPE  H11R 5348   1.592   5.900  10.520  1.7230 -2.4810 -2.7878
   42DOPE  H11S 5349   1.551   5.732  10.529  0.4006  0.9596 -1.3316
   42DOPE  C212 5350   1.465   5.843  10.692  0.0741  0.5421  0.3766
   42DOPE  H12R 5351   1.387   5.769  10.719  2.4235 -2.3606 -0.2853
   42DOPE  H12S 5352   1.427   5.947  10.702  1.2494  1.0931 -0.5825
   42DOPE  C213 5353   1.586   5.839  10.788  0.0898  0.8495  0.1210
   42DOPE  H13R 5354   1.562   5.907  10.873 -1.4666 -2.6846  2.7891
   42DOPE  H13S 5355   1.664   5.896  10.734  0.5535 -0.9220 -1.1646
   42DOPE  C214 5356   1.619   5.704  10.837  0.1573  0.4119  0.5917
   42DOPE  H14R 5357   1.656   5.629  10.765 -0.9954 -1.2486  1.6467
   42DOPE  H14S 5358   1.537   5.645  10.885  0.0558 -0.6009 -0.7842
   42DOPE  C215 5359   1.734   5.707  10.938  0.0894  0.8473  0.1659
   42DOPE  H15R 5360   1.813   5.773  10.897  0.6909  0.8704  1.3425
   42DOPE  H15S 5361   1.782   5.607  10.944 -2.2378 -0.2884  1.2184
   42DOPE  C216 5362   1.695   5.736  11.079  0.8831 -0.5661  1.0240
   42DOPE  H16R 5363   1.629   5.653  11.114  1.7746 -1.2578  1.0920
   42DOPE  H16S 5364   1.650   5.838  11.072  0.7167 -0.5909  1.6893
   42DOPE  C217 5365   1.819   5.737  11.166  0.0692 -0.1418  0.5954
   42DOPE  H17R 5366   1.796   5.802  11.253 -0.4310 -1.6382  1.6219
   42DOPE  H17S 5367   1.902   5.783  11.109 -0.1981 -0.7573 -0.3172
   42DOPE  C218 5368   1.859   5.600  11.222 -0.2733 -0.0782  0.8134
   42DOPE  H18R 5369   1.968   5.596  11.244 -0.1581  0.8918  0.4705
   42DOPE  H18S 5370   1.834   5.527  11.143 -0.5518  0.2812  0.5649
   42DOPE  H18T 5371   1.801   5.576  11.313 -0.8182  0.1967  0.5428
   42DOPE   C33 5372   1.412   5.384   9.882 -0.3288 -0.3080  0.5753
   42DOPE   H3X 5373   1.489   5.461   9.903  1.0867 -1.3591 -0.5469
   42DOPE   H3Y 5374   1.477   5.294   9.869  0.3640  0.4978 -2.0840
   42DOPE   C34 5375   1.326   5.359  10.008  0.0786  0.2253 -0.1368
   42DOPE   H4X 5376   1.257   5.445  10.017  0.3090  0.3544  0.4573
   42DOPE   H4Y 5377   1.264   5.270   9.985  0.9810 -1.1122  2.2215
   42DOPE   C35 5378   1.420   5.335  10.127  0.7839  0.5541 -0.0202
   42DOPE   H5X 5379   1.504   5.404  10.150  2.4355 -0.6715 -2.0798
   42DOPE   H5Y 5380   1.472   5.241  10.100  2.1514  1.7433 -1.7423
   42DOPE   C36 5381   1.340   5.305  10.254  0.4248 -0.2068  1.0044
   42DOPE   H6X 5382   1.280   5.214  10.236  3.2257 -2.7627  3.4515
   42DOPE   H6Y 5383   1.267   5.383  10.286 -1.0453 -1.1236  0.0002
   42DOPE   C37 5384   1.443   5.289  10.370  0.0620 -0.5107  1.0981
   42DOPE   H7X 5385   1.519   5.218  10.331 -1.8857 -1.2014 -1.7904
   42DOPE   H7Y 5386   1.489   5.388  10.389 -0.0388 -0.0494 -0.8599
   42DOPE   C38 5387   1.380   5.230  10.497  0.1946 -0.3388  0.3528
   42DOPE   H8X 5388   1.295   5.164  10.467  0.6428 -1.4187  1.3612
   42DOPE   H8Y 5389   1.336   5.319  10.546  0.9854  0.4954 -0.4218
   42DOPE   C39 5390   1.464   5.161  10.605  0.3181 -0.4420  0.2059
   42DOPE   H9X 5391   1.567   5.198  10.616  0.1229  0.7179 -1.4436
   42DOPE  C310 5392   1.427   5.065  10.695  0.1686 -0.0431 -0.0196
   42DOPE  H10X 5393   1.500   5.021  10.764 -0.6550 -1.6624 -0.1376
   42DOPE  C311 5394   1.292   4.994  10.694 -0.4104 -0.1810  0.4866
   42DOPE  H11X 5395   1.269   4.981  10.586  2.5501 -1.6046 -0.0859
   42DOPE  H11Y 5396   1.302   4.888  10.727  1.6599  0.3631  1.7891
   42DOPE  C312 5397   1.176   5.074  10.757 -0.0358  0.4398 -0.0584
   42DOPE  H12X 5398   1.087   5.008  10.754  0.9917 -0.9984 -0.7422
   42DOPE  H12Y 5399   1.144   5.170  10.711 -1.7863  0.3886  0.9820
   42DOPE  C313 5400   1.198   5.092  10.904 -0.0149 -0.0596  0.6251
   42DOPE  H13X 5401   1.187   4.991  10.948  0.9929  0.1076  1.2965
   42DOPE  H13Y 5402   1.294   5.143  10.928 -0.2440  0.5012  0.3784
   42DOPE  C314 5403   1.087   5.182  10.960  0.8989 -0.0236 -0.8350
   42DOPE  H14X 5404   0.997   5.121  10.979  0.5381  0.1608 -1.8389
   42DOPE  H14Y 5405   1.054   5.261  10.888 -0.2419  0.0989 -0.2033
   42DOPE  C315 5406   1.129   5.258  11.090 -0.6259  0.4117  0.3282
   42DOPE  H15X 5407   1.035   5.313  11.108 -2.0624 -1.2560 -1.6069
   42DOPE  H15Y 5408   1.210   5.329  11.062  2.2946 -2.4861  0.7251
   42DOPE  C316 5409   1.168   5.159  11.208 -0.5539 -0.4668 -0.0211
   42DOPE  H16X 5410   1.257   5.096  11.186 -0.9401 -0.6990 -0.9564
   42DOPE  H16Y 5411   1.082   5.092  11.231 -1.5785  1.2343  1.3762
   42DOPE  C317 5412   1.204   5.239  11.330  0.4268 -0.1927 -0.5088
   42DOPE  H17X 5413   1.315   5.245  11.329  0.4486 -0.4602 -0.0025
   42DOPE  H17Y 5414   1.171   5.342  11.302  3.2561  0.4449 -1.8713
   42DOPE  C318 5415   1.138   5.204  11.469  0.4622  0.1093 -0.7247
   42DOPE  H18X 5416   1.171   5.279  11.543  0.3938 -1.9811  1.5346
   42DOPE  H18Y 5417   1.030   5.214  11.447 -0.5240 -1.6311  2.7733
   42DOPE  H18Z 5418   1.169   5.107  11.514  2.5644  1.3755  0.7366
   43DOPE     N 5419   1.256   4.040   9.458  0.7234  0.1707  0.4487
   43DOPE   HN1 5420   1.155   4.063   9.450  0.4877 -0.9633  0.0021
   43DOPE   HN2 5421   1.299   4.072   9.369  0.0355  2.0735  0.7590
   43DOPE   HN3 5422   1.273   3.938   9.455 -0.2590  0.0189 -1.2867
   43DOPE   C12 5423   1.337   4.121   9.558 -0.0902  0.1970 -0.1167
   43DOPE  H12A 5424   1.297   4.106   9.661  0.9069  0.6918  0.3579
   43DOPE  H12B 5425   1.312   4.227   9.539  0.4365  0.6658  1.5942
   43DOPE   C11 5426   1.489   4.091   9.554  0.5378  0.6660  0.0466
   43DOPE  H11A 5427   1.506   3.986   9.583 -2.3504  0.3670  0.9333
   43DOPE  H11B 5428   1.546   4.159   9.621  2.9073  0.0994 -1.2612
   43DOPE     P 5429   1.679   4.061   9.373 -0.2546 -0.0462 -0.5396
   43DOPE   O13 5430   1.761   4.174   9.327 -0.3215 -0.5534  0.6816
   43DOPE   O14 5431   1.662   3.952   9.276 -0.3094  0.2611 -0.1758
   43DOPE   O11 5432   1.736   4.005   9.504 -0.6329  0.6050 -0.6580
   43DOPE   O12 5433   1.537   4.120   9.420  0.1712 -0.1944 -0.6664
   43DOPE    C1 5434   1.870   3.960   9.524  1.2498 -0.7320  0.0383
   43DOPE    HA 5435   1.935   4.046   9.495 -0.0022  0.9297  1.9303
   43DOPE    HB 5436   1.901   3.869   9.469  0.0613 -2.6675  2.3978
   43DOPE    C2 5437   1.894   3.946   9.678 -0.4999  0.4094 -0.7278
   43DOPE    HS 5438   2.001   3.918   9.687 -1.2187 -3.9127 -2.9608
   43DOPE   O21 5439   1.822   3.841   9.728  0.1492 -0.0723 -0.1404
   43DOPE   C21 5440   1.866   3.779   9.832 -0.0220 -0.4265 -0.0371
   43DOPE   O22 5441   1.972   3.798   9.892 -0.4051  0.1399  0.1113
   43DOPE   C22 5442   1.749   3.685   9.880 -0.8411 -0.2873  0.5240
   43DOPE   H2R 5443   1.707   3.622   9.798 -1.2662  0.9336 -0.2166
   43DOPE   H2S 5444   1.667   3.752   9.915 -0.9023 -0.2390  0.2856
   43DOPE    C3 5445   1.873   4.080   9.742  0.0344  0.0033 -0.4189
   43DOPE    HX 5446   1.764   4.105   9.746  0.1478  0.3530  0.8467
   43DOPE    HY 5447   1.909   4.153   9.667 -1.2564  1.0608 -0.0633
   43DOPE   O31 5448   1.938   4.102   9.864  0.4214 -0.0912 -1.0991
   43DOPE   C31 5449   1.871   4.067   9.980 -0.7775 -0.2880  0.2106
   43DOPE   O32 5450   1.754   4.034   9.982 -0.0179  0.3223  0.0102
   43DOPE   C32 5451   1.966   4.088  10.095 -0.0885  0.1231 -0.4973
   43DOPE   H2X 5452   2.047   4.011  10.090 -0.4723 -0.2253 -1.7899
   43DOPE   H2Y 5453   2.016   4.187  10.088  1.0370 -0.3683  0.2440
   43DOPE   C23 5454   1.798   3.595   9.998  0.1369 -0.7086 -0.0145
   43DOPE   H3R 5455   1.862   3.649  10.071 -0.6912 -0.6933  0.7185
   43DOPE   H3S 5456   1.868   3.514   9.967  1.4129  0.8513 -1.3534
   43DOPE   C24 5457   1.684   3.535  10.080  0.5947 -0.2275 -0.2145
   43DOPE   H4R 5458   1.616   3.469  10.022 -0.7815 -1.0196  2.1593
   43DOPE   H4S 5459   1.626   3.623  10.113  0.2654 -0.8096  0.8046
   43DOPE   C25 5460   1.722   3.440  10.200 -0.3191  0.3352  0.0828
   43DOPE   H5R 5461   1.796   3.365  10.166 -0.0734  0.4372  0.3901
   43DOPE   H5S 5462   1.627   3.387  10.224 -0.6861  0.3051 -1.3566
   43DOPE   C26 5463   1.792   3.505  10.322 -0.5401 -0.3860  0.1703
   43DOPE   H6R 5464   1.738   3.595  10.360 -0.0116 -0.3374  0.8143
   43DOPE   H6S 5465   1.896   3.526  10.289 -2.0922  1.4245 -4.4658
   43DOPE   C27 5466   1.794   3.418  10.448 -0.6939  0.1029 -0.3744
   43DOPE   H7R 5467   1.834   3.317  10.424 -0.0894  0.0861  0.6592
   43DOPE   H7S 5468   1.692   3.406  10.489 -0.4903  0.2408  0.1730
   43DOPE   C28 5469   1.887   3.489  10.555 -0.9684 -0.2429 -0.8479
   43DOPE   H8R 5470   1.851   3.465  10.657  0.3154  3.1559  0.5198
   43DOPE   H8S 5471   1.859   3.596  10.544  0.5017  0.1095 -1.3549
   43DOPE   C29 5472   2.036   3.489  10.555 -0.3414  0.4430 -0.5128
   43DOPE   H9R 5473   2.077   3.514  10.456 -1.2835 -1.3520 -1.4164
   43DOPE  C210 5474   2.121   3.447  10.655 -0.2241 -0.5316  0.2659
   43DOPE  H10R 5475   2.227   3.436  10.630 -0.5885 -0.2185 -1.5107
   43DOPE  C211 5476   2.077   3.401  10.793  0.0468  0.5334 -0.6229
   43DOPE  H11R 5477   2.123   3.300  10.799 -0.0054  0.3856 -2.2907
   43DOPE  H11S 5478   1.969   3.375  10.797  0.2566 -0.1907  1.1734
   43DOPE  C212 5479   2.128   3.480  10.925  0.3610  0.5363  0.4754
   43DOPE  H12R 5480   2.100   3.586  10.910 -1.1588  0.0179 -0.5348
   43DOPE  H12S 5481   2.239   3.471  10.925  0.4242  1.1930  1.1360
   43DOPE  C213 5482   2.065   3.414  11.051 -0.9677  0.1391 -0.4836
   43DOPE  H13R 5483   2.076   3.305  11.031  1.4184  0.6896 -2.7019
   43DOPE  H13S 5484   1.957   3.440  11.058 -0.7612  0.6071  1.6600
   43DOPE  C214 5485   2.126   3.473  11.176 -0.2912  0.3641 -0.0421
   43DOPE  H14R 5486   2.225   3.424  11.170  0.0756  1.1246 -0.2872
   43DOPE  H14S 5487   2.084   3.445  11.275  3.9217 -1.1069  1.5434
   43DOPE  C215 5488   2.147   3.625  11.186  0.2972  0.0493  0.4314
   43DOPE  H15R 5489   2.057   3.672  11.141 -1.1373 -1.7460  1.3097
   43DOPE  H15S 5490   2.232   3.657  11.122  0.0173  0.5617  0.3184
   43DOPE  C216 5491   2.182   3.676  11.324  0.5954 -0.3935 -0.7312
   43DOPE  H16R 5492   2.265   3.614  11.364  1.4584  1.4123  0.4029
   43DOPE  H16S 5493   2.101   3.664  11.399  1.8710  1.7247  1.1090
   43DOPE  C217 5494   2.222   3.824  11.315 -0.5327  0.6604 -0.9623
   43DOPE  H17R 5495   2.132   3.884  11.289 -0.0134  2.0618  0.3598
   43DOPE  H17S 5496   2.305   3.836  11.242  0.0702  0.6639 -0.2858
   43DOPE  C218 5497   2.282   3.874  11.449 -0.3759 -0.8157  0.0233
   43DOPE  H18R 5498   2.213   3.887  11.535  0.7413  0.4646  0.7612
   43DOPE  H18S 5499   2.310   3.979  11.427  0.3356 -0.2955  3.0007
   43DOPE  H18T 5500   2.375   3.819  11.477  1.3350  2.4209  1.1771
   43DOPE   C33 5501   1.890   4.080  10.231  0.7555 -0.4830 -0.6128
   43DOPE   H3X 5502   1.839   3.985  10.259 -0.9280  1.0697  2.0290
   43DOPE   H3Y 5503   1.814   4.160  10.215  2.1322  0.4282 -3.1268
   43DOPE   C34 5504   1.986   4.131  10.346 -0.2664 -0.4159  0.2606
   43DOPE   H4X 5505   2.072   4.063  10.364  1.6929  1.4107 -1.7017
   43DOPE   H4Y 5506   2.037   4.227  10.327  3.0099 -1.8685  1.0927
   43DOPE   C35 5507   1.907   4.147  10.475  0.6715  0.1514  0.1990
   43DOPE   H5X 5508   1.863   4.047  10.495 -1.3358  0.6926 -1.1945
   43DOPE   H5Y 5509   1.822   4.219  10.473  0.7687  0.2929 -2.2668
   43DOPE   C36 5510   1.992   4.191  10.594 -0.5105 -0.6758  0.1443
   43DOPE   H6X 5511   2.001   4.302  10.587 -0.9322 -0.5843  0.9424
   43DOPE   H6Y 5512   2.091   4.143  10.606  0.0285 -0.5869 -2.9756
   43DOPE   C37 5513   1.908   4.172  10.718  0.6534 -1.1951 -0.0898
   43DOPE   H7X 5514   1.800   4.190  10.697  0.3027 -2.1428  0.8173
   43DOPE   H7Y 5515   1.904   4.065  10.747 -1.3612 -1.4849 -1.2473
   43DOPE   C38 5516   1.950   4.256  10.836 -0.2457  0.0065 -0.4766
   43DOPE   H8X 5517   1.876   4.224  10.912  1.2498  1.9401  1.9657
   43DOPE   H8Y 5518   1.915   4.362  10.833  0.6331  0.5208  2.9974
   43DOPE   C39 5519   2.097   4.257  10.873 -0.0455  0.3547 -0.3024
   43DOPE   H9X 5520   2.164   4.301  10.798 -0.1295  0.0582 -0.5520
   43DOPE  C310 5521   2.144   4.186  10.977 -0.1921  0.0353 -0.1553
   43DOPE  H10X 5522   2.253   4.178  10.970 -0.2888 -0.5051 -1.3039
   43DOPE  C311 5523   2.066   4.110  11.080  0.4280 -0.0554 -0.1341
   43DOPE  H11X 5524   1.983   4.065  11.021  0.6521  0.3997 -0.8103
   43DOPE  H11Y 5525   2.136   4.033  11.118  1.6334  0.4599 -1.2343
   43DOPE  C312 5526   2.016   4.202  11.200  0.4409 -0.0077  0.8923
   43DOPE  H12X 5527   1.953   4.285  11.162  2.2089  0.6185 -0.8093
   43DOPE  H12Y 5528   2.103   4.252  11.247  1.0677  0.0020 -0.2272
   43DOPE  C313 5529   1.951   4.123  11.308  0.2632 -0.2438  0.0522
   43DOPE  H13X 5530   1.873   4.056  11.265  0.0566 -0.5988  0.9697
   43DOPE  H13Y 5531   2.029   4.068  11.364 -0.5883 -1.2117  0.2979
   43DOPE  C314 5532   1.868   4.213  11.405  0.0788 -0.0337 -1.2522
   43DOPE  H14X 5533   1.787   4.261  11.346 -0.8339  0.3969  0.3026
   43DOPE  H14Y 5534   1.934   4.289  11.451 -0.8495  0.4203 -0.6351
   43DOPE  C315 5535   1.811   4.131  11.522  0.4491 -0.2628  0.2123
   43DOPE  H15X 5536   1.891   4.066  11.563  0.2059 -0.8465 -0.2219
   43DOPE  H15Y 5537   1.728   4.070  11.479 -0.0573 -0.3954  1.3352
   43DOPE  C316 5538   1.762   4.202  11.651 -0.4510  0.5791 -0.3904
   43DOPE  H16X 5539   1.690   4.286  11.635 -1.7368 -0.3551  0.2772
   43DOPE  H16Y 5540   1.853   4.239  11.703  0.0931 -1.1543 -0.0721
   43DOPE  C317 5541   1.679   4.120  11.748 -0.0412 -0.3445 -0.0106
   43DOPE  H17X 5542   1.586   4.099  11.691 -0.1889 -0.3361  0.2250
   43DOPE  H17Y 5543   1.729   4.024  11.772  1.1120  0.4021  0.6438
   43DOPE  C318 5544   1.656   4.183  11.883  0.3650 -0.1085  0.1569
   43DOPE  H18X 5545   1.594   4.275  11.879 -2.3489 -1.6209  3.1913
   43DOPE  H18Y 5546   1.594   4.109  11.939 -0.3305 -1.0895 -1.7863
   43DOPE  H18Z 5547   1.755   4.184  11.933 -0.5135  0.2075  1.9498
   44DOPE     N 5548   3.137   3.591   8.415 -0.0496 -0.1286  0.4990
   44DOPE   HN1 5549   3.185   3.676   8.379 -1.0308  0.3304  0.2279
   44DOPE   HN2 5550   3.043   3.601   8.371  0.2062 -0.0754 -0.0429
   44DOPE   HN3 5551   3.137   3.602   8.518 -1.7416  2.6934  0.3132
   44DOPE   C12 5552   3.194   3.464   8.370  0.0366  0.1878  0.6643
   44DOPE  H12A 5553   3.275   3.486   8.298 -1.9305  2.0235 -1.1422
   44DOPE  H12B 5554   3.121   3.404   8.311  2.5215 -2.5178  0.0970
   44DOPE   C11 5555   3.224   3.377   8.490 -0.8848  0.0327 -0.3312
   44DOPE  H11A 5556   3.329   3.410   8.507 -1.3759  2.3975 -1.5114
   44DOPE  H11B 5557   3.243   3.271   8.463 -1.9835 -0.3580  0.3416
   44DOPE     P 5558   3.041   3.278   8.639  0.0520  0.2795 -0.0196
   44DOPE   O13 5559   3.108   3.147   8.650  0.3094  0.0518  0.6850
   44DOPE   O14 5560   2.917   3.286   8.562  0.6478  0.5110 -0.4829
   44DOPE   O11 5561   3.002   3.318   8.789  0.5437  0.0772  0.4125
   44DOPE   O12 5562   3.136   3.388   8.601 -0.3371 -0.0956 -0.6631
   44DOPE    C1 5563   2.985   3.453   8.822  0.2192  0.6198  0.1749
   44DOPE    HA 5564   2.881   3.470   8.858  0.9390  2.3315  1.5474
   44DOPE    HB 5565   2.998   3.520   8.734  1.4757  1.3929  0.9143
   44DOPE    C2 5566   3.080   3.502   8.934  0.1995  0.0384  0.1126
   44DOPE    HS 5567   3.186   3.492   8.903 -0.0324 -3.0763  0.0123
   44DOPE   O21 5568   3.042   3.423   9.052 -0.1467  0.1364  0.3550
   44DOPE   C21 5569   3.133   3.344   9.101 -0.2052 -0.0079  0.5691
   44DOPE   O22 5570   3.252   3.366   9.081  0.5437  0.6092  0.1943
   44DOPE   C22 5571   3.061   3.241   9.193 -0.6413 -0.4455  0.7308
   44DOPE   H2R 5572   2.958   3.226   9.154 -0.9452  1.5206  0.6578
   44DOPE   H2S 5573   3.060   3.299   9.288  1.0680  0.0100  0.5051
   44DOPE    C3 5574   3.065   3.653   8.960 -0.4832 -0.3998  0.2151
   44DOPE    HX 5575   2.954   3.660   8.962 -0.4488  1.3491 -1.3958
   44DOPE    HY 5576   3.107   3.704   8.871 -2.8729 -1.8628 -1.8825
   44DOPE   O31 5577   3.127   3.685   9.081  1.1090 -0.1806  0.2529
   44DOPE   C31 5578   3.265   3.704   9.082  0.3205 -0.5057 -0.3973
   44DOPE   O32 5579   3.336   3.695   8.982  0.5667 -0.3600 -0.1902
   44DOPE   C32 5580   3.321   3.735   9.229  0.6096 -0.6664 -0.1040
   44DOPE   H2X 5581   3.300   3.644   9.290 -1.5458  0.7250  1.3586
   44DOPE   H2Y 5582   3.431   3.746   9.220  0.3349  0.6627 -2.8104
   44DOPE   C23 5583   3.150   3.117   9.199  0.6611  0.1771 -0.4671
   44DOPE   H3R 5584   3.257   3.143   9.181  0.3116  1.3541 -0.9554
   44DOPE   H3S 5585   3.112   3.056   9.114 -1.7656  0.8093  0.1088
   44DOPE   C24 5586   3.133   3.042   9.332  0.2047 -0.1587  0.2812
   44DOPE   H4R 5587   3.171   3.116   9.406 -1.1382 -0.5293  1.3909
   44DOPE   H4S 5588   3.192   2.948   9.328  2.0864  0.9669  0.3660
   44DOPE   C25 5589   2.987   3.010   9.369  0.2398 -0.1683 -0.3549
   44DOPE   H5R 5590   2.962   2.930   9.296 -0.2546  0.2105 -0.6043
   44DOPE   H5S 5591   2.924   3.099   9.349 -2.6171 -1.5111  1.9095
   44DOPE   C26 5592   2.966   2.959   9.509 -0.3456  0.1625 -0.7616
   44DOPE   H6R 5593   3.056   2.905   9.544 -0.7466  0.7099  1.2314
   44DOPE   H6S 5594   2.877   2.894   9.521 -1.7579  2.1229 -0.0901
   44DOPE   C27 5595   2.935   3.072   9.614  0.0078 -0.2801  0.3508
   44DOPE   H7R 5596   2.878   3.154   9.566  3.3305  1.0101 -1.7454
   44DOPE   H7S 5597   3.031   3.125   9.635 -0.7062  1.5540 -0.7934
   44DOPE   C28 5598   2.873   3.028   9.744 -0.0046  0.1862 -0.6026
   44DOPE   H8R 5599   2.777   2.978   9.723 -0.7849  1.4948 -0.3138
   44DOPE   H8S 5600   2.859   3.123   9.801  1.3356  0.1530 -0.1819
   44DOPE   C29 5601   2.947   2.931   9.829 -0.3898 -0.2676  0.2285
   44DOPE   H9R 5602   2.931   2.825   9.806  2.0788 -1.1828  2.1994
   44DOPE  C210 5603   3.018   2.953   9.940 -0.6079  0.6591  0.9212
   44DOPE  H10R 5604   3.065   2.870   9.994  1.3069  0.2029 -1.2609
   44DOPE  C211 5605   3.057   3.082   9.995  0.2144 -0.0448 -0.2109
   44DOPE  H11R 5606   3.040   3.164   9.921  0.7921 -0.5057 -0.8677
   44DOPE  H11S 5607   3.166   3.094  10.012  0.1850 -1.1349  0.8700
   44DOPE  C212 5608   2.982   3.130  10.124  0.3739 -0.0551  0.0600
   44DOPE  H12R 5609   2.875   3.143  10.098  0.1259 -1.2313  0.4068
   44DOPE  H12S 5610   3.014   3.229  10.164 -2.2586  0.1843  1.8467
   44DOPE  C213 5611   2.999   3.027  10.237  0.3495  0.4509  0.4728
   44DOPE  H13R 5612   3.100   3.026  10.281 -0.1076  0.7024  1.5571
   44DOPE  H13S 5613   2.990   2.923  10.199  1.3775 -0.0046  1.4355
   44DOPE  C214 5614   2.909   3.045  10.363  0.4467  0.3159  0.5148
   44DOPE  H14R 5615   2.804   3.016  10.339  0.6960  0.0629 -0.3206
   44DOPE  H14S 5616   2.899   3.154  10.384  0.5743  0.4175  0.0542
   44DOPE  C215 5617   2.956   2.981  10.493 -0.1505  0.6866 -0.6019
   44DOPE  H15R 5618   3.063   3.008  10.499 -0.4438  1.5672  1.2804
   44DOPE  H15S 5619   2.948   2.871  10.499 -0.6796  0.6788 -1.2217
   44DOPE  C216 5620   2.879   3.047  10.605 -0.1650  0.7621 -0.3412
   44DOPE  H16R 5621   2.771   3.041  10.578  0.2047 -2.7157 -1.6074
   44DOPE  H16S 5622   2.911   3.153  10.613  0.3147  1.0778 -4.3535
   44DOPE  C217 5623   2.886   2.976  10.741 -0.2182 -0.0575  0.1423
   44DOPE  H17R 5624   2.994   2.968  10.768 -0.2431 -0.1334  0.2198
   44DOPE  H17S 5625   2.838   2.876  10.740  0.8056 -0.5616 -0.9999
   44DOPE  C218 5626   2.826   3.050  10.858 -0.3213  0.1949  0.3995
   44DOPE  H18R 5627   2.873   3.024  10.955  0.3551 -1.0060 -0.2259
   44DOPE  H18S 5628   2.715   3.042  10.863 -0.5393  1.6319 -1.1771
   44DOPE  H18T 5629   2.853   3.155  10.834 -2.1089  0.1153 -2.5039
   44DOPE   C33 5630   3.238   3.851   9.288 -0.1211  0.0932 -0.3821
   44DOPE   H3X 5631   3.131   3.821   9.288  0.3813 -1.8134 -0.5825
   44DOPE   H3Y 5632   3.246   3.952   9.241 -1.5038  0.8385  0.9036
   44DOPE   C34 5633   3.279   3.864   9.436  0.4160 -0.3175  0.0008
   44DOPE   H4X 5634   3.323   3.771   9.479  1.9857  0.8985  1.1351
   44DOPE   H4Y 5635   3.356   3.944   9.438  0.5200 -0.4229  0.1876
   44DOPE   C35 5636   3.165   3.902   9.536  0.1528  0.3367  0.2081
   44DOPE   H5X 5637   3.068   3.853   9.512  1.1882 -2.6420  1.5683
   44DOPE   H5Y 5638   3.155   4.013   9.526 -1.1743  0.4314  2.0755
   44DOPE   C36 5639   3.187   3.866   9.687  0.5214 -0.4295  0.8474
   44DOPE   H6X 5640   3.186   3.755   9.695  0.6995 -0.6119 -1.1424
   44DOPE   H6Y 5641   3.096   3.911   9.732 -0.8527 -0.4658 -1.7128
   44DOPE   C37 5642   3.306   3.943   9.749 -0.3098 -0.0094 -0.4352
   44DOPE   H7X 5643   3.405   3.895   9.735  0.4753  1.6857 -0.8987
   44DOPE   H7Y 5644   3.311   4.041   9.698 -1.1319  0.0442 -0.4276
   44DOPE   C38 5645   3.281   3.983   9.900 -0.3800  0.4819  0.1452
   44DOPE   H8X 5646   3.200   4.059   9.902 -1.2387 -0.3905 -0.1491
   44DOPE   H8Y 5647   3.374   4.026   9.942 -0.1074 -0.0667  0.1159
   44DOPE   C39 5648   3.237   3.873   9.985  0.3446  0.9683 -0.5591
   44DOPE   H9X 5649   3.141   3.834   9.949  1.2259  0.1794 -2.1595
   44DOPE  C310 5650   3.291   3.832  10.102  0.2197  0.8931 -0.2376
   44DOPE  H10X 5651   3.249   3.740  10.145  2.1258 -0.6473 -1.5245
   44DOPE  C311 5652   3.408   3.890  10.168 -0.6311 -0.2332  0.4366
   44DOPE  H11X 5653   3.504   3.842  10.138 -1.1225 -0.9205 -0.0690
   44DOPE  H11Y 5654   3.421   3.995  10.137  1.4727 -0.8778 -1.1285
   44DOPE  C312 5655   3.407   3.914  10.319  0.0219 -0.6397  0.1911
   44DOPE  H12X 5656   3.324   3.980  10.352 -0.0149 -0.9603  0.7413
   44DOPE  H12Y 5657   3.499   3.972  10.341  0.0187 -0.0686 -1.1591
   44DOPE  C313 5658   3.399   3.793  10.405 -0.0970  0.0065 -0.0896
   44DOPE  H13X 5659   3.307   3.735  10.382 -1.8185  2.1852  0.9018
   44DOPE  H13Y 5660   3.482   3.720  10.393  0.4205  0.5886 -0.1277
   44DOPE  C314 5661   3.387   3.839  10.550 -0.1641 -0.1101 -0.5332
   44DOPE  H14X 5662   3.290   3.893  10.554  1.5602  3.2511 -0.2047
   44DOPE  H14Y 5663   3.468   3.903  10.592 -0.4456  0.9568 -1.5488
   44DOPE  C315 5664   3.372   3.726  10.648  0.7546 -0.3996  0.1898
   44DOPE  H15X 5665   3.444   3.642  10.643  2.4102  0.9461  0.4675
   44DOPE  H15Y 5666   3.271   3.680  10.646  0.5587 -0.1451  2.0555
   44DOPE  C316 5667   3.394   3.771  10.794  0.1001 -0.0308  0.2405
   44DOPE  H16X 5668   3.334   3.703  10.857 -2.2191  2.2960  0.7060
   44DOPE  H16Y 5669   3.350   3.873  10.799 -0.3400 -0.1137 -1.4471
   44DOPE  C317 5670   3.544   3.770  10.828  0.0264 -0.5406  0.3931
   44DOPE  H17X 5671   3.573   3.665  10.848 -1.4529 -1.2612 -0.9646
   44DOPE  H17Y 5672   3.607   3.789  10.739  1.7005 -1.6136  1.3119
   44DOPE  C318 5673   3.575   3.847  10.953 -0.5560  0.0500  0.0475
   44DOPE  H18X 5674   3.535   3.785  11.036 -0.3816 -1.2989 -0.8298
   44DOPE  H18Y 5675   3.684   3.855  10.968 -0.0367 -1.3541 -2.3489
   44DOPE  H18Z 5676   3.526   3.946  10.962 -1.7877 -0.6099  1.0117
   45DOPE     N 5677   3.029   1.963   8.686  0.0476  0.0883 -0.4946
   45DOPE   HN1 5678   3.050   2.046   8.745  1.1493 -0.3705 -0.2100
   45DOPE   HN2 5679   2.982   1.994   8.599  2.0062 -1.6807 -2.2879
   45DOPE   HN3 5680   2.964   1.902   8.739 -0.9757  0.6142 -1.1144
   45DOPE   C12 5681   3.156   1.889   8.651  0.1522  0.0248 -0.4507
   45DOPE  H12A 5682   3.165   1.906   8.541 -1.8280  0.1635 -0.6239
   45DOPE  H12B 5683   3.120   1.785   8.663  1.2103 -0.2203  0.7918
   45DOPE   C11 5684   3.278   1.919   8.752 -0.4912  0.4302  0.2781
   45DOPE  H11A 5685   3.356   1.840   8.741  0.5210  1.7636 -3.6428
   45DOPE  H11B 5686   3.246   1.922   8.858  0.8903  3.0728  0.6904
   45DOPE     P 5687   3.298   2.167   8.819  0.1804 -0.1785  0.0575
   45DOPE   O13 5688   3.151   2.180   8.821  0.4063 -0.7795  0.2360
   45DOPE   O14 5689   3.381   2.285   8.776 -0.2934 -0.1278  0.2367
   45DOPE   O11 5690   3.350   2.120   8.961 -0.1540  0.2567  0.2845
   45DOPE   O12 5691   3.328   2.045   8.723  0.0250  0.1215 -0.1834
   45DOPE    C1 5692   3.480   2.062   8.973  0.6588 -0.0669  0.5779
   45DOPE    HA 5693   3.558   2.132   8.937 -0.9818 -0.1780 -3.7669
   45DOPE    HB 5694   3.506   1.975   8.908  0.5733 -0.3794  0.9527
   45DOPE    C2 5695   3.496   2.040   9.121 -0.2317 -0.3646 -0.0288
   45DOPE    HS 5696   3.598   2.000   9.138  0.0547  0.6772  0.8132
   45DOPE   O21 5697   3.389   1.965   9.184 -0.1562 -0.0182 -0.3457
   45DOPE   C21 5698   3.394   1.832   9.137  0.0605 -0.1948 -0.4362
   45DOPE   O22 5699   3.493   1.779   9.088 -1.0384  0.1658 -0.1023
   45DOPE   C22 5700   3.258   1.774   9.166 -0.5208  0.1283  0.7173
   45DOPE   H2R 5701   3.229   1.705   9.084  4.0386 -1.3156  0.0351
   45DOPE   H2S 5702   3.187   1.860   9.166 -0.3629  0.3847 -2.9564
   45DOPE    C3 5703   3.493   2.173   9.204  0.0998 -0.0353  0.9809
   45DOPE    HX 5704   3.394   2.219   9.186 -0.6221 -1.8819 -0.0738
   45DOPE    HY 5705   3.562   2.243   9.152 -1.0743  0.3824 -0.0658
   45DOPE   O31 5706   3.528   2.150   9.342  0.4402 -0.0420  0.0368
   45DOPE   C31 5707   3.430   2.156   9.431 -0.5076  0.2155  0.3707
   45DOPE   O32 5708   3.315   2.176   9.404 -0.6898 -0.0185  0.4931
   45DOPE   C32 5709   3.495   2.154   9.572  0.3878 -0.4084  0.2182
   45DOPE   H2X 5710   3.541   2.053   9.579  2.4070  0.4293 -0.4074
   45DOPE   H2Y 5711   3.582   2.222   9.577  0.4395 -0.4125 -0.5364
   45DOPE   C23 5712   3.247   1.703   9.305 -0.2661 -0.2370  0.4176
   45DOPE   H3R 5713   3.338   1.639   9.313  0.2524  0.5362  0.8363
   45DOPE   H3S 5714   3.156   1.641   9.314 -0.7910  0.6462  1.3252
   45DOPE   C24 5715   3.252   1.804   9.416 -0.3214  0.2861  0.1974
   45DOPE   H4R 5716   3.168   1.875   9.402  1.2942  2.3095  0.2966
   45DOPE   H4S 5717   3.348   1.860   9.409  0.2901 -0.9241 -2.3867
   45DOPE   C25 5718   3.263   1.727   9.548  0.3183  0.2237 -0.1634
   45DOPE   H5R 5719   3.353   1.663   9.540  1.4775  1.7141  0.4161
   45DOPE   H5S 5720   3.176   1.659   9.558  0.8345 -0.1594  2.7131
   45DOPE   C26 5721   3.274   1.820   9.672 -0.4146  0.1021  0.2327
   45DOPE   H6R 5722   3.189   1.892   9.680 -1.4228 -0.7538 -2.0638
   45DOPE   H6S 5723   3.371   1.874   9.674  0.0183 -0.6219 -0.5045
   45DOPE   C27 5724   3.274   1.722   9.794 -0.1468 -0.2307  0.9618
   45DOPE   H7R 5725   3.351   1.646   9.770  0.6306  1.2358 -1.5974
   45DOPE   H7S 5726   3.170   1.683   9.799 -1.5423  2.5943 -1.8886
   45DOPE   C28 5727   3.297   1.803   9.920  0.4053  0.1700  0.9382
   45DOPE   H8R 5728   3.218   1.880   9.929 -2.1472 -2.1945  0.2022
   45DOPE   H8S 5729   3.385   1.866   9.897  1.1150 -0.9369  0.5319
   45DOPE   C29 5730   3.299   1.748  10.057 -0.3700  0.4196  0.6712
   45DOPE   H9R 5731   3.206   1.718  10.107  0.6690  0.0916  2.5111
   45DOPE  C210 5732   3.409   1.756  10.133  0.3481 -0.0304 -0.2355
   45DOPE  H10R 5733   3.406   1.722  10.238 -0.9499  0.0768 -0.2254
   45DOPE  C211 5734   3.548   1.786  10.091  0.5451 -0.1993  0.1179
   45DOPE  H11R 5735   3.604   1.835  10.173 -0.1346 -0.8367  0.9813
   45DOPE  H11S 5736   3.543   1.864  10.012 -0.8304 -0.9043 -0.5418
   45DOPE  C212 5737   3.628   1.669  10.033  0.1534  0.2426 -0.1349
   45DOPE  H12R 5738   3.596   1.624   9.937 -0.1308 -1.6201  0.7796
   45DOPE  H12S 5739   3.614   1.586  10.106  0.2663 -1.0259 -1.5252
   45DOPE  C213 5740   3.775   1.706  10.035  0.2837 -0.0521 -0.0299
   45DOPE  H13R 5741   3.821   1.606  10.023 -0.7749 -0.5674  0.1262
   45DOPE  H13S 5742   3.803   1.745  10.135  1.2077 -2.8795  0.9092
   45DOPE  C214 5743   3.829   1.799   9.928  0.0507 -0.1653  1.6799
   45DOPE  H14R 5744   3.938   1.808   9.948 -0.0629  0.3721  2.0829
   45DOPE  H14S 5745   3.793   1.904   9.919  1.3543  0.2081  0.3883
   45DOPE  C215 5746   3.792   1.748   9.780 -0.2986  0.6081  0.3138
   45DOPE  H15R 5747   3.808   1.638   9.769 -0.1732  0.8613 -3.0209
   45DOPE  H15S 5748   3.868   1.793   9.713  0.4988  1.5064  1.7518
   45DOPE  C216 5749   3.666   1.803   9.712  0.1777 -0.1539 -0.3790
   45DOPE  H16R 5750   3.656   1.909   9.744 -2.7519 -0.3731 -0.3584
   45DOPE  H16S 5751   3.587   1.741   9.759  1.2000 -0.4734  1.0006
   45DOPE  C217 5752   3.674   1.797   9.560  0.4653 -0.0106 -0.4549
   45DOPE  H17R 5753   3.756   1.864   9.525  1.3048 -1.6713 -1.8539
   45DOPE  H17S 5754   3.581   1.846   9.525  1.1612  1.3394 -0.4958
   45DOPE  C218 5755   3.679   1.656   9.501 -1.0340 -0.8308  0.0049
   45DOPE  H18R 5756   3.582   1.610   9.532 -1.2112  0.6927  1.8675
   45DOPE  H18S 5757   3.769   1.600   9.533  0.9286  1.4255 -1.2900
   45DOPE  H18T 5758   3.683   1.669   9.390  0.9982 -1.0644  0.0170
   45DOPE   C33 5759   3.402   2.198   9.699 -0.1391  0.1213  0.5685
   45DOPE   H3X 5760   3.304   2.144   9.697  1.0035 -2.0555 -0.3411
   45DOPE   H3Y 5761   3.381   2.306   9.711  0.8114  0.3809 -0.0595
   45DOPE   C34 5762   3.476   2.144   9.826  0.5086  0.0167  0.6846
   45DOPE   H4X 5763   3.479   2.033   9.820  1.5792  0.0975 -3.0642
   45DOPE   H4Y 5764   3.584   2.168   9.818  1.1236 -2.0464  2.0731
   45DOPE   C35 5765   3.427   2.203   9.957  0.4332 -0.2302  0.1383
   45DOPE   H5X 5766   3.319   2.179   9.973 -0.5405  1.1698 -3.3835
   45DOPE   H5Y 5767   3.425   2.313   9.939  1.8691 -0.3706 -1.0841
   45DOPE   C36 5768   3.524   2.175  10.070  0.6830  0.9119  0.9593
   45DOPE   H6X 5769   3.630   2.165  10.037 -0.0488 -1.7544 -0.8964
   45DOPE   H6Y 5770   3.513   2.067  10.092  0.7259  0.9487  1.1635
   45DOPE   C37 5771   3.506   2.236  10.209 -0.3540 -0.0422  0.7908
   45DOPE   H7X 5772   3.605   2.238  10.259 -0.6478  1.0142  1.3364
   45DOPE   H7Y 5773   3.484   2.342  10.186  0.5511 -0.2366 -1.2036
   45DOPE   C38 5774   3.390   2.186  10.288  0.2563 -0.9576  0.2894
   45DOPE   H8X 5775   3.413   2.081  10.314  2.5079 -0.4232  0.6178
   45DOPE   H8Y 5776   3.307   2.203  10.216  1.1170 -0.0172 -0.5026
   45DOPE   C39 5777   3.354   2.258  10.414 -0.4766  0.3198 -0.2464
   45DOPE   H9X 5778   3.307   2.355  10.392  1.1027  1.1121 -0.2094
   45DOPE  C310 5779   3.368   2.227  10.539  0.3001 -0.2139  0.2634
   45DOPE  H10X 5780   3.332   2.298  10.615 -0.0415  1.4484 -1.3749
   45DOPE  C311 5781   3.438   2.104  10.593 -0.2059  0.5722 -0.3738
   45DOPE  H11X 5782   3.487   2.046  10.512  1.6847  1.4583  0.0552
   45DOPE  H11Y 5783   3.521   2.127  10.663  1.3023 -0.0722 -1.8749
   45DOPE  C312 5784   3.338   2.016  10.666 -0.3576 -0.0084  0.5317
   45DOPE  H12X 5785   3.393   1.926  10.700  0.3391 -0.5110 -1.7525
   45DOPE  H12Y 5786   3.254   1.977  10.603 -0.1333  0.8915 -0.3492
   45DOPE  C313 5787   3.273   2.091  10.783  0.1937  0.4375 -1.0365
   45DOPE  H13X 5788   3.344   2.173  10.805 -0.0204  0.2111  0.5776
   45DOPE  H13Y 5789   3.181   2.138  10.742  1.2243  2.9428 -0.6627
   45DOPE  C314 5790   3.240   2.011  10.907 -0.3840  0.7196 -0.1275
   45DOPE  H14X 5791   3.327   1.944  10.927 -2.1084 -1.6348 -0.0187
   45DOPE  H14Y 5792   3.154   1.947  10.877 -0.5293  0.0726  1.5574
   45DOPE  C315 5793   3.195   2.098  11.019 -0.2786  0.2528  0.0317
   45DOPE  H15X 5794   3.115   2.161  10.975  0.9607  1.4761 -0.5344
   45DOPE  H15Y 5795   3.273   2.164  11.064 -0.5624  0.2457  0.5394
   45DOPE  C316 5796   3.133   2.015  11.131  0.6706  0.2501  0.7040
   45DOPE  H16X 5797   3.054   1.947  11.093  1.3313  0.0637 -0.3696
   45DOPE  H16Y 5798   3.086   2.084  11.204 -0.8884  0.5312 -0.5127
   45DOPE  C317 5799   3.235   1.930  11.199  0.0456  0.3117 -0.4805
   45DOPE  H17X 5800   3.191   1.854  11.267  0.6379 -0.6223 -1.1097
   45DOPE  H17Y 5801   3.289   1.865  11.127  0.2703 -0.6329  0.5183
   45DOPE  C318 5802   3.336   2.020  11.275  0.0952 -0.1462 -0.4141
   45DOPE  H18X 5803   3.290   2.042  11.373 -1.2500 -0.1346 -1.0272
   45DOPE  H18Y 5804   3.436   1.975  11.294  0.2720  0.9757  1.6051
   45DOPE  H18Z 5805   3.352   2.116  11.221 -0.9944 -0.4695 -1.3594
   46DOPE     N 5806   3.099   0.652   8.192  0.5868  0.5558  0.1647
   46DOPE   HN1 5807   3.143   0.683   8.281  1.1288  0.4285 -0.0526
   46DOPE   HN2 5808   3.168   0.691   8.124  1.1025  0.4505  0.6145
   46DOPE   HN3 5809   3.004   0.692   8.176 -0.4109 -2.1263 -1.1797
   46DOPE   C12 5810   3.098   0.502   8.183  0.0882 -0.7409 -0.3145
   46DOPE  H12A 5811   3.199   0.461   8.204 -0.1354 -0.7574  0.8098
   46DOPE  H12B 5812   3.062   0.484   8.080 -0.5649  0.0453 -0.2370
   46DOPE   C11 5813   2.993   0.444   8.272  0.2601  0.4309 -0.5971
   46DOPE  H11A 5814   2.984   0.339   8.236  2.9292  0.9754 -3.3579
   46DOPE  H11B 5815   2.891   0.487   8.266  0.2943  0.6240  0.1879
   46DOPE     P 5816   3.080   0.332   8.498 -0.1029  0.0710 -0.8376
   46DOPE   O13 5817   3.148   0.376   8.618 -0.4308  0.5640 -0.7120
   46DOPE   O14 5818   3.154   0.244   8.406 -0.5931  0.2146  0.3484
   46DOPE   O11 5819   2.941   0.266   8.533 -0.0688 -0.7114 -0.0421
   46DOPE   O12 5820   3.029   0.455   8.413  0.1922  0.1769 -0.5046
   46DOPE    C1 5821   2.923   0.150   8.617 -0.0736  0.1011  0.2102
   46DOPE    HA 5822   3.012   0.085   8.629 -0.3111 -0.1674  0.5417
   46DOPE    HB 5823   2.854   0.075   8.572  0.9238 -2.4235  2.5776
   46DOPE    C2 5824   2.861   0.184   8.754 -0.4022 -0.7327  0.6522
   46DOPE    HS 5825   2.798   0.271   8.726  0.1095 -1.0107 -1.5207
   46DOPE   O21 5826   2.975   0.219   8.839 -0.1304  0.1982 -0.2624
   46DOPE   C21 5827   2.971   0.338   8.893 -0.1157 -0.2597  0.1194
   46DOPE   O22 5828   2.880   0.421   8.882 -0.2284  0.5777 -0.2590
   46DOPE   C22 5829   3.095   0.365   8.969  0.6925  0.2799 -0.0671
   46DOPE   H2R 5830   3.173   0.367   8.889  0.7541 -0.2796 -0.0273
   46DOPE   H2S 5831   3.114   0.280   9.039  3.4606  1.6374  0.9833
   46DOPE    C3 5832   2.782   0.073   8.817  0.2621 -0.3081 -0.2050
   46DOPE    HX 5833   2.841  -0.021   8.803 -1.6254 -1.3370 -1.8317
   46DOPE    HY 5834   2.686   0.044   8.769 -1.1313  2.4822  0.7151
   46DOPE   O31 5835   2.764   0.101   8.960 -0.3687  0.7314 -0.1165
   46DOPE   C31 5836   2.660   0.166   8.991  0.1772  0.1421 -0.9193
   46DOPE   O32 5837   2.570   0.196   8.915 -0.3283 -0.4010  0.2604
   46DOPE   C32 5838   2.662   0.184   9.143 -0.1084  0.1196  0.3650
   46DOPE   H2X 5839   2.675   0.293   9.159  0.1457  0.1674 -0.1572
   46DOPE   H2Y 5840   2.558   0.162   9.175 -0.5999 -0.6833 -1.6195
   46DOPE   C23 5841   3.097   0.500   9.039 -0.0682 -0.0113  0.3315
   46DOPE   H3R 5842   3.069   0.577   8.964  1.1635  1.0565  0.9246
   46DOPE   H3S 5843   3.196   0.525   9.082  0.4293  0.7429 -1.1993
   46DOPE   C24 5844   3.004   0.514   9.159  0.1389  1.0785  0.1046
   46DOPE   H4R 5845   3.040   0.437   9.231  2.7210  2.7546  0.7571
   46DOPE   H4S 5846   2.897   0.497   9.135  0.7143 -1.2435 -1.0057
   46DOPE   C25 5847   3.012   0.648   9.221  0.3315 -0.2011 -0.3461
   46DOPE   H5R 5848   2.979   0.728   9.152  0.7203 -1.1006 -1.6131
   46DOPE   H5S 5849   3.115   0.669   9.257 -1.0564  0.1361  4.0863
   46DOPE   C26 5850   2.914   0.659   9.339 -0.1693 -0.9964  0.2320
   46DOPE   H6R 5851   2.813   0.641   9.295  0.2048  0.2991 -1.2746
   46DOPE   H6S 5852   2.902   0.766   9.365 -2.2512 -0.7198 -1.5549
   46DOPE   C27 5853   2.942   0.564   9.456  0.2067 -0.4456 -0.9421
   46DOPE   H7R 5854   2.957   0.460   9.418  3.4593 -0.5939  0.4256
   46DOPE   H7S 5855   2.845   0.566   9.510  0.8478  3.2326  0.3164
   46DOPE   C28 5856   3.065   0.593   9.552 -0.3822  0.0435  0.6039
   46DOPE   H8R 5857   3.038   0.689   9.601 -3.2725  1.3417 -3.0269
   46DOPE   H8S 5858   3.160   0.605   9.494  0.0431  1.9120  1.6201
   46DOPE   C29 5859   3.074   0.485   9.654 -0.1273 -0.1726 -0.3910
   46DOPE   H9R 5860   3.119   0.396   9.607  0.3488 -1.4948  2.4089
   46DOPE  C210 5861   3.038   0.487   9.782 -0.4653  0.7762  0.0453
   46DOPE  H10R 5862   3.075   0.402   9.842 -1.8985 -1.1978 -1.7477
   46DOPE  C211 5863   2.973   0.602   9.856  0.1025  0.1134  0.2493
   46DOPE  H11R 5864   2.866   0.579   9.875 -0.0028 -0.5649 -1.1243
   46DOPE  H11S 5865   2.970   0.699   9.802 -2.8474 -0.5226 -0.8779
   46DOPE  C212 5866   3.035   0.630   9.987 -0.3364  0.0496 -0.2504
   46DOPE  H12R 5867   2.998   0.728  10.025  1.1336  1.5964 -2.5368
   46DOPE  H12S 5868   3.145   0.632   9.977 -0.4879 -0.1858 -2.6082
   46DOPE  C213 5869   3.000   0.520  10.093  0.5489 -0.2819  0.4834
   46DOPE  H13R 5870   3.035   0.422  10.055  1.4983 -0.1276  0.9430
   46DOPE  H13S 5871   2.890   0.515  10.108  0.6742  1.4741  2.4731
   46DOPE  C214 5872   3.063   0.554  10.229 -0.1943  0.2461  0.5900
   46DOPE  H14R 5873   3.172   0.550  10.212 -0.1975 -0.4011  0.6808
   46DOPE  H14S 5874   3.035   0.465  10.290  0.5077 -0.5329 -0.1833
   46DOPE  C215 5875   3.012   0.675  10.298  0.0546  0.1826 -0.2398
   46DOPE  H15R 5876   2.903   0.654  10.305  0.3052 -1.2488 -0.2726
   46DOPE  H15S 5877   3.012   0.777  10.253  0.3517  0.8227  1.1548
   46DOPE  C216 5878   3.066   0.701  10.436  0.3864 -0.5320  0.7353
   46DOPE  H16R 5879   3.175   0.725  10.436  0.8090 -2.2618  2.1443
   46DOPE  H16S 5880   3.061   0.611  10.500  2.0086 -1.5979 -0.5399
   46DOPE  C217 5881   2.985   0.819  10.499 -0.1327  1.0609  0.5343
   46DOPE  H17R 5882   2.889   0.769  10.524  1.1185 -0.9132  1.6545
   46DOPE  H17S 5883   2.970   0.901  10.426 -0.1178  0.4808 -0.1262
   46DOPE  C218 5884   3.053   0.887  10.613  0.4363  0.6259 -0.1842
   46DOPE  H18R 5885   3.156   0.918  10.587  0.8410 -0.8933 -0.5067
   46DOPE  H18S 5886   3.056   0.819  10.702  0.6109 -0.7077 -1.1710
   46DOPE  H18T 5887   2.988   0.973  10.638 -1.0191 -0.5249  0.1127
   46DOPE   C33 5888   2.763   0.107   9.224  0.0973  0.7143 -0.4938
   46DOPE   H3X 5889   2.865   0.141   9.195  0.9500  0.0175  1.4646
   46DOPE   H3Y 5890   2.751  -0.003   9.210  0.6811  0.5655  0.0809
   46DOPE   C34 5891   2.752   0.141   9.377  0.0059 -0.4252 -0.4197
   46DOPE   H4X 5892   2.781   0.248   9.394  1.0348 -0.7990  0.3254
   46DOPE   H4Y 5893   2.646   0.146   9.409  0.7735  0.0413  2.3381
   46DOPE   C35 5894   2.834   0.047   9.456 -0.7884  0.3143 -1.3634
   46DOPE   H5X 5895   2.938   0.043   9.418  0.1676 -1.2039  1.1393
   46DOPE   H5Y 5896   2.786  -0.053   9.464 -0.1170  0.1144  1.0761
   46DOPE   C36 5897   2.845   0.108   9.601 -0.8915  0.0557 -1.2005
   46DOPE   H6X 5898   2.751   0.153   9.639 -0.3672 -1.5214  2.3828
   46DOPE   H6Y 5899   2.916   0.193   9.600 -0.6250 -0.1619 -0.9612
   46DOPE   C37 5900   2.886   0.001   9.703  0.4042  0.0864 -0.1216
   46DOPE   H7X 5901   2.825  -0.092   9.698  2.1411 -1.0412 -1.5661
   46DOPE   H7Y 5902   2.990  -0.026   9.676  0.1824 -0.4301 -0.4846
   46DOPE   C38 5903   2.872   0.055   9.852  0.1938 -0.4973 -0.0672
   46DOPE   H8X 5904   2.772   0.101   9.869 -0.5322 -1.4069 -1.5792
   46DOPE   H8Y 5905   2.946   0.138   9.853  0.6577 -0.8825 -0.8184
   46DOPE   C39 5906   2.907  -0.051   9.959  0.5730 -0.0869 -0.3419
   46DOPE   H9X 5907   2.863  -0.150   9.945 -1.2120  0.6242 -0.1147
   46DOPE  C310 5908   2.997  -0.033  10.054  0.2678 -0.2705  0.1061
   46DOPE  H10X 5909   3.019  -0.115  10.124 -0.6728 -1.3664 -0.8449
   46DOPE  C311 5910   3.069   0.103  10.083  0.1950  0.1378 -0.5572
   46DOPE  H11X 5911   3.168   0.123  10.038  0.2042  1.6093  0.0542
   46DOPE  H11Y 5912   3.008   0.190  10.050 -1.1322 -0.6565 -0.2774
   46DOPE  C312 5913   3.073   0.132  10.231 -0.5038 -0.4337  0.7616
   46DOPE  H12X 5914   3.138   0.219  10.255 -3.1478  1.8663  0.0811
   46DOPE  H12Y 5915   3.139   0.052  10.270  2.7468  1.0210 -1.3206
   46DOPE  C313 5916   2.939   0.163  10.302 -0.5009  0.7745  0.1659
   46DOPE  H13X 5917   2.897   0.257  10.261  1.3733  1.5724 -0.0174
   46DOPE  H13Y 5918   2.870   0.078  10.284 -0.4962  0.9157 -0.5309
   46DOPE  C314 5919   2.952   0.161  10.454  0.4044 -0.1058  0.4838
   46DOPE  H14X 5920   3.039   0.223  10.487 -0.1517  0.1372  1.5156
   46DOPE  H14Y 5921   2.971   0.057  10.489 -1.5591 -0.5602  0.2946
   46DOPE  C315 5922   2.825   0.203  10.521  0.7689  0.4235  0.1452
   46DOPE  H15X 5923   2.733   0.157  10.478  1.6046 -2.4672  1.2216
   46DOPE  H15Y 5924   2.812   0.312  10.501 -0.4517  0.1717 -0.5261
   46DOPE  C316 5925   2.831   0.194  10.674 -0.8714  0.0685  0.1194
   46DOPE  H16X 5926   2.844   0.086  10.695  1.1646  0.3106  0.2621
   46DOPE  H16Y 5927   2.734   0.231  10.715 -1.9927 -1.9751 -0.5577
   46DOPE  C317 5928   2.953   0.264  10.731 -0.5673  0.2545  0.0960
   46DOPE  H17X 5929   2.964   0.247  10.840 -0.7569  0.9452  0.2248
   46DOPE  H17Y 5930   3.048   0.217  10.697 -3.0070 -5.4324 -0.0586
   46DOPE  C318 5931   2.956   0.415  10.715 -0.0201 -0.5391  0.7310
   46DOPE  H18X 5932   3.034   0.465  10.776  0.7014  0.8218 -1.2082
   46DOPE  H18Y 5933   2.979   0.449  10.612 -3.6678 -1.2853 -0.4751
   46DOPE  H18Z 5934   2.858   0.463  10.739 -0.8705 -0.8641 -1.8062
   47DOPE     N 5935   1.343   6.678   9.007 -0.2333  0.3936 -0.0176
   47DOPE   HN1 5936   1.398   6.590   8.998  0.0400  0.7876 -3.4645
   47DOPE   HN2 5937   1.251   6.670   8.960 -0.7813 -2.0390  1.3048
   47DOPE   HN3 5938   1.400   6.753   8.963 -0.3144  0.7014  0.3925
   47DOPE   C12 5939   1.320   6.705   9.148  0.5555  0.8863  0.4604
   47DOPE  H12A 5940   1.278   6.807   9.158  1.8828  1.5680 -0.6193
   47DOPE  H12B 5941   1.422   6.698   9.191  0.4189 -1.5536  0.5251
   47DOPE   C11 5942   1.233   6.601   9.214  0.3687  0.1974 -0.4406
   47DOPE  H11A 5943   1.127   6.607   9.184 -0.2205  0.2392  1.5129
   47DOPE  H11B 5944   1.241   6.617   9.324 -0.7610  1.3970 -0.5061
   47DOPE     P 5945   1.186   6.365   9.117  0.4093 -0.2560  0.1037
   47DOPE   O13 5946   1.249   6.232   9.114 -0.5107 -0.1668  0.2312
   47DOPE   O14 5947   1.131   6.425   8.990 -0.7371 -0.0309 -0.7068
   47DOPE   O11 5948   1.074   6.353   9.225 -0.1894 -0.6629  0.0576
   47DOPE   O12 5949   1.289   6.468   9.181  0.1087  0.0893 -0.9075
   47DOPE    C1 5950   1.079   6.248   9.323  0.4767  0.3000  0.4343
   47DOPE    HA 5951   1.183   6.216   9.346 -0.2066 -3.0988 -0.5802
   47DOPE    HB 5952   1.033   6.158   9.276 -1.7908  1.2754  0.6747
   47DOPE    C2 5953   1.014   6.276   9.463 -0.2603 -0.2134 -0.6290
   47DOPE    HS 5954   1.051   6.207   9.541  0.2022  0.3010 -0.3827
   47DOPE   O21 5955   0.872   6.280   9.463  0.0369 -0.7638 -0.4294
   47DOPE   C21 5956   0.825   6.161   9.435 -0.3694 -0.1344  0.5492
   47DOPE   O22 5957   0.885   6.055   9.426  0.2083  0.1218  0.2171
   47DOPE   C22 5958   0.673   6.171   9.419 -1.3698  0.1745 -0.1466
   47DOPE   H2R 5959   0.647   6.144   9.314 -0.8562 -1.2232  0.0610
   47DOPE   H2S 5960   0.635   6.274   9.436 -0.0492  0.6117  0.3053
   47DOPE    C3 5961   1.072   6.416   9.513  0.6756  0.2628  0.0338
   47DOPE    HX 5962   1.057   6.492   9.433  3.7883 -0.4569 -1.3683
   47DOPE    HY 5963   1.183   6.413   9.516  0.6384 -2.0391  0.1701
   47DOPE   O31 5964   1.009   6.465   9.636 -0.3884  0.2442 -0.0803
   47DOPE   C31 5965   1.060   6.414   9.747  0.3143  0.2954  0.2534
   47DOPE   O32 5966   1.166   6.349   9.751  0.5724  0.5982 -0.0821
   47DOPE   C32 5967   0.961   6.425   9.861  0.1246 -0.1335  0.2817
   47DOPE   H2X 5968   0.917   6.527   9.854  1.3128  0.3071 -3.0283
   47DOPE   H2Y 5969   0.874   6.358   9.849 -0.3007 -0.0656  2.5935
   47DOPE   C23 5970   0.606   6.062   9.512 -0.4142  0.3866 -0.0035
   47DOPE   H3R 5971   0.662   5.967   9.518  0.9584  1.1909  0.5752
   47DOPE   H3S 5972   0.504   6.054   9.469  0.0030  0.2706 -0.9940
   47DOPE   C24 5973   0.590   6.112   9.653  0.1759 -0.0646 -0.3373
   47DOPE   H4R 5974   0.506   6.050   9.692 -0.1076  0.0334 -0.7849
   47DOPE   H4S 5975   0.562   6.219   9.659 -3.0306 -0.8728  0.9623
   47DOPE   C25 5976   0.711   6.088   9.749 -0.0188 -0.2453 -0.4231
   47DOPE   H5R 5977   0.804   6.142   9.720  0.2191  0.0220  0.8011
   47DOPE   H5S 5978   0.739   5.981   9.740  0.8890 -0.0999  0.5888
   47DOPE   C26 5979   0.672   6.108   9.893 -0.5402 -0.6421  0.1678
   47DOPE   H6R 5980   0.567   6.073   9.903 -0.7637  0.2823  1.1841
   47DOPE   H6S 5981   0.675   6.215   9.923 -2.9312 -0.6825  0.7125
   47DOPE   C27 5982   0.758   6.014   9.981 -0.2256  0.4481  0.4430
   47DOPE   H7R 5983   0.865   6.042   9.967 -0.6759  0.4133 -4.7782
   47DOPE   H7S 5984   0.741   5.908   9.954 -3.0075  0.7035  0.9330
   47DOPE   C28 5985   0.714   6.025  10.130  0.1004 -0.3783  0.0693
   47DOPE   H8R 5986   0.604   6.012  10.129  0.2373 -1.6597 -1.2416
   47DOPE   H8S 5987   0.733   6.132  10.155 -0.5215  0.2108 -1.8370
   47DOPE   C29 5988   0.791   5.920  10.214 -0.0918 -0.4752 -0.8507
   47DOPE   H9R 5989   0.866   5.853  10.170 -0.8372 -1.0509 -1.2679
   47DOPE  C210 5990   0.744   5.886  10.338  0.1432 -0.5351 -0.0618
   47DOPE  H10R 5991   0.788   5.808  10.402  0.6727 -0.9156 -0.8614
   47DOPE  C211 5992   0.622   5.948  10.398 -0.3092  0.4921  0.2425
   47DOPE  H11R 5993   0.538   5.878  10.418  1.1638 -0.9001  1.9259
   47DOPE  H11S 5994   0.577   6.028  10.335 -1.1128 -0.6450 -0.6676
   47DOPE  C212 5995   0.651   6.011  10.543 -0.0559 -0.4307  0.1657
   47DOPE  H12R 5996   0.552   6.038  10.585 -1.2887 -0.0232 -2.7619
   47DOPE  H12S 5997   0.715   6.101  10.533 -2.4234  1.2405 -0.8496
   47DOPE  C213 5998   0.719   5.906  10.638  0.8375 -0.3247 -0.4710
   47DOPE  H13R 5999   0.825   5.891  10.606  0.8314  2.0840 -1.9262
   47DOPE  H13S 6000   0.660   5.813  10.625 -0.5537  0.3584  0.7510
   47DOPE  C214 6001   0.732   5.962  10.784  0.4182  0.2078 -0.2269
   47DOPE  H14R 6002   0.788   6.058  10.784  0.0376  0.4395 -0.9564
   47DOPE  H14S 6003   0.797   5.890  10.839 -1.2607 -2.1322 -1.1275
   47DOPE  C215 6004   0.590   5.972  10.851 -0.6773  0.7496  0.6509
   47DOPE  H15R 6005   0.541   5.873  10.860 -1.1191  1.0837  2.2776
   47DOPE  H15S 6006   0.526   6.043  10.794 -1.1671 -0.7599 -0.7538
   47DOPE  C216 6007   0.597   6.017  10.994 -0.2962  0.1471 -0.6396
   47DOPE  H16R 6008   0.614   6.127  10.995  1.9560 -0.1525 -0.2442
   47DOPE  H16S 6009   0.689   5.977  11.040 -0.6510 -0.6580 -0.6123
   47DOPE  C217 6010   0.483   5.987  11.087  0.2713 -0.6100  0.6258
   47DOPE  H17R 6011   0.458   5.879  11.080 -0.0399 -0.5547  0.8434
   47DOPE  H17S 6012   0.390   6.043  11.063  0.5704 -0.5693 -0.4919
   47DOPE  C218 6013   0.514   6.013  11.235  0.3635  0.1619  0.3493
   47DOPE  H18R 6014   0.586   5.937  11.272  2.2741  1.1180 -1.1553
   47DOPE  H18S 6015   0.418   6.020  11.290  0.3248 -0.8130  0.4090
   47DOPE  H18T 6016   0.563   6.112  11.248 -0.0177  0.1276  2.3939
   47DOPE   C33 6017   1.032   6.402   9.993  0.1302 -0.7075 -0.0442
   47DOPE   H3X 6018   1.117   6.472  10.006 -0.5474  0.5444 -1.8535
   47DOPE   H3Y 6019   1.063   6.297  10.014 -0.8403 -0.8593  0.6856
   47DOPE   C34 6020   0.941   6.445  10.113 -0.7199 -0.4365 -0.0384
   47DOPE   H4X 6021   0.974   6.545  10.150 -0.5663 -0.8866  1.0799
   47DOPE   H4Y 6022   0.834   6.453  10.085 -0.5774 -1.1977 -0.8293
   47DOPE   C35 6023   0.942   6.339  10.223 -0.9283  0.7707 -0.1374
   47DOPE   H5X 6024   0.918   6.241  10.177  0.2597 -0.0494  0.9147
   47DOPE   H5Y 6025   0.864   6.363  10.298 -1.4262 -1.2703  0.0560
   47DOPE   C36 6026   1.085   6.332  10.289  0.9211 -0.0324 -0.5007
   47DOPE   H6X 6027   1.120   6.437  10.295 -0.9928  0.6191  0.0428
   47DOPE   H6Y 6028   1.151   6.278  10.218  1.6385  0.4985 -0.2576
   47DOPE   C37 6029   1.104   6.258  10.423  0.1759 -0.1312  0.5734
   47DOPE   H7X 6030   1.048   6.319  10.497 -1.1252  0.4677 -0.8595
   47DOPE   H7Y 6031   1.052   6.159  10.423 -0.2554  0.0916  0.6607
   47DOPE   C38 6032   1.251   6.245  10.473  0.3914 -0.7369 -0.7328
   47DOPE   H8X 6033   1.307   6.179  10.404  0.5819  0.1107 -1.4007
   47DOPE   H8Y 6034   1.235   6.194  10.570 -0.5121  1.1624  0.1600
   47DOPE   C39 6035   1.320   6.377  10.502 -0.1972  0.3419 -0.2735
   47DOPE   H9X 6036   1.386   6.409  10.420 -0.5950 -0.7582 -1.0497
   47DOPE  C310 6037   1.311   6.452  10.611  1.0179  0.0944  0.1535
   47DOPE  H10X 6038   1.364   6.548  10.602  0.8384  0.2947  1.1812
   47DOPE  C311 6039   1.217   6.431  10.726  0.8188  0.1027 -0.3160
   47DOPE  H11X 6040   1.201   6.533  10.767 -1.4922 -0.4234  0.2028
   47DOPE  H11Y 6041   1.116   6.406  10.689 -0.0869  0.6400  1.6357
   47DOPE  C312 6042   1.271   6.334  10.836 -0.7938 -0.1827 -0.2831
   47DOPE  H12X 6043   1.376   6.360  10.860 -0.4984  1.5664 -3.0077
   47DOPE  H12Y 6044   1.264   6.247  10.768  1.4123  1.3832 -2.7436
   47DOPE  C313 6045   1.180   6.296  10.953 -0.3723 -0.2453  0.5236
   47DOPE  H13X 6046   1.168   6.393  11.006  0.2652  1.4452 -2.1921
   47DOPE  H13Y 6047   1.084   6.269  10.906 -0.5252  1.1385 -0.0183
   47DOPE  C314 6048   1.232   6.177  11.033 -0.0232 -0.3379 -0.1380
   47DOPE  H14X 6049   1.196   6.180  11.138  1.7003 -3.1897  0.6291
   47DOPE  H14Y 6050   1.342   6.188  11.037 -0.0063 -0.4609 -0.2874
   47DOPE  C315 6051   1.199   6.035  10.976 -0.1209 -0.4597  0.7610
   47DOPE  H15X 6052   1.253   6.025  10.880 -1.4743 -1.3337  0.0609
   47DOPE  H15Y 6053   1.089   6.030  10.963 -0.2117  1.7501  0.1738
   47DOPE  C316 6054   1.246   5.929  11.068 -0.2083  0.3905 -0.2462
   47DOPE  H16X 6055   1.196   5.948  11.166  1.1592  1.3988  0.2880
   47DOPE  H16Y 6056   1.354   5.936  11.094 -0.1660  1.3558 -0.6524
   47DOPE  C317 6057   1.214   5.791  11.017 -0.3582 -0.4182 -0.6269
   47DOPE  H17X 6058   1.107   5.763  11.033  0.4191 -2.3880  1.9287
   47DOPE  H17Y 6059   1.232   5.790  10.908 -1.8526  3.7272 -1.0939
   47DOPE  C318 6060   1.294   5.681  11.091  0.8953 -0.0214  0.3107
   47DOPE  H18X 6061   1.283   5.581  11.043 -1.7190  1.6999 -3.1216
   47DOPE  H18Y 6062   1.400   5.714  11.085  0.2504  2.4304  1.2253
   47DOPE  H18Z 6063   1.266   5.674  11.198 -1.8206  0.5355 -0.2808
   48DOPE     N 6064   5.927   2.432   8.948 -0.3738  0.2976 -0.2214
   48DOPE   HN1 6065   5.958   2.376   9.030 -1.0691  2.4837  1.6451
   48DOPE   HN2 6066   5.889   2.525   8.975  1.3654  0.3066  2.5648
   48DOPE   HN3 6067   5.852   2.376   8.902  0.3368 -0.3759 -0.5908
   48DOPE   C12 6068   6.044   2.445   8.852 -0.1792 -0.2458  0.4785
   48DOPE  H12A 6069   6.024   2.528   8.782 -0.4922 -1.0287 -0.3758
   48DOPE  H12B 6070   6.041   2.351   8.793 -1.0639 -1.2506  2.0414
   48DOPE   C11 6071   6.174   2.470   8.932  0.1535 -0.3711 -0.8274
   48DOPE  H11A 6072   6.172   2.567   8.987  0.3843  0.3993 -2.1333
   48DOPE  H11B 6073   6.244   2.476   8.846 -0.7380 -2.2215 -1.7442
   48DOPE     P 6074   6.371   2.386   9.070  0.3988 -0.8294 -0.0098
   48DOPE   O13 6075   6.380   2.526   9.115 -0.7718  0.0798 -0.1271
   48DOPE   O14 6076   6.464   2.350   8.963 -0.1617  0.7035 -0.0545
   48DOPE   O11 6077   6.379   2.284   9.188 -0.4106  0.4682  0.1535
   48DOPE   O12 6078   6.221   2.365   9.018 -0.0625 -0.1125  0.3398
   48DOPE    C1 6079   6.308   2.159   9.203 -0.6445  0.2778  0.8333
   48DOPE    HA 6080   6.328   2.096   9.114  1.4234 -1.2337  2.2718
   48DOPE    HB 6081   6.200   2.179   9.190 -0.2018  1.4974 -1.6394
   48DOPE    C2 6082   6.330   2.090   9.335 -0.7947  0.2220  0.1129
   48DOPE    HS 6083   6.249   2.016   9.357  0.2817 -1.2438 -0.7087
   48DOPE   O21 6084   6.355   2.181   9.445  0.0319  0.3975  0.5326
   48DOPE   C21 6085   6.254   2.260   9.466  0.4295  0.4234  0.0636
   48DOPE   O22 6086   6.141   2.256   9.413 -1.0681  0.0652  0.3665
   48DOPE   C22 6087   6.282   2.360   9.585 -0.2375  0.2426  0.7056
   48DOPE   H2R 6088   6.332   2.442   9.529  2.7818 -2.0607 -0.2289
   48DOPE   H2S 6089   6.358   2.317   9.654 -0.7794  0.7005  1.6158
   48DOPE    C3 6090   6.458   1.995   9.321  0.7189  0.3713  0.4891
   48DOPE    HX 6091   6.537   2.066   9.288  1.3753 -0.7944 -0.5199
   48DOPE    HY 6092   6.437   1.927   9.236  0.7436  0.2143  0.6095
   48DOPE   O31 6093   6.489   1.928   9.445 -0.4946 -0.9330  0.6013
   48DOPE   C31 6094   6.404   1.833   9.477  0.2040 -0.2261 -0.6345
   48DOPE   O32 6095   6.305   1.793   9.413  0.3508 -0.7333 -0.1615
   48DOPE   C32 6096   6.446   1.769   9.613 -0.6759 -0.2521  0.7282
   48DOPE   H2X 6097   6.553   1.741   9.602 -0.9823 -1.1834  0.0152
   48DOPE   H2Y 6098   6.440   1.845   9.694 -3.0310  0.6706 -0.2199
   48DOPE   C23 6099   6.155   2.397   9.669 -0.5222 -0.4142 -0.1550
   48DOPE   H3R 6100   6.089   2.308   9.660 -0.4761 -0.4540 -0.1015
   48DOPE   H3S 6101   6.096   2.484   9.635  0.4518 -0.2254 -1.4335
   48DOPE   C24 6102   6.205   2.402   9.817 -0.0317  0.0421 -0.0012
   48DOPE   H4R 6103   6.278   2.486   9.817 -1.4995  1.3744  1.7201
   48DOPE   H4S 6104   6.258   2.307   9.840  0.2325  0.2783  0.3790
   48DOPE   C25 6105   6.095   2.446   9.903 -0.3946  0.0307  0.0644
   48DOPE   H5R 6106   5.991   2.446   9.865 -1.4858  0.5488  2.7805
   48DOPE   H5S 6107   6.111   2.556   9.915  0.2994  0.0825 -1.2161
   48DOPE   C26 6108   6.096   2.392  10.043  0.0820 -0.0084 -0.6310
   48DOPE   H6R 6109   6.198   2.383  10.085  0.4602 -1.1157 -1.7244
   48DOPE   H6S 6110   6.049   2.291  10.044  0.6691 -0.2817 -0.6220
   48DOPE   C27 6111   6.014   2.473  10.129  0.7666 -0.1114  0.0343
   48DOPE   H7R 6112   5.905   2.471  10.107  0.4015  2.8432  1.1563
   48DOPE   H7S 6113   6.058   2.575  10.127  2.2463 -0.6912  1.3180
   48DOPE   C28 6114   6.025   2.427  10.275 -0.7146 -0.1881  0.0253
   48DOPE   H8R 6115   5.996   2.320  10.282 -1.1208 -0.2253 -1.7441
   48DOPE   H8S 6116   5.949   2.481  10.336  1.4725  2.5680  0.5351
   48DOPE   C29 6117   6.153   2.455  10.346 -0.1045  0.3532 -0.0381
   48DOPE   H9R 6118   6.221   2.525  10.296  0.5048  0.7014  1.2382
   48DOPE  C210 6119   6.195   2.401  10.466 -0.1447 -0.4207  1.3334
   48DOPE  H10R 6120   6.302   2.413  10.491 -0.3778 -0.9266  2.6657
   48DOPE  C211 6121   6.133   2.304  10.561  0.5513  0.2125 -0.6455
   48DOPE  H11R 6122   6.204   2.228  10.601 -0.4318 -0.3630  0.0584
   48DOPE  H11S 6123   6.045   2.246  10.527 -0.2355  1.8755 -1.5474
   48DOPE  C212 6124   6.063   2.383  10.680 -0.0037 -0.0602  0.1649
   48DOPE  H12R 6125   5.981   2.437  10.628 -0.2612 -0.1101  0.5151
   48DOPE  H12S 6126   6.131   2.457  10.728 -0.2483  0.3468 -0.1041
   48DOPE  C213 6127   6.014   2.283  10.786  0.6246  0.2034 -0.5431
   48DOPE  H13R 6128   6.075   2.201  10.831 -1.9166 -0.4315  2.0984
   48DOPE  H13S 6129   5.921   2.234  10.751 -0.5711  0.8943  1.4984
   48DOPE  C214 6130   5.948   2.352  10.912  0.7544  0.0740 -0.4449
   48DOPE  H14R 6131   6.015   2.433  10.945  1.3366 -0.9201  0.8825
   48DOPE  H14S 6132   5.948   2.279  10.996  1.5248  1.6325  0.9750
   48DOPE  C215 6133   5.811   2.414  10.887 -0.0586 -0.5272 -0.1086
   48DOPE  H15R 6134   5.737   2.335  10.859 -1.8330  0.9279  0.2925
   48DOPE  H15S 6135   5.819   2.481  10.800 -0.2344  0.3271  0.5204
   48DOPE  C216 6136   5.748   2.492  11.010 -0.3912  0.1163  0.5730
   48DOPE  H16R 6137   5.823   2.566  11.047 -0.1610  0.4324 -0.4843
   48DOPE  H16S 6138   5.727   2.411  11.083  2.0607 -0.5005  0.6970
   48DOPE  C217 6139   5.627   2.571  10.959 -0.6247 -0.2697 -0.0172
   48DOPE  H17R 6140   5.554   2.500  10.915 -0.6175 -2.4134  3.1140
   48DOPE  H17S 6141   5.663   2.638  10.878  1.4226  0.4672  1.4090
   48DOPE  C218 6142   5.568   2.657  11.066  0.2019 -0.2083 -0.2014
   48DOPE  H18R 6143   5.483   2.608  11.119 -1.2409  1.8481 -0.5035
   48DOPE  H18S 6144   5.524   2.753  11.031  0.5091  0.0112  0.0139
   48DOPE  H18T 6145   5.649   2.680  11.138 -0.8055 -0.3643  1.0335
   48DOPE   C33 6146   6.360   1.642   9.632  0.6471  0.7507  0.1006
   48DOPE   H3X 6147   6.387   1.562   9.561  0.7201 -1.5651  2.5922
   48DOPE   H3Y 6148   6.253   1.667   9.614 -0.2273 -2.4056  0.4758
   48DOPE   C34 6149   6.370   1.588   9.775  0.2637  0.0400  0.2100
   48DOPE   H4X 6150   6.370   1.675   9.844  1.4313 -1.1459  1.7687
   48DOPE   H4Y 6151   6.278   1.528   9.793  1.1903 -1.2543  0.8138
   48DOPE   C35 6152   6.498   1.511   9.812  0.5107  0.1408  0.0286
   48DOPE   H5X 6153   6.594   1.568   9.812  1.5553 -1.5208  0.6154
   48DOPE   H5Y 6154   6.507   1.435   9.731  0.3097  0.3270 -0.1689
   48DOPE   C36 6155   6.490   1.445   9.953 -0.0988  0.3828  0.6742
   48DOPE   H6X 6156   6.594   1.416   9.977 -0.2710 -1.3331 -0.4656
   48DOPE   H6Y 6157   6.414   1.364   9.950 -1.4528  1.5691  1.4060
   48DOPE   C37 6158   6.445   1.552  10.058  0.3097  0.2251  0.0043
   48DOPE   H7X 6159   6.515   1.638  10.050  1.7148 -0.6820  1.8631
   48DOPE   H7Y 6160   6.341   1.582  10.035  0.3534  0.2349 -0.1815
   48DOPE   C38 6161   6.443   1.502  10.204  0.2201 -0.0451  0.2150
   48DOPE   H8X 6162   6.547   1.505  10.245  0.7363  2.1369 -1.1297
   48DOPE   H8Y 6163   6.405   1.398  10.203 -1.1767  0.4365 -1.9849
   48DOPE   C39 6164   6.350   1.581  10.292 -0.7363  0.2827  0.4672
   48DOPE   H9X 6165   6.250   1.568  10.247  0.5552 -1.0744 -2.2961
   48DOPE  C310 6166   6.369   1.653  10.401  0.4536 -0.5301 -0.3559
   48DOPE  H10X 6167   6.288   1.710  10.450 -0.3688 -1.2902 -0.8007
   48DOPE  C311 6168   6.506   1.677  10.462 -0.0700 -0.1326  0.2851
   48DOPE  H11X 6169   6.575   1.595  10.433  0.1923  1.0369 -2.8717
   48DOPE  H11Y 6170   6.556   1.762  10.410  0.1370 -0.8266 -0.6878
   48DOPE  C312 6171   6.504   1.696  10.613 -0.1428  0.0290  0.0597
   48DOPE  H12X 6172   6.614   1.702  10.632 -0.1222 -0.2891  0.0398
   48DOPE  H12Y 6173   6.456   1.604  10.652  0.0102 -0.0241  0.1260
   48DOPE  C313 6174   6.420   1.817  10.674  0.3406  0.3009 -0.3515
   48DOPE  H13X 6175   6.454   1.907  10.620 -0.8126 -0.1125 -1.8274
   48DOPE  H13Y 6176   6.312   1.791  10.669  0.3388  0.5060 -3.2958
   48DOPE  C314 6177   6.469   1.818  10.818 -0.8298 -0.7006 -0.1719
   48DOPE  H14X 6178   6.579   1.834  10.814 -0.8763  0.5286  1.8847
   48DOPE  H14Y 6179   6.456   1.729  10.883  1.8170  1.5752  3.9492
   48DOPE  C315 6180   6.406   1.928  10.903  0.7787 -0.1906  0.6521
   48DOPE  H15X 6181   6.297   1.918  10.883  0.7006 -0.4201  1.1969
   48DOPE  H15Y 6182   6.434   2.032  10.875 -2.6263  1.3617  2.4005
   48DOPE  C316 6183   6.421   1.908  11.058 -0.0789 -0.5065  0.3683
   48DOPE  H16X 6184   6.409   1.802  11.089 -1.4995 -0.0459  1.4713
   48DOPE  H16Y 6185   6.342   1.962  11.113  0.7269 -0.9339  1.9889
   48DOPE  C317 6186   6.560   1.943  11.106  0.5882 -0.3816 -0.7350
   48DOPE  H17X 6187   6.635   1.886  11.048  1.6254  0.1661  0.0483
   48DOPE  H17Y 6188   6.570   2.051  11.078 -0.1940  0.1909  1.0491
   48DOPE  C318 6189   6.587   1.961  11.253 -0.3531  0.4591  0.7543
   48DOPE  H18X 6190   6.581   1.873  11.322  0.7445  0.2557  0.6184
   48DOPE  H18Y 6191   6.680   2.018  11.275 -0.1384 -0.1496  1.4875
   48DOPE  H18Z 6192   6.514   2.031  11.299 -0.1280  0.9046  0.4326
   49DOPE     N 6193   1.133   1.023   8.787  0.2192  0.0922 -0.0219
   49DOPE   HN1 6194   1.210   1.091   8.804 -0.5013  0.8913  0.1522
   49DOPE   HN2 6195   1.148   0.987   8.691  1.4857  0.5651 -0.0134
   49DOPE   HN3 6196   1.039   1.067   8.793  0.3617  0.2309  2.9901
   49DOPE   C12 6197   1.138   0.898   8.873 -0.4190 -0.2890  0.4690
   49DOPE  H12A 6198   1.076   0.817   8.828  0.4479 -0.0372 -1.2877
   49DOPE  H12B 6199   1.107   0.937   8.972 -0.8188 -0.6102  0.4713
   49DOPE   C11 6200   1.283   0.847   8.888  0.3148  0.1278 -0.1246
   49DOPE  H11A 6201   1.315   0.795   8.796  0.8725 -0.7948  0.5732
   49DOPE  H11B 6202   1.267   0.770   8.967 -0.6903  2.1070  1.7064
   49DOPE     P 6203   1.523   0.943   8.933  0.1026 -0.0659  0.3179
   49DOPE   O13 6204   1.580   1.068   8.879 -0.0870  0.0540 -0.5795
   49DOPE   O14 6205   1.568   0.817   8.880  0.1330  0.1978 -0.3686
   49DOPE   O11 6206   1.549   0.940   9.082  0.2268  0.0039 -0.2958
   49DOPE   O12 6207   1.360   0.952   8.934 -0.5892  0.1167 -0.0810
   49DOPE    C1 6208   1.492   1.033   9.166  0.0382 -0.3501 -0.4219
   49DOPE    HA 6209   1.428   1.108   9.116  2.6355  2.4802  0.1733
   49DOPE    HB 6210   1.576   1.103   9.190  0.1325 -0.6207  0.0534
   49DOPE    C2 6211   1.428   0.976   9.298 -0.8383 -0.2819  0.2437
   49DOPE    HS 6212   1.426   1.060   9.371  0.4471 -1.5359  1.8052
   49DOPE   O21 6213   1.518   0.876   9.349  0.1357 -0.0683  0.0537
   49DOPE   C21 6214   1.541   0.888   9.476 -0.6657  0.0209  0.6497
   49DOPE   O22 6215   1.513   0.982   9.551 -0.8230  0.1763  0.0661
   49DOPE   C22 6216   1.612   0.757   9.515  0.0149 -0.2519  0.5439
   49DOPE   H2R 6217   1.714   0.752   9.471  0.1857 -0.8799  0.9978
   49DOPE   H2S 6218   1.549   0.674   9.478  0.8765 -0.3267 -0.8108
   49DOPE    C3 6219   1.292   0.914   9.266  0.2484  0.5715 -0.2003
   49DOPE    HX 6220   1.309   0.840   9.185 -1.4056 -3.9035  3.1137
   49DOPE    HY 6221   1.226   0.990   9.219  0.7946  0.8669 -0.4981
   49DOPE   O31 6222   1.237   0.853   9.386 -0.2270 -0.1081 -0.0681
   49DOPE   C31 6223   1.135   0.772   9.374 -0.2643 -0.3411 -0.2633
   49DOPE   O32 6224   1.093   0.732   9.268  0.5029  0.0434  0.2524
   49DOPE   C32 6225   1.078   0.750   9.510 -0.2487 -0.9805  0.1924
   49DOPE   H2X 6226   1.076   0.854   9.550 -0.9719 -1.4008  1.2885
   49DOPE   H2Y 6227   0.979   0.701   9.494 -1.3943  1.8226 -2.6230
   49DOPE   C23 6228   1.623   0.739   9.666  0.6014  0.0586 -1.2014
   49DOPE   H3R 6229   1.522   0.743   9.711  0.3944  2.8424 -1.7779
   49DOPE   H3S 6230   1.677   0.828   9.703  0.5420  0.3567 -1.8158
   49DOPE   C24 6231   1.697   0.611   9.703  0.0694  0.6144 -0.6340
   49DOPE   H4R 6232   1.780   0.602   9.629  0.5777  0.1191 -0.0126
   49DOPE   H4S 6233   1.622   0.534   9.674 -0.2189  0.3829  0.6813
   49DOPE   C25 6234   1.747   0.588   9.843  0.4830  0.3495  0.1922
   49DOPE   H5R 6235   1.665   0.611   9.914 -0.7142  0.2348 -1.1083
   49DOPE   H5S 6236   1.833   0.656   9.864  1.3474  0.2014 -2.4027
   49DOPE   C26 6237   1.801   0.446   9.857  0.5548 -0.2214 -0.2251
   49DOPE   H6R 6238   1.897   0.448   9.800  0.6016  1.3094 -0.1231
   49DOPE   H6S 6239   1.740   0.365   9.811  0.8174 -1.2234  1.1401
   49DOPE   C27 6240   1.836   0.403  10.007 -0.1986  0.0576 -0.1505
   49DOPE   H7R 6241   1.934   0.447  10.035  0.5205 -0.0352 -2.2943
   49DOPE   H7S 6242   1.838   0.292  10.000 -1.4531  0.0688 -1.2356
   49DOPE   C28 6243   1.732   0.448  10.113  0.9933  0.6393  0.2445
   49DOPE   H8R 6244   1.731   0.364  10.186  0.5216  0.2019 -0.2561
   49DOPE   H8S 6245   1.628   0.453  10.076  0.2742 -1.4259  1.7895
   49DOPE   C29 6246   1.771   0.575  10.180  0.3442 -0.5174  0.7362
   49DOPE   H9R 6247   1.742   0.668  10.128 -1.3707 -1.3088  0.1950
   49DOPE  C210 6248   1.832   0.594  10.297  0.7997 -0.4150  0.3936
   49DOPE  H10R 6249   1.860   0.696  10.326 -0.8065 -0.5499  2.6932
   49DOPE  C211 6250   1.875   0.492  10.391 -0.8276  0.0631  0.0489
   49DOPE  H11R 6251   1.986   0.492  10.397 -0.8884 -1.1047  2.3141
   49DOPE  H11S 6252   1.850   0.387  10.364  2.8641 -0.8785 -0.1907
   49DOPE  C212 6253   1.821   0.531  10.531  0.0385 -0.0816  0.4031
   49DOPE  H12R 6254   1.713   0.507  10.546  0.9030 -4.0268  1.6066
   49DOPE  H12S 6255   1.846   0.635  10.558  0.6193 -0.0027 -0.3901
   49DOPE  C213 6256   1.879   0.434  10.633  0.7680  0.2536 -0.5811
   49DOPE  H13R 6257   1.984   0.403  10.613  1.2120  1.9780 -1.0956
   49DOPE  H13S 6258   1.810   0.347  10.638  0.0829  0.5649 -3.3269
   49DOPE  C214 6259   1.871   0.496  10.773  0.2893  0.0936  0.6520
   49DOPE  H14R 6260   1.769   0.515  10.813  1.3330 -0.0646  3.6329
   49DOPE  H14S 6261   1.924   0.593  10.772  1.7548 -0.6829 -0.0562
   49DOPE  C215 6262   1.942   0.411  10.882 -0.1393 -0.0816 -0.3731
   49DOPE  H15R 6263   2.046   0.388  10.850  0.2710 -0.4011  1.1238
   49DOPE  H15S 6264   1.889   0.313  10.881  0.1161 -0.2278 -0.0230
   49DOPE  C216 6265   1.925   0.472  11.018  0.2266 -0.5850  0.2728
   49DOPE  H16R 6266   1.816   0.487  11.031  0.0241  1.1942 -2.5609
   49DOPE  H16S 6267   1.975   0.572  11.010  0.5483 -0.6317  1.4149
   49DOPE  C217 6268   1.991   0.397  11.145  0.4326  0.3564  0.6457
   49DOPE  H17R 6269   1.999   0.477  11.222 -0.6571  0.1793  0.9660
   49DOPE  H17S 6270   2.094   0.359  11.134  0.3956  0.1553  0.9783
   49DOPE  C218 6271   1.891   0.292  11.195  0.1856 -0.4844  0.1647
   49DOPE  H18R 6272   1.855   0.215  11.124 -0.3881 -1.1452  1.1530
   49DOPE  H18S 6273   1.794   0.337  11.225 -0.6343 -2.1900  0.1895
   49DOPE  H18T 6274   1.936   0.232  11.278 -1.8735 -0.2795  1.4981
   49DOPE   C33 6275   1.179   0.663   9.590 -0.5220  0.5387 -0.0395
   49DOPE   H3X 6276   1.284   0.695   9.572  0.4308 -0.2226  3.4214
   49DOPE   H3Y 6277   1.170   0.560   9.552  0.6408  0.9215 -1.4249
   49DOPE   C34 6278   1.162   0.667   9.745  0.4147 -0.3837  0.6207
   49DOPE   H4X 6279   1.176   0.772   9.775  1.8560 -0.5696  0.6943
   49DOPE   H4Y 6280   1.065   0.621   9.775  0.7811 -0.3091  1.9828
   49DOPE   C35 6281   1.266   0.603   9.830  0.9813 -0.4543 -0.2262
   49DOPE   H5X 6282   1.366   0.611   9.783  1.2753 -1.4621  0.2217
   49DOPE   H5Y 6283   1.238   0.495   9.830  1.3158 -0.5620 -1.5902
   49DOPE   C36 6284   1.272   0.661   9.974 -0.3482  0.5668  0.3616
   49DOPE   H6X 6285   1.171   0.701   9.998 -0.4676  0.8226 -0.5408
   49DOPE   H6Y 6286   1.337   0.751   9.974 -0.2131  0.4690  0.5821
   49DOPE   C37 6287   1.326   0.548  10.069  0.3673  0.7047  0.3748
   49DOPE   H7X 6288   1.411   0.500  10.015  0.3164 -0.2943  1.1541
   49DOPE   H7Y 6289   1.385   0.595  10.151  0.5935 -0.1619  0.7235
   49DOPE   C38 6290   1.230   0.441  10.121 -0.7178  0.4722  0.7443
   49DOPE   H8X 6291   1.301   0.364  10.159 -1.3234 -0.9121 -0.7873
   49DOPE   H8Y 6292   1.179   0.393  10.035 -1.7784 -0.1955  1.7088
   49DOPE   C39 6293   1.130   0.492  10.221  0.2467  0.2136 -0.1405
   49DOPE   H9X 6294   1.045   0.543  10.173 -1.0987 -0.3881  1.5062
   49DOPE  C310 6295   1.137   0.493  10.352  0.0242 -0.2880  0.0779
   49DOPE  H10X 6296   1.063   0.554  10.407 -0.2707 -0.0181 -0.6123
   49DOPE  C311 6297   1.256   0.436  10.428  0.0586 -0.1011 -0.2263
   49DOPE  H11X 6298   1.214   0.349  10.482  1.1078 -0.2274  0.4216
   49DOPE  H11Y 6299   1.336   0.404  10.359 -0.6409 -2.6762  0.0600
   49DOPE  C312 6300   1.310   0.549  10.521  0.7734 -0.3914 -0.3839
   49DOPE  H12X 6301   1.227   0.584  10.585 -0.6662  0.3958 -2.5682
   49DOPE  H12Y 6302   1.339   0.637  10.461  1.0573 -0.0748  0.2066
   49DOPE  C313 6303   1.428   0.488  10.606  0.3252  1.2902  0.2468
   49DOPE  H13X 6304   1.481   0.406  10.553  0.3447  1.3528  0.1701
   49DOPE  H13Y 6305   1.503   0.565  10.635  0.1129  1.6330 -0.0989
   49DOPE  C314 6306   1.373   0.425  10.736 -0.7310  0.5847 -0.1112
   49DOPE  H14X 6307   1.310   0.336  10.713 -0.4253  0.1949  0.5299
   49DOPE  H14Y 6308   1.306   0.504  10.776 -1.0441  0.5960 -0.6431
   49DOPE  C315 6309   1.487   0.382  10.832 -0.4461 -0.6534  0.1401
   49DOPE  H15X 6310   1.550   0.468  10.860  1.7936 -2.5864  1.3584
   49DOPE  H15Y 6311   1.537   0.298  10.779 -1.4428  0.5083 -2.8645
   49DOPE  C316 6312   1.442   0.340  10.973 -0.3912 -0.3340  0.0826
   49DOPE  H16X 6313   1.420   0.231  10.972 -0.9308 -0.2207 -0.7135
   49DOPE  H16Y 6314   1.354   0.402  11.001  0.2288  1.0891 -0.9952
   49DOPE  C317 6315   1.556   0.343  11.076  0.2900 -1.0787 -0.1310
   49DOPE  H17X 6316   1.649   0.289  11.046  0.0476 -1.0393 -0.9780
   49DOPE  H17Y 6317   1.581   0.451  11.091 -1.7699 -0.5258 -0.4230
   49DOPE  C318 6318   1.511   0.301  11.214 -0.1369 -0.7235 -0.3432
   49DOPE  H18X 6319   1.596   0.296  11.284  1.4759  2.2631 -1.8996
   49DOPE  H18Y 6320   1.449   0.385  11.251  1.2599  0.0656  0.2930
   49DOPE  H18Z 6321   1.451   0.207  11.215 -0.6774 -0.3821 -0.0817
   50DOPE     N 6322   1.184   4.795   8.813  0.0461 -0.1916 -0.0781
   50DOPE   HN1 6323   1.198   4.897   8.815 -1.4912  0.0661 -0.6557
   50DOPE   HN2 6324   1.277   4.750   8.801  1.6308  2.7260  0.5788
   50DOPE   HN3 6325   1.118   4.783   8.733 -1.3185  0.7351  0.8689
   50DOPE   C12 6326   1.126   4.761   8.949 -0.4786  0.5685  0.0962
   50DOPE  H12A 6327   1.106   4.652   8.953 -0.6590  0.6043  0.1526
   50DOPE  H12B 6328   1.036   4.826   8.954 -0.2455  1.2824 -3.1841
   50DOPE   C11 6329   1.213   4.791   9.067  0.4018 -0.1893 -0.2260
   50DOPE  H11A 6330   1.175   4.735   9.155  0.3409  0.3364  0.0858
   50DOPE  H11B 6331   1.197   4.899   9.087  0.2341 -0.5383  1.6407
   50DOPE     P 6332   1.461   4.870   9.046  0.5130  0.0639 -0.1256
   50DOPE   O13 6333   1.445   4.953   8.921 -0.3146  0.2404 -0.0498
   50DOPE   O14 6334   1.595   4.813   9.065  0.8335 -0.1403 -0.4660
   50DOPE   O11 6335   1.416   4.959   9.168 -0.1478  0.2771  0.1365
   50DOPE   O12 6336   1.352   4.756   9.045 -0.0681  0.6966  0.3577
   50DOPE    C1 6337   1.412   4.900   9.300  0.5688 -0.3668 -0.4304
   50DOPE    HA 6338   1.518   4.885   9.329  1.1158  0.2453 -1.9801
   50DOPE    HB 6339   1.363   4.801   9.300 -1.2307  0.4695  0.5802
   50DOPE    C2 6340   1.358   4.998   9.407 -0.1093  0.2291  0.3840
   50DOPE    HS 6341   1.429   5.084   9.410 -0.4175  0.5332 -0.5649
   50DOPE   O21 6342   1.342   4.937   9.537  0.4453 -0.1442 -0.0594
   50DOPE   C21 6343   1.396   5.003   9.640 -0.1306 -0.3913  0.1542
   50DOPE   O22 6344   1.470   5.099   9.632 -0.5193  0.3412  0.0976
   50DOPE   C22 6345   1.377   4.927   9.769 -0.4287  0.3580 -0.3941
   50DOPE   H2R 6346   1.361   4.822   9.735  2.0434  0.2031 -1.3156
   50DOPE   H2S 6347   1.288   4.959   9.827 -0.7900  0.6734 -1.1103
   50DOPE    C3 6348   1.218   5.040   9.373 -0.4182 -0.1189 -0.1674
   50DOPE    HX 6349   1.147   4.959   9.398  0.9013 -1.1371  0.4162
   50DOPE    HY 6350   1.208   5.076   9.268  0.6463 -2.2739 -1.0792
   50DOPE   O31 6351   1.172   5.141   9.460  0.3808 -0.6428  0.1447
   50DOPE   C31 6352   1.047   5.179   9.452  0.5897 -0.7476 -0.2225
   50DOPE   O32 6353   0.960   5.126   9.380  0.1220 -0.6835 -0.6235
   50DOPE   C32 6354   1.021   5.290   9.558 -0.0748 -0.1928 -0.4751
   50DOPE   H2X 6355   1.114   5.294   9.619 -1.4081  2.4817  1.5809
   50DOPE   H2Y 6356   1.011   5.380   9.495  0.5365  0.3054  0.1275
   50DOPE   C23 6357   1.513   4.925   9.848  1.1154 -0.6596  0.3044
   50DOPE   H3R 6358   1.548   5.030   9.844 -0.1731 -0.2474 -2.0113
   50DOPE   H3S 6359   1.581   4.863   9.784 -0.2307  0.2387 -2.1473
   50DOPE   C24 6360   1.480   4.876   9.992 -0.6734  0.5299 -0.0073
   50DOPE   H4R 6361   1.402   4.797  10.002 -0.3440  0.3674  1.6290
   50DOPE   H4S 6362   1.448   4.964  10.052  1.1226  1.7655 -0.7903
   50DOPE   C25 6363   1.601   4.818  10.061  0.6719  0.8829 -0.5994
   50DOPE   H5R 6364   1.664   4.910  10.058 -2.0746  2.8636 -1.5554
   50DOPE   H5S 6365   1.643   4.732  10.004 -2.4183 -1.8290  0.9135
   50DOPE   C26 6366   1.572   4.776  10.209  0.6232 -0.0870 -0.1494
   50DOPE   H6R 6367   1.541   4.669  10.209  1.5306 -0.3686  1.0435
   50DOPE   H6S 6368   1.479   4.825  10.247 -0.9408 -0.2421 -3.3965
   50DOPE   C27 6369   1.686   4.808  10.305  0.2328 -0.2985 -0.0238
   50DOPE   H7R 6370   1.725   4.907  10.274 -2.6973  0.5294 -1.4451
   50DOPE   H7S 6371   1.769   4.735  10.293  3.5386  3.3962 -1.5161
   50DOPE   C28 6372   1.652   4.817  10.451  0.6081  0.5514  0.1119
   50DOPE   H8R 6373   1.593   4.911  10.458 -0.4534 -0.0617 -0.3499
   50DOPE   H8S 6374   1.747   4.824  10.507 -0.1355 -3.0038  2.1038
   50DOPE   C29 6375   1.578   4.695  10.504 -0.6337  0.7895  0.6083
   50DOPE   H9R 6376   1.493   4.661  10.442  0.1396 -0.7687  0.3665
   50DOPE  C210 6377   1.619   4.623  10.615  0.0830 -0.5201 -0.1095
   50DOPE  H10R 6378   1.557   4.541  10.654 -1.0039  0.4096  0.1629
   50DOPE  C211 6379   1.739   4.652  10.708  0.3603  0.3442 -0.4375
   50DOPE  H11R 6380   1.834   4.643  10.651  1.3549 -0.5283  1.2753
   50DOPE  H11S 6381   1.736   4.566  10.779 -0.4704  2.0672  1.7402
   50DOPE  C212 6382   1.742   4.784  10.786 -0.2007 -0.3029 -0.5348
   50DOPE  H12R 6383   1.738   4.873  10.720  0.5937  1.3027  1.4701
   50DOPE  H12S 6384   1.833   4.792  10.849 -0.7300 -0.4809  0.2623
   50DOPE  C213 6385   1.634   4.801  10.892  0.4916  0.1857  0.0257
   50DOPE  H13R 6386   1.643   4.714  10.960  2.8461  1.0344  0.8947
   50DOPE  H13S 6387   1.531   4.794  10.851  0.5873 -2.3685  0.1127
   50DOPE  C214 6388   1.668   4.917  10.987  0.2214  0.3635  0.9814
   50DOPE  H14R 6389   1.689   5.005  10.922  0.3541 -1.0169 -0.9236
   50DOPE  H14S 6390   1.758   4.875  11.036  1.7066  0.2910 -1.6551
   50DOPE  C215 6391   1.551   4.982  11.061  0.3081  1.0508 -0.6091
   50DOPE  H15R 6392   1.490   4.904  11.111 -0.6902  2.5921  0.6862
   50DOPE  H15S 6393   1.481   5.034  10.992 -0.2601 -0.3981 -1.1408
   50DOPE  C216 6394   1.586   5.092  11.167 -0.5276  0.2231  0.2507
   50DOPE  H16R 6395   1.664   5.043  11.228  0.9886  1.7423 -0.3705
   50DOPE  H16S 6396   1.499   5.119  11.230 -0.0617 -1.6000  1.7450
   50DOPE  C217 6397   1.645   5.227  11.113 -0.4180  0.1680  0.5055
   50DOPE  H17R 6398   1.737   5.199  11.057 -0.5605 -1.1998  0.8993
   50DOPE  H17S 6399   1.675   5.293  11.197  0.2298  1.0028 -0.3625
   50DOPE  C218 6400   1.548   5.301  11.027 -0.0239  0.2652 -0.5226
   50DOPE  H18R 6401   1.459   5.311  11.094  1.3440  1.6360  1.1964
   50DOPE  H18S 6402   1.514   5.236  10.944  2.4844 -2.2227  0.2307
   50DOPE  H18T 6403   1.588   5.398  10.991 -0.3198  0.1386 -1.2065
   50DOPE   C33 6404   0.902   5.253   9.646 -0.3566 -0.4345 -0.4753
   50DOPE   H3X 6405   0.823   5.226   9.572 -1.5431 -1.9888  1.2856
   50DOPE   H3Y 6406   0.852   5.337   9.698 -2.8614 -2.9016  1.3926
   50DOPE   C34 6407   0.921   5.145   9.753 -0.6822 -0.4621 -0.3086
   50DOPE   H4X 6408   1.029   5.128   9.772 -0.7774  0.6954  1.6031
   50DOPE   H4Y 6409   0.886   5.195   9.846  0.4462  0.8840 -0.5720
   50DOPE   C35 6410   0.840   5.017   9.745 -0.4262 -0.3268  0.3324
   50DOPE   H5X 6411   0.866   4.943   9.666 -2.3585 -1.0805  0.3791
   50DOPE   H5Y 6412   0.733   5.041   9.727 -0.4149 -0.7542 -0.3621
   50DOPE   C36 6413   0.856   4.943   9.875  0.3006 -0.2308  0.2961
   50DOPE   H6X 6414   0.847   5.013   9.960  1.5390  1.0877 -0.6007
   50DOPE   H6Y 6415   0.959   4.902   9.873  0.7037  0.7688 -1.0579
   50DOPE   C37 6416   0.751   4.830   9.875  0.2760  0.2919  0.7137
   50DOPE   H7X 6417   0.655   4.879   9.904  0.1848 -0.0256  0.9453
   50DOPE   H7Y 6418   0.737   4.800   9.769  0.5496  1.3616  0.3540
   50DOPE   C38 6419   0.785   4.716   9.974  0.1331  0.0841  0.9755
   50DOPE   H8X 6420   0.793   4.764  10.074 -0.2273 -1.2012  1.6385
   50DOPE   H8Y 6421   0.881   4.670   9.941 -0.9265 -0.4068 -1.7140
   50DOPE   C39 6422   0.692   4.606   9.963  0.9097 -0.2987 -0.2441
   50DOPE   H9X 6423   0.675   4.573   9.859  0.5046  1.7442 -0.8653
   50DOPE  C310 6424   0.607   4.562  10.060 -0.0420  0.0487 -1.0368
   50DOPE  H10X 6425   0.530   4.490  10.029  0.0163  0.6169 -2.5779
   50DOPE  C311 6426   0.586   4.609  10.206  0.0394  0.1200  0.1745
   50DOPE  H11X 6427   0.609   4.717  10.202  0.9320 -0.1010 -1.1265
   50DOPE  H11Y 6428   0.479   4.602  10.235 -0.0797 -0.1910 -0.3302
   50DOPE  C312 6429   0.677   4.530  10.294 -0.0797  0.0707 -0.7107
   50DOPE  H12X 6430   0.784   4.533  10.262  1.3182 -0.5214  3.2997
   50DOPE  H12Y 6431   0.653   4.422  10.301  0.3968 -0.0608 -1.0500
   50DOPE  C313 6432   0.678   4.580  10.439 -0.1162 -0.3352  0.1475
   50DOPE  H13X 6433   0.779   4.565  10.482 -0.4043  0.0113  0.9569
   50DOPE  H13Y 6434   0.661   4.690  10.442 -1.8025 -0.5442 -0.6387
   50DOPE  C314 6435   0.579   4.522  10.529  0.4762 -0.4641 -0.3931
   50DOPE  H14X 6436   0.634   4.441  10.582 -0.1086 -0.7456 -0.2035
   50DOPE  H14Y 6437   0.488   4.482  10.479 -0.1390  2.0955 -1.4581
   50DOPE  C315 6438   0.520   4.613  10.644  0.0528  0.9867 -0.4310
   50DOPE  H15X 6439   0.439   4.562  10.700 -1.0101  1.2054 -1.7105
   50DOPE  H15Y 6440   0.479   4.708  10.602 -0.0706  0.4463 -1.5739
   50DOPE  C316 6441   0.621   4.646  10.752  0.1152  0.5339  0.5381
   50DOPE  H16X 6442   0.569   4.683  10.843 -0.1771 -0.4814  0.7946
   50DOPE  H16Y 6443   0.678   4.737  10.722 -0.1028  1.0564  1.6611
   50DOPE  C317 6444   0.714   4.544  10.814 -0.1363 -0.1748 -0.2944
   50DOPE  H17X 6445   0.776   4.500  10.734 -1.9615 -1.3259 -1.1319
   50DOPE  H17Y 6446   0.787   4.589  10.885  2.3756 -0.2496 -2.6744
   50DOPE  C318 6447   0.650   4.428  10.877 -0.6069  0.0995 -0.8786
   50DOPE  H18X 6448   0.593   4.367  10.803  1.7881 -1.3769 -1.5986
   50DOPE  H18Y 6449   0.731   4.356  10.899 -0.4506  0.8477  1.2703
   50DOPE  H18Z 6450   0.589   4.445  10.969  0.3251 -0.0510 -0.2183
   51DOPE     N 6451   2.938   0.973   8.735  0.1304 -0.0767 -0.1870
   51DOPE   HN1 6452   2.845   0.947   8.776  0.8452 -0.7953  1.0623
   51DOPE   HN2 6453   2.930   1.034   8.651  2.1968  1.3514  0.5732
   51DOPE   HN3 6454   2.971   0.882   8.697 -1.1408 -0.9016  0.5751
   51DOPE   C12 6455   3.034   1.030   8.836  0.0990  0.1533  0.0764
   51DOPE  H12A 6456   3.012   0.966   8.924 -2.7176  0.1850 -0.5130
   51DOPE  H12B 6457   3.007   1.136   8.854 -0.5772  0.3750 -1.9327
   51DOPE   C11 6458   3.176   1.025   8.792 -0.5385  0.1109 -0.0435
   51DOPE  H11A 6459   3.216   0.922   8.777  0.4804  0.3954  0.6255
   51DOPE  H11B 6460   3.237   1.055   8.880 -0.9977 -0.1120  0.3565
   51DOPE     P 6461   3.326   1.102   8.597 -0.3111 -0.3782 -0.1004
   51DOPE   O13 6462   3.339   1.217   8.506  0.8701  0.2821 -0.0037
   51DOPE   O14 6463   3.312   0.974   8.530 -0.3433 -0.1426 -0.2327
   51DOPE   O11 6464   3.448   1.087   8.705  0.0947  0.1611 -0.5087
   51DOPE   O12 6465   3.200   1.119   8.687 -0.4430  0.0762 -0.0991
   51DOPE    C1 6466   3.478   1.213   8.766  0.1522 -0.1071  0.2590
   51DOPE    HA 6467   3.390   1.268   8.806  0.7389  0.9627  0.1109
   51DOPE    HB 6468   3.546   1.268   8.698 -0.7878 -1.6356 -2.0543
   51DOPE    C2 6469   3.557   1.188   8.896  0.7577  0.5632  0.4268
   51DOPE    HS 6470   3.653   1.146   8.857  0.4881 -0.7936  1.1671
   51DOPE   O21 6471   3.490   1.100   8.988 -0.0644 -0.1078 -0.2971
   51DOPE   C21 6472   3.556   0.989   9.011 -0.5079 -0.1490 -0.3393
   51DOPE   O22 6473   3.675   0.972   8.986 -0.6221  0.6201 -0.1906
   51DOPE   C22 6474   3.473   0.892   9.093 -0.0393 -0.4869 -0.1185
   51DOPE   H2R 6475   3.404   0.838   9.024  0.4388  0.8859 -1.7527
   51DOPE   H2S 6476   3.413   0.940   9.173 -1.0014  0.4685 -1.3603
   51DOPE    C3 6477   3.586   1.326   8.971 -0.2129 -0.9117 -0.2451
   51DOPE    HX 6478   3.485   1.367   8.994  0.5858  1.5011 -0.7322
   51DOPE    HY 6479   3.641   1.406   8.916  2.4806 -1.3885  1.5561
   51DOPE   O31 6480   3.650   1.310   9.105  0.0921  0.2243  0.0634
   51DOPE   C31 6481   3.774   1.284   9.101 -0.6313  0.0770  0.9200
   51DOPE   O32 6482   3.845   1.276   9.003 -0.0913 -0.4280  0.2501
   51DOPE   C32 6483   3.829   1.254   9.243 -0.6125 -0.5097  0.5246
   51DOPE   H2X 6484   3.856   1.146   9.233  0.3568 -0.1784 -0.7812
   51DOPE   H2Y 6485   3.924   1.311   9.249 -0.7601 -0.4536  3.1186
   51DOPE   C23 6486   3.560   0.792   9.175  0.5806 -0.5656  0.3170
   51DOPE   H3R 6487   3.628   0.834   9.251  2.0390 -0.2887 -1.0784
   51DOPE   H3S 6488   3.635   0.751   9.104 -0.4124 -0.2115 -0.9881
   51DOPE   C24 6489   3.474   0.677   9.241  0.1723 -0.0513  1.3157
   51DOPE   H4R 6490   3.418   0.624   9.161  0.5844 -0.1170  1.0674
   51DOPE   H4S 6491   3.397   0.728   9.302  1.2040  0.2666  2.3793
   51DOPE   C25 6492   3.554   0.567   9.320  0.5763 -0.3647 -0.1191
   51DOPE   H5R 6493   3.632   0.531   9.249 -0.4806  0.9779 -2.0556
   51DOPE   H5S 6494   3.487   0.478   9.329  0.7013 -0.5897 -1.2458
   51DOPE   C26 6495   3.601   0.608   9.466  0.0375  0.1242  0.1997
   51DOPE   H6R 6496   3.649   0.708   9.458 -0.1836  0.1422 -1.2383
   51DOPE   H6S 6497   3.670   0.535   9.512 -2.1295 -1.8093  0.5338
   51DOPE   C27 6498   3.490   0.632   9.573  0.3469  0.1689 -0.0645
   51DOPE   H7R 6499   3.422   0.545   9.574  0.4633  0.0766 -0.1802
   51DOPE   H7S 6500   3.432   0.722   9.546  1.6964  1.2688  0.5487
   51DOPE   C28 6501   3.535   0.662   9.716 -0.6256  0.6973  0.2441
   51DOPE   H8R 6502   3.591   0.757   9.713 -0.3427  0.5477  0.6821
   51DOPE   H8S 6503   3.605   0.577   9.737 -1.6758 -0.1047  0.5880
   51DOPE   C29 6504   3.420   0.671   9.809 -0.2943 -0.4895  0.1702
   51DOPE   H9R 6505   3.322   0.697   9.765  0.8185  0.3277 -1.9945
   51DOPE  C210 6506   3.433   0.644   9.944  0.4863 -0.6645 -0.5551
   51DOPE  H10R 6507   3.342   0.655  10.006  0.0320 -1.0321 -1.1420
   51DOPE  C211 6508   3.548   0.593  10.026 -0.8578 -1.0973  0.0033
   51DOPE  H11R 6509   3.626   0.673  10.030  1.5849 -2.9908 -3.8894
   51DOPE  H11S 6510   3.604   0.510   9.978  1.4680  0.8679 -0.9359
   51DOPE  C212 6511   3.503   0.567  10.167 -0.2659  0.8303  0.2187
   51DOPE  H12R 6512   3.579   0.504  10.219 -2.0520 -0.1086  1.8203
   51DOPE  H12S 6513   3.406   0.514  10.178  0.4996 -0.7503 -0.4014
   51DOPE  C213 6514   3.492   0.684  10.268  0.1143 -0.1566 -0.2135
   51DOPE  H13R 6515   3.419   0.757  10.228 -0.3007 -0.3712  0.1401
   51DOPE  H13S 6516   3.595   0.726  10.270 -0.2363  0.8099  2.6523
   51DOPE  C214 6517   3.451   0.643  10.416 -0.4022  0.5621 -0.3579
   51DOPE  H14R 6518   3.394   0.548  10.407 -1.2544  0.8621  1.4245
   51DOPE  H14S 6519   3.394   0.718  10.475 -0.3597 -1.3512  2.2868
   51DOPE  C215 6520   3.578   0.602  10.493  0.7297 -0.5002  0.8972
   51DOPE  H15R 6521   3.631   0.699  10.508  0.3315 -0.2353  0.6101
   51DOPE  H15S 6522   3.642   0.546  10.422 -0.6019 -0.3049 -0.5050
   51DOPE  C216 6523   3.541   0.535  10.623  0.3209 -0.4699 -0.4876
   51DOPE  H16R 6524   3.480   0.443  10.606 -1.3114  0.6049 -0.6519
   51DOPE  H16S 6525   3.483   0.611  10.679  1.5298  1.3080 -1.5594
   51DOPE  C217 6526   3.669   0.514  10.708  0.1098 -0.0050 -0.5762
   51DOPE  H17R 6527   3.641   0.525  10.815 -0.1160 -2.1626 -0.3749
   51DOPE  H17S 6528   3.758   0.578  10.688  1.4411 -1.6425 -0.0961
   51DOPE  C218 6529   3.736   0.381  10.679 -0.4696  0.1951 -0.0444
   51DOPE  H18R 6530   3.831   0.367  10.736 -0.8811 -0.4416  0.4972
   51DOPE  H18S 6531   3.752   0.364  10.571  1.0244  1.4103 -0.0618
   51DOPE  H18T 6532   3.666   0.308  10.726  0.1349 -1.0969 -1.0876
   51DOPE   C33 6533   3.725   1.285   9.357  0.0912  0.3556 -0.0591
   51DOPE   H3X 6534   3.632   1.226   9.344  0.9357 -0.5050 -3.2525
   51DOPE   H3Y 6535   3.694   1.392   9.358 -2.6435 -0.2991  3.4448
   51DOPE   C34 6536   3.787   1.243   9.488 -0.2008  0.5980  0.8443
   51DOPE   H4X 6537   3.793   1.132   9.491 -0.2599  0.6111  2.1003
   51DOPE   H4Y 6538   3.892   1.279   9.488 -0.9483  3.0339 -0.5204
   51DOPE   C35 6539   3.707   1.291   9.603  0.1779  0.1380  0.0165
   51DOPE   H5X 6540   3.603   1.258   9.583  0.6729 -0.4911 -1.6782
   51DOPE   H5Y 6541   3.710   1.401   9.589  0.2921 -0.0106 -1.3000
   51DOPE   C36 6542   3.754   1.249   9.742 -0.4294  0.2514  0.0059
   51DOPE   H6X 6543   3.767   1.140   9.752 -0.4086  0.3239  0.8518
   51DOPE   H6Y 6544   3.684   1.279   9.823 -0.3296  0.9220 -0.1487
   51DOPE   C37 6545   3.878   1.328   9.781  0.0822 -0.4815  0.5337
   51DOPE   H7X 6546   3.960   1.291   9.717  1.1146  1.7064  0.5109
   51DOPE   H7Y 6547   3.854   1.428   9.738 -2.8722 -0.7762  1.2640
   51DOPE   C38 6548   3.905   1.329   9.934  0.0655  0.8812  0.0655
   51DOPE   H8X 6549   3.843   1.404   9.988 -0.1266  0.1653  0.8574
   51DOPE   H8Y 6550   4.009   1.360   9.955  0.6909 -0.4914 -0.8610
   51DOPE   C39 6551   3.904   1.190   9.990 -1.0528  0.4644 -0.0041
   51DOPE   H9X 6552   3.966   1.116   9.937  1.8484  1.0933  2.2489
   51DOPE  C310 6553   3.849   1.141  10.101  0.4842 -0.0412  0.2774
   51DOPE  H10X 6554   3.840   1.032  10.104 -0.5955  0.0635  1.5838
   51DOPE  C311 6555   3.774   1.210  10.214 -0.2387  0.2917 -0.2126
   51DOPE  H11X 6556   3.724   1.297  10.166 -0.8178  0.3355  0.4424
   51DOPE  H11Y 6557   3.690   1.142  10.239  1.2282 -2.0841 -1.4335
   51DOPE  C312 6558   3.845   1.257  10.339 -0.5224 -0.4340  0.3455
   51DOPE  H12X 6559   3.931   1.189  10.362  0.5724  0.9201  0.3739
   51DOPE  H12Y 6560   3.770   1.261  10.420 -0.6335 -1.3949  0.3040
   51DOPE  C313 6561   3.908   1.400  10.327 -0.5849  0.0676  0.1101
   51DOPE  H13X 6562   3.962   1.414  10.423  0.8844  0.0236 -0.6810
   51DOPE  H13Y 6563   3.981   1.403  10.243  1.1744 -2.0185  1.4662
   51DOPE  C314 6564   3.813   1.516  10.313  0.6208 -0.3353 -1.1242
   51DOPE  H14X 6565   3.775   1.494  10.211  1.5595 -0.3510 -1.4885
   51DOPE  H14Y 6566   3.869   1.611  10.300 -0.7581  0.4236 -1.7530
   51DOPE  C315 6567   3.705   1.532  10.412  0.0211 -0.0396 -0.3475
   51DOPE  H15X 6568   3.622   1.462  10.386 -0.8142  1.0692 -0.7514
   51DOPE  H15Y 6569   3.656   1.627  10.382 -0.9947  0.2730  2.0564
   51DOPE  C316 6570   3.742   1.536  10.562 -0.7198  0.2003  0.6646
   51DOPE  H16X 6571   3.824   1.607  10.585  0.8749 -1.9703  2.0470
   51DOPE  H16Y 6572   3.788   1.439  10.592 -1.1563  0.1278  1.1005
   51DOPE  C317 6573   3.637   1.566  10.660 -0.6324  0.2739  0.3470
   51DOPE  H17X 6574   3.560   1.490  10.632 -1.0079 -0.1883  2.4725
   51DOPE  H17Y 6575   3.660   1.533  10.763 -1.1984 -0.0175  0.3840
   51DOPE  C318 6576   3.579   1.705  10.656 -0.1049  0.3189 -0.2236
   51DOPE  H18X 6577   3.665   1.770  10.683  1.7541 -1.7119 -0.9943
   51DOPE  H18Y 6578   3.554   1.732  10.551  2.0446 -0.0337 -0.8692
   51DOPE  H18Z 6579   3.494   1.730  10.724 -1.0244 -0.7585 -0.9468
   52DOPE     N 6580   0.663   4.769   9.181 -0.3385  0.1200 -0.3540
   52DOPE   HN1 6581   0.640   4.745   9.280 -0.2182 -3.5357 -1.0710
   52DOPE   HN2 6582   0.724   4.691   9.149 -0.7492 -0.3537  0.0032
   52DOPE   HN3 6583   0.719   4.857   9.191 -1.8035  1.0450  0.0260
   52DOPE   C12 6584   0.538   4.800   9.108 -0.0841 -0.2551 -0.7907
   52DOPE  H12A 6585   0.477   4.708   9.114 -0.1163 -0.1625  3.1375
   52DOPE  H12B 6586   0.566   4.829   9.004 -0.1605  2.0045 -0.2415
   52DOPE   C11 6587   0.458   4.910   9.173 -0.5588 -0.7027  0.7776
   52DOPE  H11A 6588   0.415   4.891   9.274 -0.7548 -1.0430  0.6310
   52DOPE  H11B 6589   0.375   4.928   9.102  0.0559  1.3410  0.4995
   52DOPE     P 6590   0.532   5.151   9.103 -0.1914 -0.2524  0.4201
   52DOPE   O13 6591   0.500   5.116   8.964 -0.2698  0.0241 -0.1166
   52DOPE   O14 6592   0.643   5.243   9.129  0.0769  0.0338 -0.7199
   52DOPE   O11 6593   0.408   5.221   9.161  0.0393  0.4301 -0.2563
   52DOPE   O12 6594   0.544   5.025   9.192  0.1173 -0.1563  0.0711
   52DOPE    C1 6595   0.414   5.326   9.257  0.2657  0.1421 -0.2388
   52DOPE    HA 6596   0.310   5.364   9.268 -0.0108 -0.7732  0.4698
   52DOPE    HB 6597   0.482   5.405   9.219 -0.1306  1.0020  0.7793
   52DOPE    C2 6598   0.459   5.268   9.401 -0.3527 -0.0546  0.0919
   52DOPE    HS 6599   0.568   5.250   9.389 -0.3007  1.0275 -1.3042
   52DOPE   O21 6600   0.380   5.149   9.416  0.0083  0.1952  0.3560
   52DOPE   C21 6601   0.437   5.059   9.497 -0.8416  0.1431  0.0022
   52DOPE   O22 6602   0.553   5.066   9.542 -0.3967 -0.0967 -0.0144
   52DOPE   C22 6603   0.326   4.967   9.552 -0.5528  0.1184 -0.4707
   52DOPE   H2R 6604   0.297   4.888   9.479 -2.8782  0.1746  0.3019
   52DOPE   H2S 6605   0.236   5.026   9.579  0.5403  2.3015 -1.3462
   52DOPE    C3 6606   0.438   5.382   9.505  0.2235  0.0746 -0.2716
   52DOPE    HX 6607   0.329   5.397   9.522  0.0216 -1.7534  0.1763
   52DOPE    HY 6608   0.480   5.478   9.467  0.5406  0.1910  0.3675
   52DOPE   O31 6609   0.513   5.349   9.625  0.0496  0.1704 -0.6375
   52DOPE   C31 6610   0.436   5.319   9.732 -0.1373 -0.2292  0.0469
   52DOPE   O32 6611   0.316   5.297   9.733  0.3510 -0.1921  0.1811
   52DOPE   C32 6612   0.524   5.324   9.861 -0.1194 -0.7252  0.8887
   52DOPE   H2X 6613   0.623   5.277   9.846  0.5428  0.7438  0.5066
   52DOPE   H2Y 6614   0.541   5.429   9.891 -2.3195 -0.0426 -0.0451
   52DOPE   C23 6615   0.368   4.896   9.685 -0.1952 -0.9279 -0.2757
   52DOPE   H3R 6616   0.413   4.976   9.747  0.1595 -1.6208  0.3792
   52DOPE   H3S 6617   0.449   4.821   9.672  2.2137  1.3956  0.4659
   52DOPE   C24 6618   0.257   4.831   9.772 -0.3272 -0.2743 -0.8116
   52DOPE   H4R 6619   0.311   4.769   9.846 -0.3278  2.0187  1.2115
   52DOPE   H4S 6620   0.187   4.767   9.712 -2.2796  0.4293  0.6077
   52DOPE   C25 6621   0.175   4.940   9.842  0.1899  0.2126  0.1162
   52DOPE   H5R 6622   0.081   4.956   9.786  0.1987 -0.4392 -0.0875
   52DOPE   H5S 6623   0.213   5.045   9.842  1.3853 -0.1216  2.9931
   52DOPE   C26 6624   0.133   4.908   9.984 -0.5815 -0.2486  0.3246
   52DOPE   H6R 6625   0.070   4.817   9.975 -1.4376  0.4144 -0.7168
   52DOPE   H6S 6626   0.063   4.986  10.023 -0.9789 -1.1700  1.5098
   52DOPE   C27 6627   0.250   4.886  10.074  0.0414 -0.0597 -0.9098
   52DOPE   H7R 6628   0.278   4.992  10.092 -3.0226  0.5879  0.7326
   52DOPE   H7S 6629   0.334   4.832  10.025  1.5107  2.1208 -0.9316
   52DOPE   C28 6630   0.211   4.813  10.205 -0.4153  0.1490 -0.1657
   52DOPE   H8R 6631   0.112   4.842  10.247  0.5092 -0.1228  2.4347
   52DOPE   H8S 6632   0.287   4.833  10.284 -1.5401 -2.9975  1.9330
   52DOPE   C29 6633   0.221   4.668  10.187  0.0466 -0.3092  1.3361
   52DOPE   H9R 6634   0.246   4.630  10.087  0.5416  0.3998  1.1851
   52DOPE  C210 6635   0.208   4.579  10.292  0.7867 -0.3668  0.4916
   52DOPE  H10R 6636   0.180   4.474  10.270 -0.3926 -0.0424  0.3764
   52DOPE  C211 6637   0.191   4.608  10.437 -0.2644 -0.0680 -0.4094
   52DOPE  H11R 6638   0.204   4.716  10.459 -2.5097  0.0362  0.6598
   52DOPE  H11S 6639   0.272   4.551  10.486 -2.0127 -2.6130 -0.2736
   52DOPE  C212 6640   0.065   4.564  10.501  0.1099 -0.5335  0.1839
   52DOPE  H12R 6641   0.045   4.455  10.498  0.1891 -0.5933  1.1842
   52DOPE  H12S 6642  -0.016   4.611  10.443 -0.8517 -1.7459  0.4989
   52DOPE  C213 6643   0.049   4.614  10.645 -0.6945 -0.3226  0.3246
   52DOPE  H13R 6644   0.081   4.721  10.636  2.6484 -1.1312  1.2230
   52DOPE  H13S 6645   0.115   4.570  10.722 -1.0230  3.1094  2.7879
   52DOPE  C214 6646  -0.094   4.583  10.700  0.2188  0.9251  0.1502
   52DOPE  H14R 6647  -0.117   4.474  10.701 -0.8169  1.1263  1.1176
   52DOPE  H14S 6648  -0.158   4.612  10.614 -0.2351 -2.6475 -0.8828
   52DOPE  C215 6649  -0.137   4.641  10.829  0.4491 -0.2381  0.3391
   52DOPE  H15R 6650  -0.144   4.752  10.820  0.4410 -0.2568  0.1275
   52DOPE  H15S 6651  -0.067   4.623  10.913 -0.1734  1.1586  1.2065
   52DOPE  C216 6652  -0.277   4.593  10.877  0.0383 -0.1859 -0.1680
   52DOPE  H16R 6653  -0.260   4.483  10.889  3.4491  0.0863 -1.5013
   52DOPE  H16S 6654  -0.355   4.611  10.800 -1.5985  1.3147  1.7309
   52DOPE  C217 6655  -0.322   4.635  11.016 -0.2343  0.1122  0.2166
   52DOPE  H17R 6656  -0.337   4.745  11.012 -1.0381 -0.0066 -0.4568
   52DOPE  H17S 6657  -0.238   4.618  11.087 -1.1545 -0.7522  1.1256
   52DOPE  C218 6658  -0.445   4.573  11.073  0.9848  0.3454  0.5475
   52DOPE  H18R 6659  -0.477   4.624  11.166 -0.8868  2.4193 -1.0966
   52DOPE  H18S 6660  -0.525   4.597  11.000  0.8796  1.5376  1.0311
   52DOPE  H18T 6661  -0.427   4.466  11.096  0.0977  0.5226  2.1859
   52DOPE   C33 6662   0.453   5.258   9.980 -0.8046 -0.1750 -0.1358
   52DOPE   H3X 6663   0.419   5.154   9.959  0.5092 -0.5200 -0.6248
   52DOPE   H3Y 6664   0.362   5.313  10.013 -0.8136 -0.7398  0.8437
   52DOPE   C34 6665   0.551   5.254  10.102  0.2232 -0.0471  0.8423
   52DOPE   H4X 6666   0.632   5.179  10.089 -0.2005 -0.5404  1.0193
   52DOPE   H4Y 6667   0.600   5.353  10.109  0.4272 -0.1925  1.5732
   52DOPE   C35 6668   0.477   5.228  10.233  0.6971  0.8560  0.3415
   52DOPE   H5X 6669   0.430   5.127  10.223 -0.8408  1.5555  0.2589
   52DOPE   H5Y 6670   0.396   5.304  10.231 -0.7598 -0.6617 -0.6628
   52DOPE   C36 6671   0.557   5.236  10.363 -0.0196 -0.3120 -0.3997
   52DOPE   H6X 6672   0.628   5.322  10.363 -0.1457 -0.1309  2.2053
   52DOPE   H6Y 6673   0.616   5.146  10.393  0.3597 -0.4266 -1.4474
   52DOPE   C37 6674   0.466   5.259  10.485 -0.4883 -0.2677  0.7569
   52DOPE   H7X 6675   0.520   5.221  10.574 -0.9638  0.2150  1.2613
   52DOPE   H7Y 6676   0.441   5.366  10.505  0.6227  0.2378 -0.4111
   52DOPE   C38 6677   0.334   5.180  10.494  0.4686  0.0478 -0.0502
   52DOPE   H8X 6678   0.274   5.192  10.401  1.7130  0.1364 -0.8649
   52DOPE   H8Y 6679   0.276   5.238  10.569 -2.1877 -1.9251 -0.4205
   52DOPE   C39 6680   0.350   5.032  10.523  0.3916 -0.2747 -0.1036
   52DOPE   H9X 6681   0.400   4.973  10.444 -1.0642 -1.4699 -0.1718
   52DOPE  C310 6682   0.319   4.975  10.637 -0.1177  0.5410  1.0042
   52DOPE  H10X 6683   0.316   4.865  10.646 -3.9094  0.4031 -0.0495
   52DOPE  C311 6684   0.247   5.034  10.756  0.5611  0.6435  0.2591
   52DOPE  H11X 6685   0.253   5.145  10.760 -0.3005  0.6635  2.3393
   52DOPE  H11Y 6686   0.140   5.006  10.765  1.1524 -2.0586 -0.3094
   52DOPE  C312 6687   0.304   4.967  10.877 -0.7108  0.5074 -0.0923
   52DOPE  H12X 6688   0.271   5.023  10.967 -0.9177  0.5166 -0.1751
   52DOPE  H12Y 6689   0.414   4.982  10.871 -0.6429 -0.6095 -2.8195
   52DOPE  C313 6690   0.263   4.824  10.902  0.4834  0.5244  0.4933
   52DOPE  H13X 6691   0.152   4.817  10.896  0.5340 -1.3666  1.2378
   52DOPE  H13Y 6692   0.285   4.746  10.826 -1.2642  0.1818  0.2916
   52DOPE  C314 6693   0.322   4.778  11.041 -0.4443 -0.9388  0.4173
   52DOPE  H14X 6694   0.293   4.855  11.116 -0.7226 -0.5849 -0.0466
   52DOPE  H14Y 6695   0.433   4.782  11.040 -0.3715 -1.9639  1.5839
   52DOPE  C315 6696   0.277   4.646  11.083 -0.4008  0.3621  0.0567
   52DOPE  H15X 6697   0.303   4.560  11.017  2.3058 -0.9082  2.5201
   52DOPE  H15Y 6698   0.167   4.661  11.083 -0.3867  0.4580 -0.5629
   52DOPE  C316 6699   0.327   4.595  11.220  0.2557 -0.2170  0.4494
   52DOPE  H16X 6700   0.436   4.578  11.233  0.2901  0.3818  0.9847
   52DOPE  H16Y 6701   0.274   4.500  11.241  1.1414 -0.7691  0.2294
   52DOPE  C317 6702   0.278   4.681  11.339 -0.2208  0.4202 -0.2215
   52DOPE  H17X 6703   0.343   4.771  11.336 -1.7177  1.5192 -1.7145
   52DOPE  H17Y 6704   0.175   4.718  11.320 -2.0357 -2.8032  2.3801
   52DOPE  C318 6705   0.287   4.594  11.467  0.0320 -0.4511  0.3171
   52DOPE  H18X 6706   0.393   4.561  11.472  0.3810  0.5505 -0.2413
   52DOPE  H18Y 6707   0.244   4.647  11.555 -1.6119 -0.9880 -0.1310
   52DOPE  H18Z 6708   0.241   4.494  11.452 -0.7855 -0.1612  0.8149
   53DOPE     N 6709   5.087   0.420   8.643 -0.3454 -0.2845 -0.2517
   53DOPE   HN1 6710   5.009   0.407   8.575 -0.1819 -2.8834 -0.0414
   53DOPE   HN2 6711   5.149   0.495   8.607 -0.8233 -0.3160 -1.1697
   53DOPE   HN3 6712   5.151   0.339   8.645  1.9131  1.3376  3.3253
   53DOPE   C12 6713   5.038   0.425   8.787  0.0497 -0.4195 -0.1923
   53DOPE  H12A 6714   4.965   0.342   8.798 -0.0017 -0.3594 -0.0752
   53DOPE  H12B 6715   4.999   0.525   8.816 -1.4249 -1.1564  0.4483
   53DOPE   C11 6716   5.154   0.413   8.880  0.0190  0.6981 -1.1773
   53DOPE  H11A 6717   5.194   0.309   8.877 -2.0117 -0.1314 -1.0359
   53DOPE  H11B 6718   5.121   0.440   8.982  1.8308  1.1298 -0.6701
   53DOPE     P 6719   5.395   0.542   8.887  0.3767  0.2521  0.4543
   53DOPE   O13 6720   5.466   0.605   8.776  1.0601 -0.0093  0.2680
   53DOPE   O14 6721   5.464   0.426   8.949  0.4854  0.6529 -0.1136
   53DOPE   O11 6722   5.361   0.652   8.992  0.0781  0.0973 -0.0855
   53DOPE   O12 6723   5.254   0.500   8.834 -0.0695  0.0826  0.8534
   53DOPE    C1 6724   5.234   0.721   9.005  0.2407  0.5073 -0.1271
   53DOPE    HA 6725   5.158   0.640   9.004 -0.2642  0.9607  0.6419
   53DOPE    HB 6726   5.213   0.785   8.917  1.7209  1.8887  0.4547
   53DOPE    C2 6727   5.215   0.806   9.138  0.2319  0.2408 -0.2851
   53DOPE    HS 6728   5.295   0.884   9.136  0.4020  0.1112  0.9328
   53DOPE   O21 6729   5.242   0.719   9.258 -0.2729  0.1410  0.7781
   53DOPE   C21 6730   5.288   0.785   9.361 -0.1045 -0.0721 -0.4452
   53DOPE   O22 6731   5.342   0.892   9.361 -0.5028  0.5344  0.1684
   53DOPE   C22 6732   5.262   0.695   9.484 -0.1674 -0.2065  0.2228
   53DOPE   H2R 6733   5.356   0.641   9.508  0.3992 -0.2068 -1.7925
   53DOPE   H2S 6734   5.187   0.615   9.463  0.4620 -0.7755  0.1109
   53DOPE    C3 6735   5.079   0.882   9.155 -0.0632  0.6100  0.6420
   53DOPE    HX 6736   5.002   0.802   9.164 -0.9669  1.0612 -2.0722
   53DOPE    HY 6737   5.054   0.932   9.060  0.1554 -0.7879 -0.1836
   53DOPE   O31 6738   5.083   0.976   9.262 -0.4619  0.3674 -0.3371
   53DOPE   C31 6739   5.134   1.093   9.229  0.4403  0.0031 -0.1179
   53DOPE   O32 6740   5.187   1.122   9.127 -0.0816  0.3310 -0.0579
   53DOPE   C32 6741   5.116   1.191   9.350  0.1166 -0.9740  0.2802
   53DOPE   H2X 6742   5.187   1.275   9.335 -3.3382  2.1573  0.0588
   53DOPE   H2Y 6743   5.011   1.228   9.345 -0.5463 -2.8551 -0.4381
   53DOPE   C23 6744   5.210   0.770   9.605  0.1797 -0.4924  0.0006
   53DOPE   H3R 6745   5.102   0.793   9.593 -0.0259 -1.8502 -0.9584
   53DOPE   H3S 6746   5.265   0.866   9.607  1.4593 -1.0979 -2.3328
   53DOPE   C24 6747   5.232   0.698   9.739  0.4958  0.2110 -0.2986
   53DOPE   H4R 6748   5.336   0.705   9.776  0.6315 -2.6901  0.0816
   53DOPE   H4S 6749   5.221   0.588   9.734 -1.4617  0.2665  1.3592
   53DOPE   C25 6750   5.151   0.757   9.849 -0.0292 -0.5481  0.5056
   53DOPE   H5R 6751   5.051   0.708   9.850  0.7026 -2.2187 -1.4909
   53DOPE   H5S 6752   5.144   0.867   9.831  3.2456 -0.1109  1.3127
   53DOPE   C26 6753   5.215   0.742   9.983 -0.3453 -0.1745  0.4144
   53DOPE   H6R 6754   5.136   0.775  10.055  0.6724 -0.1936  1.5681
   53DOPE   H6S 6755   5.289   0.824   9.991 -1.6621  1.0646  0.4006
   53DOPE   C27 6756   5.271   0.607  10.031  0.0590 -0.0461 -0.1866
   53DOPE   H7R 6757   5.365   0.590   9.973 -1.5473 -2.9836 -2.2303
   53DOPE   H7S 6758   5.210   0.518  10.005  1.4101 -0.8269 -0.7630
   53DOPE   C28 6759   5.304   0.596  10.180 -0.9991  0.0356 -0.5852
   53DOPE   H8R 6760   5.338   0.493  10.203  0.5296  0.7702  0.6211
   53DOPE   H8S 6761   5.207   0.614  10.232 -1.9736 -1.7841 -1.6622
   53DOPE   C29 6762   5.388   0.712  10.231 -0.3060  0.0421 -0.3214
   53DOPE   H9R 6763   5.460   0.751  10.159 -0.0575 -1.2726 -0.8031
   53DOPE  C210 6764   5.384   0.780  10.353 -0.2573 -0.0164 -0.0234
   53DOPE  H10R 6765   5.470   0.844  10.379  0.7371 -1.5334  0.5497
   53DOPE  C211 6766   5.292   0.756  10.466 -0.4838  0.5311  0.3543
   53DOPE  H11R 6767   5.218   0.674  10.457  0.8819 -0.8980  1.5507
   53DOPE  H11S 6768   5.231   0.849  10.463  0.9398  1.5204  0.8211
   53DOPE  C212 6769   5.366   0.727  10.598  0.2298  0.1897 -0.2740
   53DOPE  H12R 6770   5.465   0.777  10.596 -0.9596  2.7911  1.1209
   53DOPE  H12S 6771   5.374   0.616  10.606 -1.0044  0.1879  2.1677
   53DOPE  C213 6772   5.287   0.772  10.721  0.1357  0.7455 -0.3354
   53DOPE  H13R 6773   5.179   0.753  10.704  0.0769  1.8703 -1.3079
   53DOPE  H13S 6774   5.307   0.879  10.744  0.3824  0.6522 -0.1121
   53DOPE  C214 6775   5.331   0.698  10.848 -0.1151 -0.1068  0.0407
   53DOPE  H14R 6776   5.426   0.737  10.892 -0.0588  0.7057 -0.7741
   53DOPE  H14S 6777   5.356   0.596  10.812  0.3510  0.5024 -1.4160
   53DOPE  C215 6778   5.225   0.681  10.959 -0.3760  0.1990  0.0618
   53DOPE  H15R 6779   5.152   0.604  10.926 -0.3326 -0.7976  2.1399
   53DOPE  H15S 6780   5.167   0.775  10.966 -0.1602  0.3053  0.4250
   53DOPE  C216 6781   5.278   0.655  11.100 -0.0418  0.1292  1.0435
   53DOPE  H16R 6782   5.195   0.637  11.172 -0.9541  0.2862  0.0612
   53DOPE  H16S 6783   5.342   0.743  11.117  0.3052  0.3290 -1.0497
   53DOPE  C217 6784   5.377   0.535  11.109 -0.3431 -0.4426  0.2449
   53DOPE  H17R 6785   5.463   0.527  11.039  0.9598 -0.5812  1.8140
   53DOPE  H17S 6786   5.319   0.442  11.093  0.2489 -0.7922  0.1285
   53DOPE  C218 6787   5.440   0.535  11.250 -0.0301  0.3015  0.8475
   53DOPE  H18R 6788   5.369   0.507  11.330 -0.2980 -1.4063  0.0584
   53DOPE  H18S 6789   5.494   0.629  11.272 -0.5537  1.4712 -2.4067
   53DOPE  H18T 6790   5.514   0.452  11.257  1.2936  1.5572  2.6241
   53DOPE   C33 6791   5.145   1.118   9.486 -0.0925  0.0769  0.1325
   53DOPE   H3X 6792   5.252   1.089   9.492 -0.0690  0.4192  1.6579
   53DOPE   H3Y 6793   5.080   1.028   9.498  0.0063 -0.1329 -0.7661
   53DOPE   C34 6794   5.125   1.208   9.604  1.3645 -0.4876  0.8236
   53DOPE   H4X 6795   5.176   1.307   9.599 -0.5345  0.5514  0.9461
   53DOPE   H4Y 6796   5.015   1.224   9.608  1.1037 -1.9213 -0.0302
   53DOPE   C35 6797   5.161   1.135   9.738  0.2421  0.8297 -0.2008
   53DOPE   H5X 6798   5.263   1.090   9.737 -0.4746 -0.9045  0.2159
   53DOPE   H5Y 6799   5.081   1.058   9.751  0.3163  0.7752 -0.0617
   53DOPE   C36 6800   5.147   1.237   9.854 -0.2043  0.5118 -0.0816
   53DOPE   H6X 6801   5.056   1.301   9.848 -1.1543 -0.4533  2.5473
   53DOPE   H6Y 6802   5.240   1.296   9.840  1.0028 -0.9778  1.2398
   53DOPE   C37 6803   5.152   1.161   9.991 -0.7594 -0.0712  0.1353
   53DOPE   H7X 6804   5.055   1.120  10.027  0.5331 -2.8151  0.7593
   53DOPE   H7Y 6805   5.218   1.073   9.981 -2.4774 -1.5620  1.3351
   53DOPE   C38 6806   5.194   1.255  10.104 -0.4846  0.0273  0.1261
   53DOPE   H8X 6807   5.299   1.287  10.087 -0.4327  0.6397  1.4910
   53DOPE   H8Y 6808   5.195   1.195  10.197  0.2718  2.7653  1.9906
   53DOPE   C39 6809   5.116   1.382  10.113 -0.6941  0.3062  0.3590
   53DOPE   H9X 6810   5.142   1.457  10.036 -1.1975 -0.4082 -0.5277
   53DOPE  C310 6811   5.027   1.414  10.214 -0.2146 -0.3600  0.5245
   53DOPE  H10X 6812   4.981   1.514  10.208  0.8060  0.0941 -0.0200
   53DOPE  C311 6813   4.981   1.340  10.333  0.7920  0.0486  0.0605
   53DOPE  H11X 6814   4.874   1.317  10.318  0.5347  0.3092  1.3701
   53DOPE  H11Y 6815   5.041   1.248  10.351  0.1979 -0.7617 -1.8578
   53DOPE  C312 6816   4.994   1.432  10.457  0.4773  0.2872  0.1872
   53DOPE  H12X 6817   4.901   1.491  10.467  0.6095  0.4982  0.1846
   53DOPE  H12Y 6818   5.080   1.502  10.449 -1.8697  3.3756  0.3067
   53DOPE  C313 6819   5.000   1.350  10.595 -0.1722 -0.3708 -0.2016
   53DOPE  H13X 6820   5.014   1.428  10.673  2.4781 -0.9565 -0.0087
   53DOPE  H13Y 6821   4.903   1.296  10.595 -0.0533 -0.5828 -0.2552
   53DOPE  C314 6822   5.109   1.242  10.598 -0.0816  0.2991  0.2256
   53DOPE  H14X 6823   5.206   1.288  10.568  1.5998 -1.7352  2.1723
   53DOPE  H14Y 6824   5.099   1.152  10.535  2.7568 -0.1243  0.2455
   53DOPE  C315 6825   5.127   1.177  10.739  0.2517  0.2315 -0.0909
   53DOPE  H15X 6826   5.201   1.095  10.728  1.6647  1.7808 -3.4194
   53DOPE  H15Y 6827   5.031   1.131  10.771  0.0071 -1.5809 -3.0391
   53DOPE  C316 6828   5.178   1.273  10.842  0.2140  0.0974  0.6140
   53DOPE  H16X 6829   5.096   1.340  10.876 -2.9209 -1.3581 -3.2689
   53DOPE  H16Y 6830   5.249   1.335  10.784 -1.0024 -0.3496 -1.4649
   53DOPE  C317 6831   5.240   1.197  10.956 -0.3934  0.2195  1.3650
   53DOPE  H17X 6832   5.177   1.114  10.994 -0.6526 -0.2237  0.0229
   53DOPE  H17Y 6833   5.331   1.150  10.913 -1.8937  0.8066 -2.8951
   53DOPE  C318 6834   5.279   1.287  11.079  0.2241  0.3821  0.1654
   53DOPE  H18X 6835   5.183   1.321  11.124  0.8811  0.2830  1.7194
   53DOPE  H18Y 6836   5.334   1.231  11.157 -1.2613 -3.0329 -1.0453
   53DOPE  H18Z 6837   5.318   1.387  11.051 -0.8155  1.1002  1.1755
   54DOPE     N 6838   0.926   3.721   9.222 -0.6424  0.2116  0.3266
   54DOPE   HN1 6839   0.974   3.705   9.314  0.7346  1.3205 -0.1661
   54DOPE   HN2 6840   0.945   3.642   9.157 -0.1737 -0.0400  0.7528
   54DOPE   HN3 6841   0.973   3.802   9.176 -0.8170  0.6822  0.9574
   54DOPE   C12 6842   0.785   3.751   9.241 -0.2712  0.8552 -0.6711
   54DOPE  H12A 6843   0.735   3.679   9.309  0.2148  0.9452 -0.2189
   54DOPE  H12B 6844   0.733   3.749   9.143 -0.3130 -0.5487 -0.6434
   54DOPE   C11 6845   0.777   3.889   9.302 -0.4013  0.3014 -0.3405
   54DOPE  H11A 6846   0.673   3.927   9.307 -0.7097 -0.6322  0.5826
   54DOPE  H11B 6847   0.826   3.963   9.235  0.3354  0.5362  0.4358
   54DOPE     P 6848   0.884   4.010   9.509 -0.1502  0.3711 -0.1314
   54DOPE   O13 6849   0.771   4.101   9.528 -0.3076 -0.1957 -0.0352
   54DOPE   O14 6850   0.994   4.057   9.424 -0.2078 -0.0848 -0.0191
   54DOPE   O11 6851   0.929   3.949   9.640  0.4385  0.1019  0.1629
   54DOPE   O12 6852   0.825   3.883   9.435 -0.1806  0.7316  0.6490
   54DOPE    C1 6853   0.959   3.816   9.671  0.1425  0.5524  0.3649
   54DOPE    HA 6854   1.067   3.810   9.698  0.3436 -0.6011 -0.6398
   54DOPE    HB 6855   0.941   3.745   9.588 -0.9309 -0.7463  1.6451
   54DOPE    C2 6856   0.879   3.769   9.796 -0.0013 -0.6624  0.4702
   54DOPE    HS 6857   0.774   3.764   9.759  0.1522  0.0144 -0.0960
   54DOPE   O21 6858   0.890   3.865   9.906 -0.0294 -0.1035  0.2504
   54DOPE   C21 6859   0.791   3.960   9.915  0.0751  0.2935  0.5840
   54DOPE   O22 6860   0.710   3.976   9.828 -0.8618  0.1320 -0.9466
   54DOPE   C22 6861   0.795   4.046  10.046  0.7267  0.2409  0.3171
   54DOPE   H2R 6862   0.793   3.978  10.134 -2.1515 -0.1579  0.0299
   54DOPE   H2S 6863   0.701   4.105  10.050  1.0927  1.1233 -2.2682
   54DOPE    C3 6864   0.927   3.622   9.842  0.3601  0.1156  0.5592
   54DOPE    HX 6865   1.030   3.626   9.883 -0.4404  0.0795  2.6907
   54DOPE    HY 6866   0.938   3.560   9.751  0.6015 -0.5669  1.0431
   54DOPE   O31 6867   0.844   3.572   9.951 -0.5385 -0.3161 -0.6092
   54DOPE   C31 6868   0.890   3.599  10.071 -1.0850 -0.3053 -0.4607
   54DOPE   O32 6869   0.986   3.670  10.106  0.1313  0.6943 -0.1982
   54DOPE   C32 6870   0.809   3.511  10.165  0.1996  0.2105 -0.2017
   54DOPE   H2X 6871   0.728   3.577  10.202  2.9923  3.2726  0.9469
   54DOPE   H2Y 6872   0.774   3.416  10.120 -1.6436  0.6387  0.2559
   54DOPE   C23 6873   0.908   4.149  10.060 -0.9722  0.2864  0.4750
   54DOPE   H3R 6874   0.898   4.232   9.986 -1.4239  0.6355  0.9155
   54DOPE   H3S 6875   1.010   4.107  10.050 -1.9841 -2.2071 -0.0406
   54DOPE   C24 6876   0.914   4.224  10.196  0.9152 -0.1887  0.1379
   54DOPE   H4R 6877   0.835   4.302  10.197  1.3125  0.2533 -1.2447
   54DOPE   H4S 6878   1.003   4.291  10.197 -0.7471  2.1674 -0.7197
   54DOPE   C25 6879   0.910   4.139  10.318 -0.2375  0.4608  0.1463
   54DOPE   H5R 6880   0.821   4.074  10.328 -0.4039  0.3755 -1.6728
   54DOPE   H5S 6881   0.916   4.202  10.409 -3.1532  0.1877  0.6241
   54DOPE   C26 6882   1.030   4.046  10.323  0.2638  0.0972  0.9767
   54DOPE   H6R 6883   1.113   4.106  10.281  0.8197 -0.8644  0.6600
   54DOPE   H6S 6884   1.012   3.966  10.247 -0.7224  1.7322 -0.5838
   54DOPE   C27 6885   1.057   3.987  10.452 -0.3664  0.2090 -0.4705
   54DOPE   H7R 6886   1.103   4.063  10.518 -0.3605 -1.6900  1.8557
   54DOPE   H7S 6887   1.138   3.912  10.439  1.4247  1.8928  0.3541
   54DOPE   C28 6888   0.938   3.925  10.521 -0.0387  0.1381  0.1697
   54DOPE   H8R 6889   0.885   3.863  10.445 -1.3448  0.8712  0.4419
   54DOPE   H8S 6890   0.872   4.009  10.553  0.1654  0.8646 -1.2108
   54DOPE   C29 6891   0.969   3.838  10.638  0.3845 -0.2871 -0.8251
   54DOPE   H9R 6892   0.947   3.732  10.623  3.5507 -1.3463  0.9370
   54DOPE  C210 6893   1.000   3.886  10.766 -0.4355 -0.9017 -0.5542
   54DOPE  H10R 6894   0.986   3.821  10.854 -1.5337  1.7197  1.3546
   54DOPE  C211 6895   1.031   4.031  10.806 -0.2291  0.1426 -0.1972
   54DOPE  H11R 6896   1.027   4.096  10.716 -3.0170 -1.3809 -1.3159
   54DOPE  H11S 6897   1.135   4.037  10.845 -1.6009  1.1914  3.7503
   54DOPE  C212 6898   0.936   4.090  10.908  0.2410 -0.5392  0.3023
   54DOPE  H12R 6899   0.913   4.013  10.985 -1.9423  0.1869  0.4561
   54DOPE  H12S 6900   0.835   4.114  10.867  1.1012  0.5631 -1.2769
   54DOPE  C213 6901   0.991   4.216  10.971 -0.0632 -0.6264  0.1487
   54DOPE  H13R 6902   0.988   4.299  10.898  0.6466  0.1096  0.9349
   54DOPE  H13S 6903   1.099   4.206  10.996  0.1161 -1.5178 -0.8939
   54DOPE  C214 6904   0.922   4.250  11.105 -0.2431 -0.4996  0.1927
   54DOPE  H14R 6905   0.882   4.158  11.151 -2.2863  0.8592  1.3177
   54DOPE  H14S 6906   0.826   4.297  11.075 -0.6110 -1.4037 -0.0739
   54DOPE  C215 6907   1.002   4.343  11.206  0.5161 -0.2301 -0.7855
   54DOPE  H15R 6908   1.007   4.445  11.162 -2.5276  0.0331 -0.7329
   54DOPE  H15S 6909   1.104   4.300  11.215  2.1948  3.1399 -2.0470
   54DOPE  C216 6910   0.931   4.366  11.348  0.5082 -0.0799 -0.0188
   54DOPE  H16R 6911   0.928   4.266  11.395  0.7464 -0.6187 -1.1134
   54DOPE  H16S 6912   0.826   4.387  11.317  1.4809 -0.1340 -3.9049
   54DOPE  C217 6913   1.002   4.465  11.446 -0.6739 -0.5013  0.1829
   54DOPE  H17R 6914   1.010   4.566  11.400 -0.1746 -0.7832 -0.3692
   54DOPE  H17S 6915   1.102   4.420  11.462 -0.5441  0.0762  1.0963
   54DOPE  C218 6916   0.933   4.495  11.580 -0.4630 -0.6485 -0.1426
   54DOPE  H18R 6917   0.830   4.526  11.553 -0.2476 -0.4755 -0.7829
   54DOPE  H18S 6918   0.979   4.570  11.648 -2.2483  0.2183  0.1921
   54DOPE  H18T 6919   0.921   4.396  11.629  0.8489 -1.9481 -2.2988
   54DOPE   C33 6920   0.889   3.480  10.293  0.0476 -0.2676 -0.0565
   54DOPE   H3X 6921   0.873   3.568  10.358  0.3980 -0.7405  0.6847
   54DOPE   H3Y 6922   0.999   3.471  10.279 -0.2176 -1.7660 -1.6263
   54DOPE   C34 6923   0.845   3.353  10.367 -0.4339  0.6393 -0.6925
   54DOPE   H4X 6924   0.738   3.357  10.398  0.3338  0.5562  2.2142
   54DOPE   H4Y 6925   0.859   3.280  10.284 -0.7412 -0.1976 -0.0220
   54DOPE   C35 6926   0.929   3.313  10.493 -0.0554 -0.3193  0.3444
   54DOPE   H5X 6927   1.031   3.287  10.459 -0.0896  1.8848 -1.7274
   54DOPE   H5Y 6928   0.883   3.227  10.545 -1.9493 -0.9306 -2.1594
   54DOPE   C36 6929   0.942   3.427  10.598 -0.1551 -0.2837 -0.5135
   54DOPE   H6X 6930   0.968   3.524  10.551  0.4131 -1.0378 -1.8168
   54DOPE   H6Y 6931   1.017   3.392  10.672 -0.8205 -0.7237 -0.0295
   54DOPE   C37 6932   0.806   3.439  10.674 -0.8293  0.4170  0.6129
   54DOPE   H7X 6933   0.724   3.455  10.601  1.2723 -0.5401 -2.1394
   54DOPE   H7Y 6934   0.788   3.337  10.715  0.0219 -1.1127 -2.5363
   54DOPE   C38 6935   0.811   3.531  10.794  0.0435 -0.5434 -0.0374
   54DOPE   H8X 6936   0.713   3.516  10.844 -1.7453  0.8998 -2.8368
   54DOPE   H8Y 6937   0.794   3.638  10.768  0.4874 -1.1208 -2.9631
   54DOPE   C39 6938   0.921   3.520  10.893  0.0952 -0.0495 -0.4087
   54DOPE   H9X 6939   1.023   3.511  10.854  0.7825  1.5942  0.8977
   54DOPE  C310 6940   0.900   3.497  11.021 -0.1745 -0.1835  0.0300
   54DOPE  H10X 6941   0.991   3.486  11.082 -0.7107  1.5202  1.2106
   54DOPE  C311 6942   0.773   3.479  11.097  0.4650 -0.2548 -0.3998
   54DOPE  H11X 6943   0.686   3.480  11.027  0.9970  0.0624 -1.0659
   54DOPE  H11Y 6944   0.773   3.386  11.157  1.2035 -1.7139 -2.5232
   54DOPE  C312 6945   0.748   3.596  11.194 -0.0986 -0.6272 -0.2674
   54DOPE  H12X 6946   0.653   3.581  11.248 -0.4006 -1.6311 -1.0367
   54DOPE  H12Y 6947   0.749   3.683  11.125  1.7917 -1.5044 -1.4268
   54DOPE  C313 6948   0.856   3.622  11.298 -0.1268  0.1674 -0.2841
   54DOPE  H13X 6949   0.875   3.527  11.353 -0.3730 -0.1020 -0.6574
   54DOPE  H13Y 6950   0.954   3.628  11.246  0.8540  0.9074  1.5375
   54DOPE  C314 6951   0.843   3.750  11.385  0.0078  0.3083  0.4014
   54DOPE  H14X 6952   0.837   3.705  11.486 -2.4571 -1.8930 -0.6062
   54DOPE  H14Y 6953   0.741   3.787  11.361 -0.6189 -2.0909 -0.9222
   54DOPE  C315 6954   0.964   3.840  11.365  0.4029 -0.4494 -0.4018
   54DOPE  H15X 6955   0.933   3.925  11.300  0.7870 -0.8942 -1.1795
   54DOPE  H15Y 6956   1.049   3.784  11.323  2.1028  1.5431  0.1849
   54DOPE  C316 6957   1.016   3.901  11.497  0.2587  0.5441 -0.3413
   54DOPE  H16X 6958   1.112   3.953  11.479 -0.3211  1.2484 -1.5033
   54DOPE  H16Y 6959   1.036   3.814  11.563  0.7705 -1.6234 -3.1764
   54DOPE  C317 6960   0.920   4.007  11.558  0.1646  0.0010 -0.5110
   54DOPE  H17X 6961   0.881   4.069  11.474  0.3138 -1.6590 -1.8649
   54DOPE  H17Y 6962   0.831   3.952  11.596  0.3081 -0.0738 -0.2854
   54DOPE  C318 6963   0.980   4.075  11.680  0.4032 -0.1992  0.1086
   54DOPE  H18X 6964   1.077   4.124  11.656 -0.0310  0.2830 -0.7149
   54DOPE  H18Y 6965   0.916   4.157  11.717  0.3569 -0.1064 -0.1741
   54DOPE  H18Z 6966   0.991   4.003  11.764 -1.1070  0.5123  0.9301
   55DOPE     N 6967   0.740   6.048   9.037 -0.1300 -0.1648 -0.3654
   55DOPE   HN1 6968   0.700   6.015   9.127 -0.3232  2.5037  0.5956
   55DOPE   HN2 6969   0.801   5.983   8.982 -0.0701  0.2750 -0.8293
   55DOPE   HN3 6970   0.776   6.141   9.064 -0.3404  0.0477 -0.8047
   55DOPE   C12 6971   0.627   6.095   8.945 -0.0764 -0.3889 -0.4473
   55DOPE  H12A 6972   0.612   6.004   8.883  1.9002 -1.4257  0.4929
   55DOPE  H12B 6973   0.662   6.183   8.888  0.0067  0.1101  0.3507
   55DOPE   C11 6974   0.509   6.139   9.027 -0.1569  0.0169 -0.3965
   55DOPE  H11A 6975   0.483   6.064   9.105  0.5256 -0.0344 -0.2108
   55DOPE  H11B 6976   0.423   6.141   8.957 -0.7083 -3.9460 -0.0420
   55DOPE     P 6977   0.495   6.400   9.064 -0.0132 -0.3260 -0.0288
   55DOPE   O13 6978   0.455   6.410   8.921  0.3153 -0.0182 -0.2098
   55DOPE   O14 6979   0.595   6.495   9.116 -0.0641  0.6119  0.7649
   55DOPE   O11 6980   0.361   6.425   9.145 -0.9227  0.9596  0.1523
   55DOPE   O12 6981   0.541   6.255   9.091  0.1805 -0.3596 -1.2042
   55DOPE    C1 6982   0.345   6.349   9.267 -0.9524  0.0154  0.1781
   55DOPE    HA 6983   0.433   6.364   9.333  0.1532 -0.1512 -1.1969
   55DOPE    HB 6984   0.325   6.242   9.244 -2.3966  0.7858 -2.6361
   55DOPE    C2 6985   0.224   6.394   9.350  0.2828 -0.6775  0.6981
   55DOPE    HS 6986   0.134   6.365   9.292  0.6864 -0.5806  0.0107
   55DOPE   O21 6987   0.239   6.536   9.370  0.8769 -0.0334 -0.1678
   55DOPE   C21 6988   0.131   6.601   9.425 -0.2299  0.2513 -0.8294
   55DOPE   O22 6989   0.017   6.569   9.407  0.5748 -0.3664  0.3528
   55DOPE   C22 6990   0.177   6.732   9.497 -0.1974  1.0325  0.2951
   55DOPE   H2R 6991   0.141   6.796   9.414 -1.9959 -2.4744 -1.8752
   55DOPE   H2S 6992   0.285   6.717   9.517 -0.5694 -1.9286  0.6257
   55DOPE    C3 6993   0.224   6.310   9.488 -0.7600  0.0072 -1.5617
   55DOPE    HX 6994   0.314   6.336   9.548 -1.4099 -0.2506 -0.4533
   55DOPE    HY 6995   0.230   6.200   9.476 -0.8811 -0.4442  1.8148
   55DOPE   O31 6996   0.108   6.335   9.578  0.0976 -0.4366 -0.6745
   55DOPE   C31 6997  -0.007   6.276   9.539 -0.1617 -0.1239 -0.1280
   55DOPE   O32 6998  -0.025   6.215   9.437 -0.4983 -0.1908  0.3076
   55DOPE   C32 6999  -0.114   6.310   9.645 -0.9215 -0.8934  0.1053
   55DOPE   H2X 7000  -0.117   6.420   9.662  1.8122 -1.0879  2.8041
   55DOPE   H2Y 7001  -0.209   6.280   9.597  0.2960 -1.7212 -1.8869
   55DOPE   C23 7002   0.098   6.758   9.630 -0.9559 -0.8054 -0.3824
   55DOPE   H3R 7003  -0.012   6.762   9.617 -1.0383  4.3830 -0.1604
   55DOPE   H3S 7004   0.134   6.860   9.655  0.7392 -1.2718 -0.7720
   55DOPE   C24 7005   0.134   6.659   9.745 -0.0379  0.5726  0.7376
   55DOPE   H4R 7006   0.245   6.659   9.755  0.1793  2.0047 -1.0724
   55DOPE   H4S 7007   0.087   6.563   9.717  0.0644  0.5901  0.4990
   55DOPE   C25 7008   0.067   6.706   9.872 -0.2949  0.0680  0.9251
   55DOPE   H5R 7009  -0.042   6.710   9.854  0.0458  1.7348 -1.2253
   55DOPE   H5S 7010   0.087   6.809   9.908  1.1111 -0.2870  1.2144
   55DOPE   C26 7011   0.093   6.613   9.988  0.3991 -0.1460 -0.6058
   55DOPE   H6R 7012   0.198   6.595  10.018  0.6761  0.7076 -1.0213
   55DOPE   H6S 7013   0.071   6.513   9.944 -0.3398 -0.2484 -0.0277
   55DOPE   C27 7014  -0.008   6.640  10.102  0.0657 -0.2688 -0.1800
   55DOPE   H7R 7015  -0.106   6.644  10.050 -0.4725  0.1113  0.8332
   55DOPE   H7S 7016   0.017   6.743  10.136  2.1035 -0.9841  0.6206
   55DOPE   C28 7017  -0.016   6.542  10.219  0.2536 -0.5754  0.0249
   55DOPE   H8R 7018  -0.037   6.441  10.178 -0.6529 -0.3117 -0.1722
   55DOPE   H8S 7019  -0.111   6.568  10.270  0.1949 -1.1390  0.2162
   55DOPE   C29 7020   0.092   6.542  10.318  0.3566 -0.0252 -0.6308
   55DOPE   H9R 7021   0.184   6.497  10.279 -0.3064 -0.9472 -1.1733
   55DOPE  C210 7022   0.092   6.573  10.448  0.2815 -0.2123 -0.5642
   55DOPE  H10R 7023   0.179   6.543  10.509 -0.9418 -0.1860  1.2808
   55DOPE  C211 7024  -0.013   6.647  10.530  0.4013 -0.2185 -0.3578
   55DOPE  H11R 7025  -0.093   6.694  10.469 -1.0038 -1.8976  0.1345
   55DOPE  H11S 7026   0.043   6.729  10.580  0.2654 -0.2068 -0.2259
   55DOPE  C212 7027  -0.075   6.570  10.645  0.1985  0.2811 -0.5627
   55DOPE  H12R 7028   0.007   6.497  10.662 -0.1945 -0.9304 -3.3720
   55DOPE  H12S 7029  -0.165   6.510  10.617 -0.6744 -0.0864  2.6166
   55DOPE  C213 7030  -0.112   6.659  10.767  0.6403  0.0943 -0.4831
   55DOPE  H13R 7031  -0.174   6.739  10.721 -1.7181 -0.0456  2.1923
   55DOPE  H13S 7032  -0.030   6.719  10.812 -1.7053  1.1878  2.7039
   55DOPE  C214 7033  -0.190   6.593  10.884 -0.2849  0.1709 -0.4788
   55DOPE  H14R 7034  -0.139   6.494  10.892 -0.7003 -0.6296 -5.0706
   55DOPE  H14S 7035  -0.299   6.581  10.866 -0.2743  0.2563 -0.5967
   55DOPE  C215 7036  -0.175   6.669  11.027 -0.0202 -0.3272 -0.1844
   55DOPE  H15R 7037  -0.206   6.771  10.997  1.9929 -0.1470 -1.9289
   55DOPE  H15S 7038  -0.072   6.684  11.066  0.1654  1.0983 -1.1735
   55DOPE  C216 7039  -0.268   6.611  11.133  0.6805 -0.4925 -0.4244
   55DOPE  H16R 7040  -0.223   6.642  11.230 -0.0513  1.5954 -0.6924
   55DOPE  H16S 7041  -0.251   6.502  11.127  0.6027 -0.5018 -0.4821
   55DOPE  C217 7042  -0.415   6.654  11.120 -0.0257 -0.1516 -0.3259
   55DOPE  H17R 7043  -0.455   6.633  11.018  1.3448  2.0402 -1.4116
   55DOPE  H17S 7044  -0.423   6.765  11.110 -2.8962 -0.0734  1.8435
   55DOPE  C218 7045  -0.501   6.611  11.239 -0.3347  0.5344 -0.1592
   55DOPE  H18R 7046  -0.610   6.620  11.222 -0.5653 -0.4717  0.6969
   55DOPE  H18S 7047  -0.469   6.666  11.330 -0.6191  1.3289 -0.5236
   55DOPE  H18T 7048  -0.487   6.503  11.261  1.2506  1.1659  2.3175
   55DOPE   C33 7049  -0.091   6.239   9.778 -0.6498  0.7391 -0.7712
   55DOPE   H3X 7050   0.002   6.267   9.832 -0.8816  0.1030 -0.0304
   55DOPE   H3Y 7051  -0.068   6.132   9.765 -0.1159  0.8362 -0.6475
   55DOPE   C34 7052  -0.207   6.263   9.880  0.4084  0.5336 -0.0438
   55DOPE   H4X 7053  -0.221   6.372   9.895 -0.4509  0.3260  0.8099
   55DOPE   H4Y 7054  -0.305   6.226   9.842  0.2677 -0.4568  1.2162
   55DOPE   C35 7055  -0.193   6.200  10.022 -0.3529 -0.3572  0.4030
   55DOPE   H5X 7056  -0.097   6.230  10.070  0.6309 -0.6520 -1.3181
   55DOPE   H5Y 7057  -0.204   6.089  10.020 -1.9143 -0.2131 -1.2322
   55DOPE   C36 7058  -0.304   6.249  10.109 -0.0002  0.4793 -0.8702
   55DOPE   H6X 7059  -0.399   6.224  10.059 -0.7528  0.6577  0.4370
   55DOPE   H6Y 7060  -0.296   6.360  10.119 -0.8834  0.5036 -0.3880
   55DOPE   C37 7061  -0.302   6.195  10.257 -0.5130 -0.1432 -0.2212
   55DOPE   H7X 7062  -0.404   6.220  10.293 -0.6690 -0.7500 -0.2392
   55DOPE   H7Y 7063  -0.290   6.085  10.258 -2.0287 -0.3262  0.7205
   55DOPE   C38 7064  -0.193   6.263  10.350  0.0136  0.5556  0.0095
   55DOPE   H8X 7065  -0.203   6.374  10.344 -0.2919  0.5770  0.7597
   55DOPE   H8Y 7066  -0.091   6.237  10.317 -0.0686 -0.2802  0.3773
   55DOPE   C39 7067  -0.208   6.218  10.498 -1.3681 -0.6440  0.3199
   55DOPE   H9X 7068  -0.309   6.217  10.541 -1.7671  1.6258 -0.4190
   55DOPE  C310 7069  -0.106   6.181  10.575  0.2742  0.5133  0.8185
   55DOPE  H10X 7070  -0.133   6.151  10.677 -0.8816  0.4902  0.5292
   55DOPE  C311 7071   0.041   6.182  10.543 -0.1959  0.4945  0.2643
   55DOPE  H11X 7072   0.063   6.244  10.454 -0.1789  0.9346  0.5749
   55DOPE  H11Y 7073   0.098   6.237  10.621  0.9053  0.2171 -0.3117
   55DOPE  C312 7074   0.108   6.048  10.503  0.4616 -0.1869  0.6149
   55DOPE  H12X 7075   0.058   6.002  10.416  0.2898  1.4557 -0.1933
   55DOPE  H12Y 7076   0.089   5.979  10.588  0.6072 -0.4676  0.4226
   55DOPE  C313 7077   0.260   6.057  10.478 -0.3344 -0.6228  0.3042
   55DOPE  H13X 7078   0.307   6.082  10.575 -1.7358 -0.6620  1.0278
   55DOPE  H13Y 7079   0.287   5.952  10.456  1.3345 -0.1851  0.1537
   55DOPE  C314 7080   0.300   6.147  10.364  0.0091  0.6127  0.9278
   55DOPE  H14X 7081   0.411   6.142  10.362  0.0315 -2.7717  3.1825
   55DOPE  H14Y 7082   0.271   6.252  10.387  2.2636  1.6616 -0.6682
   55DOPE  C315 7083   0.243   6.095  10.234 -0.3996  0.2389 -0.4901
   55DOPE  H15X 7084   0.138   6.129  10.226 -0.5621  0.6818  2.4502
   55DOPE  H15Y 7085   0.236   5.985  10.233  0.9016  0.1370 -0.1906
   55DOPE  C316 7086   0.305   6.150  10.110 -0.9844  0.0764 -0.2789
   55DOPE  H16X 7087   0.409   6.112  10.100 -0.6435  0.1363  2.2675
   55DOPE  H16Y 7088   0.309   6.259  10.128  0.5591  0.1010 -0.6508
   55DOPE  C317 7089   0.226   6.122   9.979  0.5764  0.4162 -0.0705
   55DOPE  H17X 7090   0.251   6.019   9.944  0.5324 -0.3318  1.9879
   55DOPE  H17Y 7091   0.117   6.126   9.998  0.8482  0.4383  1.6978
   55DOPE  C318 7092   0.259   6.232   9.869 -0.7803 -0.2597 -1.0507
   55DOPE  H18X 7093   0.215   6.198   9.773 -0.8315  0.9189 -1.4486
   55DOPE  H18Y 7094   0.226   6.334   9.894  0.0856  0.0010 -0.9265
   55DOPE  H18Z 7095   0.370   6.226   9.860 -0.6874 -1.6710  0.5146
   56DOPE     N 7096   0.930   6.499   8.801 -0.8541  0.4849 -0.2651
   56DOPE   HN1 7097   0.913   6.397   8.788 -0.0795  0.5636 -2.2853
   56DOPE   HN2 7098   0.962   6.542   8.712 -0.4007 -1.1522 -0.9436
   56DOPE   HN3 7099   1.001   6.508   8.876 -1.5279 -0.0265  0.4483
   56DOPE   C12 7100   0.810   6.561   8.867 -0.5582 -0.2182 -0.6497
   56DOPE  H12A 7101   0.775   6.484   8.939  1.6647 -0.7630 -0.0737
   56DOPE  H12B 7102   0.731   6.561   8.789  1.1535  0.0062 -2.4639
   56DOPE   C11 7103   0.850   6.691   8.937  0.8764 -0.3746  0.7569
   56DOPE  H11A 7104   0.925   6.674   9.017  2.1461  2.0508  0.1760
   56DOPE  H11B 7105   0.757   6.727   8.986 -0.4863  1.4658 -2.8001
   56DOPE     P 7106   1.048   6.827   8.851  0.2624 -0.0338  0.5006
   56DOPE   O13 7107   1.075   6.961   8.794  0.3017  0.0080  0.1025
   56DOPE   O14 7108   1.123   6.715   8.798 -0.2004  0.2425 -0.2788
   56DOPE   O11 7109   1.078   6.843   9.001 -0.3102 -0.0686 -0.1054
   56DOPE   O12 7110   0.894   6.789   8.844  0.2353 -0.1255  0.1119
   56DOPE    C1 7111   1.054   6.971   9.069 -0.8000 -0.2464  0.5825
   56DOPE    HA 7112   0.964   7.022   9.028  0.6043  1.6192 -0.3270
   56DOPE    HB 7113   1.136   7.044   9.053 -1.0726 -0.0221  0.2181
   56DOPE    C2 7114   1.024   6.947   9.224  0.4424  0.5230 -0.8269
   56DOPE    HS 7115   1.114   6.894   9.261 -0.3483 -1.0234 -1.0393
   56DOPE   O21 7116   0.902   6.875   9.249 -0.1708 -0.2692 -0.3493
   56DOPE   C21 7117   0.915   6.777   9.334  0.3086  0.0001  0.1067
   56DOPE   O22 7118   1.012   6.728   9.385 -0.5917 -0.1510  0.4099
   56DOPE   C22 7119   0.770   6.730   9.355  0.3553  0.0805 -0.1623
   56DOPE   H2R 7120   0.734   6.699   9.255  2.6519 -2.9087 -0.1930
   56DOPE   H2S 7121   0.711   6.816   9.394 -1.5733 -0.9359 -0.7006
   56DOPE    C3 7122   1.022   7.084   9.302 -0.2546  0.0559  0.4178
   56DOPE    HX 7123   0.921   7.127   9.285 -0.8064 -0.8271  1.3758
   56DOPE    HY 7124   1.109   7.138   9.260  1.1990 -2.4101  0.0356
   56DOPE   O31 7125   1.047   7.067   9.445 -0.0137  0.3078  0.6268
   56DOPE   C31 7126   0.942   7.085   9.527 -0.2134 -0.7148 -0.1523
   56DOPE   O32 7127   0.826   7.096   9.495  0.3811 -0.0230  0.4416
   56DOPE   C32 7128   0.988   7.068   9.671 -0.3107 -0.5775 -0.1854
   56DOPE   H2X 7129   1.099   7.062   9.667 -0.3405 -0.9316 -0.5410
   56DOPE   H2Y 7130   0.954   7.161   9.721  3.5122  0.9329 -0.0248
   56DOPE   C23 7131   0.753   6.604   9.441  0.0096  0.6230 -0.1767
   56DOPE   H3R 7132   0.851   6.554   9.454  0.9698  2.6034  0.6413
   56DOPE   H3S 7133   0.681   6.533   9.395 -0.5332  1.5218 -0.7518
   56DOPE   C24 7134   0.712   6.645   9.582  1.4168 -0.0526 -0.6351
   56DOPE   H4R 7135   0.637   6.726   9.570  0.9110 -0.5449 -0.8274
   56DOPE   H4S 7136   0.799   6.694   9.630 -0.9527  2.7599  1.1714
   56DOPE   C25 7137   0.660   6.535   9.666 -0.5769  0.4620  0.2245
   56DOPE   H5R 7138   0.747   6.474   9.698 -1.0323 -0.4640 -0.2825
   56DOPE   H5S 7139   0.579   6.483   9.611  1.1236  1.2539 -3.2771
   56DOPE   C26 7140   0.617   6.594   9.803  0.2396 -0.0030  0.3793
   56DOPE   H6R 7141   0.520   6.641   9.775 -1.0465 -1.8836  1.4837
   56DOPE   H6S 7142   0.683   6.673   9.844  0.8507  0.3522 -1.2003
   56DOPE   C27 7143   0.575   6.486   9.902 -0.8876  0.7503 -0.6498
   56DOPE   H7R 7144   0.667   6.437   9.941 -1.2737  0.7174  0.2481
   56DOPE   H7S 7145   0.519   6.408   9.847 -1.2115  0.8550 -0.4661
   56DOPE   C28 7146   0.486   6.538  10.018 -0.7394 -0.2887 -0.3484
   56DOPE   H8R 7147   0.418   6.461  10.059 -3.0191  1.9595  0.2937
   56DOPE   H8S 7148   0.424   6.626   9.995 -0.1622  0.9693  2.4531
   56DOPE   C29 7149   0.586   6.590  10.126 -0.0254 -0.1494  0.6022
   56DOPE   H9R 7150   0.654   6.668  10.090  2.1620 -1.3769  1.8644
   56DOPE  C210 7151   0.614   6.532  10.242  0.8852  0.9954 -0.2083
   56DOPE  H10R 7152   0.697   6.573  10.303  0.5780 -1.9889  2.4265
   56DOPE  C211 7153   0.532   6.421  10.307  0.0369  0.3896 -0.2356
   56DOPE  H11R 7154   0.595   6.328  10.310 -2.4550 -1.4047 -0.4685
   56DOPE  H11S 7155   0.444   6.401  10.243  0.1432  1.6821 -0.8180
   56DOPE  C212 7156   0.476   6.463  10.448  0.5118  0.4184  0.3438
   56DOPE  H12R 7157   0.420   6.377  10.491  2.6556 -0.1023  2.2952
   56DOPE  H12S 7158   0.401   6.544  10.441  0.0266 -0.0732 -0.1904
   56DOPE  C213 7159   0.575   6.505  10.559 -0.4756  0.7898 -0.7305
   56DOPE  H13R 7160   0.530   6.526  10.659  1.5096 -1.5599  0.7811
   56DOPE  H13S 7161   0.633   6.590  10.516  1.8078 -1.1490 -1.7625
   56DOPE  C214 7162   0.684   6.396  10.594 -0.3261 -0.0207 -0.5948
   56DOPE  H14R 7163   0.749   6.373  10.507  2.0611 -2.8825  1.7203
   56DOPE  H14S 7164   0.628   6.302  10.611 -3.3059  1.6850 -0.1695
   56DOPE  C215 7165   0.777   6.413  10.716  0.5765 -0.3917  0.0830
   56DOPE  H15R 7166   0.842   6.497  10.685  2.0444 -2.5490 -3.2687
   56DOPE  H15S 7167   0.848   6.328  10.718  1.0127 -0.0243  0.5746
   56DOPE  C216 7168   0.703   6.442  10.847 -0.4685  0.2853 -0.0160
   56DOPE  H16R 7169   0.630   6.360  10.867  0.6128  0.0017  3.3756
   56DOPE  H16S 7170   0.634   6.528  10.840  0.1597  0.7082 -1.2243
   56DOPE  C217 7171   0.802   6.454  10.968 -0.2426  0.3087  0.4409
   56DOPE  H17R 7172   0.901   6.496  10.941  1.0628 -1.4188  2.2469
   56DOPE  H17S 7173   0.826   6.348  10.993 -2.1313 -0.2830 -0.0884
   56DOPE  C218 7174   0.743   6.524  11.099 -0.4920 -0.4001  0.6249
   56DOPE  H18R 7175   0.644   6.477  11.114 -1.2915 -0.3339 -3.3574
   56DOPE  H18S 7176   0.741   6.634  11.082 -0.0428 -0.6287 -1.0750
   56DOPE  H18T 7177   0.807   6.504  11.188  0.3364 -1.1147 -0.1048
   56DOPE   C33 7178   0.927   6.937   9.730  0.6100  0.3959 -0.7408
   56DOPE   H3X 7179   0.954   6.857   9.658 -3.2431 -0.9688 -0.9134
   56DOPE   H3Y 7180   0.817   6.953   9.733  0.5832  0.1258  1.9744
   56DOPE   C34 7181   0.977   6.912   9.871 -0.3222  0.0429 -0.5332
   56DOPE   H4X 7182   1.004   6.806   9.894  0.8838  0.3683 -0.3771
   56DOPE   H4Y 7183   1.072   6.968   9.885  1.0770 -2.5785  1.5073
   56DOPE   C35 7184   0.884   6.951   9.981  0.2174  0.2321  0.3028
   56DOPE   H5X 7185   0.778   6.922   9.961  0.6321 -0.9459 -0.3194
   56DOPE   H5Y 7186   0.880   7.059  10.007 -1.5459 -0.0573  1.3982
   56DOPE   C36 7187   0.941   6.889  10.115 -0.6034 -0.0885  0.0714
   56DOPE   H6X 7188   1.045   6.928  10.124 -0.7106  0.3660 -0.5268
   56DOPE   H6Y 7189   0.942   6.778  10.114  1.1134 -0.1102  0.4749
   56DOPE   C37 7190   0.863   6.928  10.240 -0.7059 -0.0731 -0.2968
   56DOPE   H7X 7191   0.837   7.036  10.243 -0.2683  0.0218  0.3609
   56DOPE   H7Y 7192   0.771   6.866  10.232 -1.1386  0.4808  0.2426
   56DOPE   C38 7193   0.933   6.897  10.377 -0.2584  0.4162  0.1623
   56DOPE   H8X 7194   0.864   6.931  10.457  1.0116  0.5994  1.2038
   56DOPE   H8Y 7195   1.025   6.957  10.395 -0.0058  0.0451  0.1201
   56DOPE   C39 7196   0.960   6.752  10.395  0.8320 -0.5724 -0.1518
   56DOPE   H9X 7197   0.918   6.689  10.316 -2.9540  1.9094 -0.3935
   56DOPE  C310 7198   1.008   6.706  10.514 -0.1642  0.5266 -0.0840
   56DOPE  H10X 7199   1.013   6.596  10.516 -1.9312  0.4027 -0.3092
   56DOPE  C311 7200   1.040   6.781  10.647 -0.2475  0.3147 -0.5970
   56DOPE  H11X 7201   1.150   6.775  10.660 -0.3197  0.7398  0.3120
   56DOPE  H11Y 7202   1.000   6.885  10.646 -0.5979  0.2223  0.9187
   56DOPE  C312 7203   0.967   6.709  10.762  0.9577  0.3718  0.7466
   56DOPE  H12X 7204   0.995   6.602  10.752 -0.2252  0.0129  1.1468
   56DOPE  H12Y 7205   0.858   6.710  10.741  1.2938 -0.6865 -1.3114
   56DOPE  C313 7206   0.994   6.763  10.902 -0.4075  0.0397  0.0184
   56DOPE  H13X 7207   0.989   6.874  10.900  0.2943  0.0692 -0.4153
   56DOPE  H13Y 7208   0.913   6.733  10.972  1.4906 -0.6180  2.0397
   56DOPE  C314 7209   1.108   6.702  10.990 -0.0676  0.0538 -0.5800
   56DOPE  H14X 7210   1.203   6.720  10.935  0.7655 -1.7024  0.1886
   56DOPE  H14Y 7211   1.099   6.592  11.000 -2.0219  0.1539 -0.9541
   56DOPE  C315 7212   1.126   6.766  11.127 -0.0714  0.0339 -0.3010
   56DOPE  H15X 7213   1.026   6.762  11.175 -0.3169 -3.2520 -0.8864
   56DOPE  H15Y 7214   1.160   6.871  11.117 -1.0036  0.5057  1.1685
   56DOPE  C316 7215   1.223   6.684  11.220  0.0698 -0.4545 -0.0874
   56DOPE  H16X 7216   1.323   6.698  11.175 -0.1866  0.5158 -0.3633
   56DOPE  H16Y 7217   1.187   6.579  11.221 -2.9054  0.4390 -1.5535
   56DOPE  C317 7218   1.232   6.744  11.356  0.4007  0.7877  0.2910
   56DOPE  H17X 7219   1.280   6.843  11.343 -0.7802  1.5999  1.8853
   56DOPE  H17Y 7220   1.125   6.763  11.379 -0.4294 -1.3850 -1.4067
   56DOPE  C318 7221   1.308   6.652  11.453  0.3409 -0.8881  0.5231
   56DOPE  H18X 7222   1.253   6.556  11.465 -2.1949  0.5296  1.0725
   56DOPE  H18Y 7223   1.411   6.633  11.416  0.6341  0.2624  0.6858
   56DOPE  H18Z 7224   1.318   6.705  11.550  1.2546 -0.6154  0.2928
   57DOPE     N 7225   1.412   3.306   9.189 -0.2193 -0.1014 -0.0359
   57DOPE   HN1 7226   1.461   3.397   9.178 -0.0809 -0.3110 -1.4498
   57DOPE   HN2 7227   1.469   3.248   9.253  1.8952  0.6243 -1.1501
   57DOPE   HN3 7228   1.414   3.253   9.099 -0.4097 -2.2632  1.1662
   57DOPE   C12 7229   1.270   3.334   9.227  0.0282  0.3636  0.7613
   57DOPE  H12A 7230   1.232   3.230   9.219 -0.9870  0.8245 -1.0128
   57DOPE  H12B 7231   1.219   3.393   9.147  0.7253 -0.2177 -0.1216
   57DOPE   C11 7232   1.253   3.405   9.361  0.1707  0.1793 -0.3086
   57DOPE  H11A 7233   1.317   3.358   9.439  1.1628  1.2405 -0.4449
   57DOPE  H11B 7234   1.146   3.395   9.389  0.0768  2.6527  0.5148
   57DOPE     P 7235   1.236   3.649   9.448  0.2035 -0.2031 -0.0065
   57DOPE   O13 7236   1.091   3.659   9.410  0.7463  0.5991  0.1398
   57DOPE   O14 7237   1.314   3.771   9.436 -0.5508 -0.9897 -0.8098
   57DOPE   O11 7238   1.256   3.576   9.592  0.3849 -0.2691  0.3320
   57DOPE   O12 7239   1.296   3.543   9.349 -0.0047 -0.3089  0.4958
   57DOPE    C1 7240   1.390   3.563   9.640 -0.3026  0.5431  0.3969
   57DOPE    HA 7241   1.468   3.607   9.574  1.8385 -2.6130  0.6046
   57DOPE    HB 7242   1.412   3.454   9.651 -1.7857  0.1336 -0.3670
   57DOPE    C2 7243   1.406   3.604   9.783  0.0787 -0.3335 -1.2998
   57DOPE    HS 7244   1.506   3.574   9.822  0.3636  0.5530 -1.3394
   57DOPE   O21 7245   1.300   3.548   9.869 -0.5690 -0.2502  0.7676
   57DOPE   C21 7246   1.316   3.423   9.909  0.7434  0.1788  0.4008
   57DOPE   O22 7247   1.415   3.358   9.880  0.3502  0.4150  0.5082
   57DOPE   C22 7248   1.203   3.384  10.003  0.1859 -0.2533  0.3288
   57DOPE   H2R 7249   1.135   3.309   9.957  0.7783 -0.8041  0.3350
   57DOPE   H2S 7250   1.144   3.475  10.029 -2.1340 -1.3650 -0.7447
   57DOPE    C3 7251   1.403   3.757   9.787 -0.6319 -0.4488 -0.3644
   57DOPE    HX 7252   1.303   3.789   9.750 -0.2536  1.6854  0.3352
   57DOPE    HY 7253   1.489   3.796   9.730 -0.5486  0.0110  0.0708
   57DOPE   O31 7254   1.416   3.807   9.926  0.1245  0.0311 -0.7418
   57DOPE   C31 7255   1.357   3.921   9.961 -0.2202  0.1889 -0.2132
   57DOPE   O32 7256   1.314   4.000   9.881  0.3455 -0.1133  0.4544
   57DOPE   C32 7257   1.344   3.922  10.118  0.0935  0.3256 -0.1677
   57DOPE   H2X 7258   1.296   4.019  10.141 -0.5268  0.3351 -1.4547
   57DOPE   H2Y 7259   1.280   3.836  10.148 -2.0524  2.1231  0.6424
   57DOPE   C23 7260   1.263   3.332  10.132 -0.1730 -0.0767 -0.1465
   57DOPE   H3R 7261   1.345   3.259  10.114 -1.0330 -0.8626 -0.9627
   57DOPE   H3S 7262   1.186   3.275  10.188 -1.0784 -0.4657 -1.7343
   57DOPE   C24 7263   1.297   3.447  10.229  0.4937 -0.1373 -0.3681
   57DOPE   H4R 7264   1.212   3.518  10.237  0.7239  0.1545 -0.4977
   57DOPE   H4S 7265   1.382   3.497  10.177  0.9324 -0.8361 -0.3482
   57DOPE   C25 7266   1.353   3.408  10.363  0.2908  0.2246 -0.8836
   57DOPE   H5R 7267   1.459   3.375  10.353 -0.2376 -1.5612 -0.9314
   57DOPE   H5S 7268   1.291   3.325  10.402  0.5202  1.1944  1.6952
   57DOPE   C26 7269   1.348   3.519  10.472 -0.1815  0.2595 -0.3197
   57DOPE   H6R 7270   1.247   3.565  10.476 -0.3383 -0.1589  0.9879
   57DOPE   H6S 7271   1.409   3.607  10.445 -0.2285  1.0829  2.0380
   57DOPE   C27 7272   1.381   3.479  10.610 -0.1602 -0.2997  0.0693
   57DOPE   H7R 7273   1.473   3.417  10.607 -0.2981 -0.4514 -1.6390
   57DOPE   H7S 7274   1.289   3.431  10.649 -0.4489  0.9116  0.9674
   57DOPE   C28 7275   1.402   3.601  10.705  0.0642 -0.1175  0.1391
   57DOPE   H8R 7276   1.310   3.663  10.701 -0.2539 -0.6043 -0.3285
   57DOPE   H8S 7277   1.483   3.663  10.664  1.1912 -1.6402 -0.0227
   57DOPE   C29 7278   1.433   3.564  10.847 -0.0650  0.2812  0.3808
   57DOPE   H9R 7279   1.514   3.491  10.860 -0.0338  0.2797  0.1842
   57DOPE  C210 7280   1.377   3.616  10.961  0.8392  0.8197  0.1303
   57DOPE  H10R 7281   1.410   3.580  11.059  0.3687  2.0356  0.7577
   57DOPE  C211 7282   1.273   3.726  10.962  0.1272  0.0584  0.1495
   57DOPE  H11R 7283   1.171   3.683  10.948 -0.5284  1.4043  0.6150
   57DOPE  H11S 7284   1.282   3.796  10.876 -0.5667  1.2634  1.0192
   57DOPE  C212 7285   1.252   3.801  11.096  0.4629  0.7997 -0.2549
   57DOPE  H12R 7286   1.219   3.727  11.172  1.4559 -0.7740 -1.2991
   57DOPE  H12S 7287   1.166   3.871  11.084 -1.3880 -1.3060 -0.1376
   57DOPE  C213 7288   1.371   3.876  11.146  0.3153  0.3654 -0.4939
   57DOPE  H13R 7289   1.422   3.934  11.066 -0.0212  0.5464 -0.5798
   57DOPE  H13S 7290   1.442   3.798  11.179  0.6555  1.0800  0.5167
   57DOPE  C214 7291   1.341   3.963  11.269  0.1977 -0.4391 -0.3257
   57DOPE  H14R 7292   1.339   3.902  11.361 -1.0888  0.8903  0.5609
   57DOPE  H14S 7293   1.239   4.007  11.262  0.1655 -0.1832  1.5092
   57DOPE  C215 7294   1.440   4.082  11.275 -0.0717 -0.1009  0.4305
   57DOPE  H15R 7295   1.435   4.157  11.193  2.5367 -2.1448 -1.7783
   57DOPE  H15S 7296   1.544   4.042  11.281 -0.0378 -0.0093  0.4677
   57DOPE  C216 7297   1.407   4.165  11.397  0.5236 -0.4621 -0.3731
   57DOPE  H16R 7298   1.421   4.092  11.479 -0.5196 -0.6941 -0.3912
   57DOPE  H16S 7299   1.298   4.185  11.395  0.6350  0.2978  0.6092
   57DOPE  C217 7300   1.470   4.298  11.418 -0.1156  0.0830  0.3615
   57DOPE  H17R 7301   1.451   4.367  11.333  0.0838  1.0284  1.0635
   57DOPE  H17S 7302   1.579   4.276  11.417 -0.3748 -1.6618  2.7784
   57DOPE  C218 7303   1.440   4.362  11.554 -0.2892  0.3250 -0.3921
   57DOPE  H18R 7304   1.503   4.453  11.571  1.1082 -0.3622 -1.6917
   57DOPE  H18S 7305   1.464   4.303  11.645  3.3505  1.8658 -0.1535
   57DOPE  H18T 7306   1.334   4.392  11.572 -0.4820 -1.1459  1.2171
   57DOPE   C33 7307   1.472   3.929  10.203 -0.0175  0.0131 -0.3112
   57DOPE   H3X 7308   1.524   4.021  10.169  0.6643  0.0899  0.9041
   57DOPE   H3Y 7309   1.545   3.846  10.187  1.6082  0.9337  1.8087
   57DOPE   C34 7310   1.430   3.942  10.355  0.7821  0.6307 -0.4181
   57DOPE   H4X 7311   1.378   4.036  10.384  1.2075  0.2522  1.7934
   57DOPE   H4Y 7312   1.357   3.865  10.384  0.5702  1.5662  1.7041
   57DOPE   C35 7313   1.551   3.953  10.447 -0.1304 -0.0170  0.0887
   57DOPE   H5X 7314   1.642   3.980  10.390  1.1324 -1.1271  1.4764
   57DOPE   H5Y 7315   1.581   3.851  10.480  0.4516  0.6791  1.8655
   57DOPE   C36 7316   1.537   4.037  10.572  0.2584 -1.0327 -0.6327
   57DOPE   H6X 7317   1.521   4.141  10.535 -0.2862  0.1673  2.6195
   57DOPE   H6Y 7318   1.623   4.029  10.642 -0.7083 -1.4652  0.5474
   57DOPE   C37 7319   1.412   4.005  10.662 -0.7899  0.7737 -0.6121
   57DOPE   H7X 7320   1.312   4.001  10.613 -0.8103 -0.9251 -0.5180
   57DOPE   H7Y 7321   1.434   3.898  10.686  1.6075  1.1532 -0.8695
   57DOPE   C38 7322   1.414   4.068  10.794  0.1510 -0.2011  0.8169
   57DOPE   H8X 7323   1.519   4.063  10.829 -0.1159 -0.4132  1.6061
   57DOPE   H8Y 7324   1.354   4.023  10.875  1.5774 -0.1259  1.9548
   57DOPE   C39 7325   1.379   4.215  10.793  0.4090  0.2659  0.5144
   57DOPE   H9X 7326   1.302   4.233  10.716 -0.4821 -0.6124  1.1773
   57DOPE  C310 7327   1.449   4.323  10.835  0.9811 -0.7775 -0.1192
   57DOPE  H10X 7328   1.405   4.423  10.820  1.5604 -0.3101  1.1255
   57DOPE  C311 7329   1.572   4.326  10.924 -0.0298 -1.0353 -0.6253
   57DOPE  H11X 7330   1.600   4.230  10.971 -0.1946  0.0042  1.7556
   57DOPE  H11Y 7331   1.657   4.369  10.866 -1.2831  0.3464 -1.5250
   57DOPE  C312 7332   1.545   4.439  11.029 -0.2141  0.1691 -0.0228
   57DOPE  H12X 7333   1.460   4.403  11.090 -1.3200  0.3478 -1.4326
   57DOPE  H12Y 7334   1.515   4.535  10.982 -2.6444  0.4522  1.9269
   57DOPE  C313 7335   1.675   4.460  11.116  0.5465 -0.1993  0.0131
   57DOPE  H13X 7336   1.705   4.367  11.168 -1.4657 -1.4702 -0.9712
   57DOPE  H13Y 7337   1.753   4.492  11.043 -0.9359 -3.0910 -3.1495
   57DOPE  C314 7338   1.663   4.576  11.225  0.3171 -0.5479  0.1104
   57DOPE  H14X 7339   1.571   4.558  11.284  0.4906  1.2921  0.9952
   57DOPE  H14Y 7340   1.670   4.678  11.182  1.4499  0.7611  3.1438
   57DOPE  C315 7341   1.771   4.566  11.336  0.4771 -0.0277 -0.7040
   57DOPE  H15X 7342   1.755   4.469  11.389 -1.6813  2.0838  2.9502
   57DOPE  H15Y 7343   1.747   4.645  11.411  0.2082 -1.5417  0.8911
   57DOPE  C316 7344   1.911   4.586  11.297  0.2260  0.1838  1.2372
   57DOPE  H16X 7345   1.918   4.676  11.232 -2.0968 -0.7796 -0.4907
   57DOPE  H16Y 7346   1.926   4.504  11.224  0.4776  0.3875  1.0584
   57DOPE  C317 7347   2.006   4.602  11.415  0.5489  0.0833  0.2218
   57DOPE  H17X 7348   1.973   4.702  11.452 -0.0792  0.8540 -2.2507
   57DOPE  H17Y 7349   1.964   4.525  11.483 -1.2450 -0.0370 -0.9624
   57DOPE  C318 7350   2.153   4.600  11.378  0.4153  0.0114  0.9295
   57DOPE  H18X 7351   2.222   4.627  11.460  1.2429  0.9292 -0.0351
   57DOPE  H18Y 7352   2.175   4.499  11.336  0.6119  0.4038  0.0641
   57DOPE  H18Z 7353   2.167   4.671  11.294  0.4565 -0.1927  0.7622
   58DOPE     N 7354   6.315   6.136   8.517 -0.7101 -0.6534  0.3714
   58DOPE   HN1 7355   6.216   6.167   8.528 -0.5787 -0.2445  0.4331
   58DOPE   HN2 7356   6.345   6.129   8.418  0.1299  2.6485  0.2646
   58DOPE   HN3 7357   6.334   6.047   8.567  0.0810 -0.2225  0.8695
   58DOPE   C12 7358   6.404   6.229   8.592  0.4402  0.0308  0.2518
   58DOPE  H12A 7359   6.373   6.213   8.698  2.1610  1.5326  1.0272
   58DOPE  H12B 7360   6.379   6.334   8.567  0.7927 -0.1345 -0.8312
   58DOPE   C11 7361   6.556   6.197   8.580 -0.0233 -0.4051  0.0084
   58DOPE  H11A 7362   6.614   6.266   8.644  1.0807 -1.8005  0.5853
   58DOPE  H11B 7363   6.591   6.225   8.478  1.3084 -2.7573 -0.2714
   58DOPE     P 7364   6.719   6.017   8.679  0.2746 -0.3775  0.3277
   58DOPE   O13 7365   6.833   6.088   8.629 -0.0148  0.1189  0.5042
   58DOPE   O14 7366   6.732   5.874   8.693  0.1076 -0.1065  0.2776
   58DOPE   O11 7367   6.686   6.085   8.820  0.4119  0.5355  0.2992
   58DOPE   O12 7368   6.592   6.059   8.601 -0.2848 -0.1337  0.1284
   58DOPE    C1 7369   6.633   6.006   8.930  0.1625  0.3063 -0.5001
   58DOPE    HA 7370   6.712   5.931   8.955 -2.0190 -1.3027  1.9899
   58DOPE    HB 7371   6.538   5.956   8.901 -1.1925  1.8732  1.0351
   58DOPE    C2 7372   6.604   6.100   9.043  0.5185 -0.2573 -0.1661
   58DOPE    HS 7373   6.694   6.149   9.085  0.7920 -0.8392 -0.0607
   58DOPE   O21 7374   6.547   6.025   9.155 -1.2024  0.0607  0.2734
   58DOPE   C21 7375   6.626   5.943   9.226  0.1987 -0.1942 -0.3480
   58DOPE   O22 7376   6.728   5.891   9.194 -0.5689  0.1232  0.1217
   58DOPE   C22 7377   6.548   5.912   9.361 -0.5961  0.3034  0.2506
   58DOPE   H2R 7378   6.497   5.814   9.350 -2.0612  0.8223  1.9010
   58DOPE   H2S 7379   6.483   6.001   9.376 -0.1287  0.9112 -1.2180
   58DOPE    C3 7380   6.499   6.205   8.990  0.5701  0.2224 -0.0688
   58DOPE    HX 7381   6.412   6.149   8.949  0.7667  0.2181 -0.4829
   58DOPE    HY 7382   6.540   6.268   8.908  0.1049  1.2677  0.4688
   58DOPE   O31 7383   6.444   6.299   9.090 -0.3068 -0.3116 -0.5656
   58DOPE   C31 7384   6.522   6.397   9.128  0.2203 -0.5925 -0.1125
   58DOPE   O32 7385   6.632   6.420   9.080  0.2654 -0.2050  0.0557
   58DOPE   C32 7386   6.446   6.504   9.222 -0.1940  0.4245  0.0521
   58DOPE   H2X 7387   6.527   6.565   9.269 -1.2506  0.3018  2.1620
   58DOPE   H2Y 7388   6.378   6.568   9.161  0.8526  0.7131 -0.8447
   58DOPE   C23 7389   6.638   5.894   9.490  0.5113  0.3525  0.6868
   58DOPE   H3R 7390   6.686   5.991   9.514 -1.1149  0.9778  1.5544
   58DOPE   H3S 7391   6.707   5.816   9.451 -3.8048 -3.4213 -0.3208
   58DOPE   C24 7392   6.547   5.851   9.607 -0.2400  0.3628  0.7244
   58DOPE   H4R 7393   6.480   5.763   9.592 -0.6371  0.8711 -0.5776
   58DOPE   H4S 7394   6.479   5.935   9.632 -0.9087  0.3720 -0.9862
   58DOPE   C25 7395   6.639   5.821   9.723  0.3238 -0.0732 -0.0915
   58DOPE   H5R 7396   6.709   5.907   9.727  0.2758  0.1483 -2.6000
   58DOPE   H5S 7397   6.693   5.730   9.689 -1.2463 -1.1114  0.0613
   58DOPE   C26 7398   6.566   5.804   9.857 -0.5402 -0.5022 -0.4100
   58DOPE   H6R 7399   6.497   5.718   9.869  1.4846 -1.9127  2.1279
   58DOPE   H6S 7400   6.497   5.890   9.874 -0.4264 -0.4605 -0.1527
   58DOPE   C27 7401   6.671   5.795   9.963 -0.7320 -0.4161  0.0966
   58DOPE   H7R 7402   6.747   5.873   9.942  1.3191 -2.2756  0.2369
   58DOPE   H7S 7403   6.721   5.696   9.956  0.5874  0.1773  0.8217
   58DOPE   C28 7404   6.621   5.807  10.103  0.3150  0.0238  0.1244
   58DOPE   H8R 7405   6.579   5.908  10.123 -2.1372 -1.0808  1.0412
   58DOPE   H8S 7406   6.704   5.792  10.174 -0.1996  0.4435  0.8222
   58DOPE   C29 7407   6.509   5.706  10.131 -0.8984  0.3202 -0.4510
   58DOPE   H9R 7408   6.479   5.633  10.054 -0.5924  1.8772 -2.1209
   58DOPE  C210 7409   6.464   5.685  10.263 -0.0368 -0.0374 -0.2858
   58DOPE  H10R 7410   6.389   5.607  10.277  0.5212 -0.7095 -0.9754
   58DOPE  C211 7411   6.482   5.781  10.383 -0.4240  0.4024 -0.8571
   58DOPE  H11R 7412   6.459   5.885  10.351 -1.8890 -0.0296 -1.3103
   58DOPE  H11S 7413   6.582   5.758  10.425 -1.2270 -3.0878 -0.5220
   58DOPE  C212 7414   6.375   5.757  10.491 -0.5394  0.3071 -0.2869
   58DOPE  H12R 7415   6.377   5.648  10.509  1.6806  0.2382 -0.6685
   58DOPE  H12S 7416   6.271   5.784  10.460 -0.2599 -1.0944 -2.6385
   58DOPE  C213 7417   6.399   5.808  10.637  0.0016  0.1613 -0.3919
   58DOPE  H13R 7418   6.307   5.795  10.698 -1.4582  3.5389 -1.6272
   58DOPE  H13S 7419   6.426   5.916  10.637  0.3657  0.0754  0.2926
   58DOPE  C214 7420   6.509   5.738  10.721 -0.1955 -0.4174 -0.3069
   58DOPE  H14R 7421   6.605   5.738  10.664 -0.6719 -1.9105 -1.1439
   58DOPE  H14S 7422   6.487   5.630  10.719  3.3152 -1.2698 -0.0762
   58DOPE  C215 7423   6.526   5.784  10.871  0.0577  0.5900 -0.0288
   58DOPE  H15R 7424   6.579   5.700  10.920  1.3595 -0.7618 -3.4095
   58DOPE  H15S 7425   6.431   5.810  10.924 -1.2590 -0.9440 -1.5018
   58DOPE  C216 7426   6.621   5.902  10.869  0.0556  0.0723 -0.2689
   58DOPE  H16R 7427   6.589   5.987  10.805 -2.9431 -0.2468  0.6344
   58DOPE  H16S 7428   6.715   5.863  10.826 -0.1677  0.6484 -1.3219
   58DOPE  C217 7429   6.645   5.955  11.008 -1.0413 -0.2339  0.3838
   58DOPE  H17R 7430   6.700   5.876  11.063 -1.7245  0.5771  2.3328
   58DOPE  H17S 7431   6.551   5.968  11.067 -0.2524 -0.0775  1.6585
   58DOPE  C218 7432   6.726   6.082  11.009 -0.7738  0.4536 -0.5171
   58DOPE  H18R 7433   6.765   6.095  11.112  1.3522 -0.1196 -1.1946
   58DOPE  H18S 7434   6.664   6.171  10.986 -0.3813  0.6318 -0.8874
   58DOPE  H18T 7435   6.809   6.077  10.935  0.1652  0.3378  0.5160
   58DOPE   C33 7436   6.364   6.445   9.339  0.4298  0.4245 -0.2031
   58DOPE   H3X 7437   6.427   6.373   9.396  0.3235  0.2761 -0.2715
   58DOPE   H3Y 7438   6.277   6.396   9.290  1.2119 -1.0368 -0.1820
   58DOPE   C34 7439   6.303   6.545   9.443  0.1935  0.0851  0.1094
   58DOPE   H4X 7440   6.392   6.601   9.481 -0.9672  1.0237  1.5442
   58DOPE   H4Y 7441   6.238   6.615   9.387 -0.6814 -0.6337  0.2177
   58DOPE   C35 7442   6.231   6.477   9.562 -0.4556  0.1276  0.2063
   58DOPE   H5X 7443   6.282   6.382   9.587 -2.5066 -0.8941  0.7659
   58DOPE   H5Y 7444   6.127   6.457   9.528  0.4667  1.1309 -3.7558
   58DOPE   C36 7445   6.239   6.577   9.674  0.0984 -0.0729  0.7901
   58DOPE   H6X 7446   6.193   6.675   9.648 -0.2394 -0.7454 -1.3642
   58DOPE   H6Y 7447   6.346   6.596   9.697 -0.1009  1.7385  0.3974
   58DOPE   C37 7448   6.163   6.522   9.799  0.0022 -0.6778 -0.2507
   58DOPE   H7X 7449   6.072   6.471   9.762 -0.0452 -0.5134 -0.3627
   58DOPE   H7Y 7450   6.217   6.434   9.840 -3.1248 -2.6549 -0.0818
   58DOPE   C38 7451   6.115   6.625   9.904 -0.3371 -0.0481  0.2558
   58DOPE   H8X 7452   6.035   6.579   9.967 -2.1556  0.5784 -1.4727
   58DOPE   H8Y 7453   6.059   6.700   9.844  0.0397  0.2220  0.2421
   58DOPE   C39 7454   6.230   6.686   9.976 -0.2749  0.3161  0.5423
   58DOPE   H9X 7455   6.289   6.750   9.908 -0.7220  1.0806  0.8598
   58DOPE  C310 7456   6.251   6.688  10.107 -0.5367  0.8423 -0.0974
   58DOPE  H10X 7457   6.349   6.728  10.137 -0.5020  2.0441 -1.6540
   58DOPE  C311 7458   6.174   6.618  10.220  0.6525  0.5829  0.6466
   58DOPE  H11X 7459   6.079   6.671  10.243 -0.8835 -2.0664  0.7897
   58DOPE  H11Y 7460   6.144   6.519  10.180 -0.5417  1.4973 -0.8286
   58DOPE  C312 7461   6.251   6.602  10.360 -0.4816  0.5579  0.0018
   58DOPE  H12X 7462   6.272   6.701  10.407 -1.4611  0.1952  1.2758
   58DOPE  H12Y 7463   6.345   6.550  10.335 -0.1854  0.1396  1.8148
   58DOPE  C313 7464   6.173   6.511  10.457 -0.1151  0.1110 -0.3936
   58DOPE  H13X 7465   6.074   6.555  10.481 -0.7774 -0.2998 -2.1958
   58DOPE  H13Y 7466   6.174   6.407  10.416  3.8914  0.4238 -1.5504
   58DOPE  C314 7467   6.235   6.491  10.594 -0.1502 -0.3356  0.4492
   58DOPE  H14X 7468   6.217   6.589  10.642  0.0567 -0.1495  0.1464
   58DOPE  H14Y 7469   6.345   6.478  10.587 -0.3135 -3.2778  1.7671
   58DOPE  C315 7470   6.165   6.378  10.674  0.2306 -0.4994 -0.2574
   58DOPE  H15X 7471   6.176   6.285  10.614 -1.8294 -1.2459  0.4381
   58DOPE  H15Y 7472   6.056   6.393  10.659  0.6278  0.8128 -2.2090
   58DOPE  C316 7473   6.220   6.356  10.813  0.4783 -0.6068 -0.3342
   58DOPE  H16X 7474   6.199   6.446  10.875  1.3102  0.7163 -1.8866
   58DOPE  H16Y 7475   6.329   6.358  10.792  0.5645  0.2279  0.1188
   58DOPE  C317 7476   6.183   6.231  10.887 -0.4437  0.1154  0.4589
   58DOPE  H17X 7477   6.183   6.261  10.994 -0.8970 -0.2790  0.5704
   58DOPE  H17Y 7478   6.073   6.216  10.873 -0.4028  0.9701 -0.9922
   58DOPE  C318 7479   6.281   6.118  10.852 -0.1867 -1.1994  1.1370
   58DOPE  H18X 7480   6.383   6.146  10.886 -0.7763 -0.8888  2.7630
   58DOPE  H18Y 7481   6.269   6.027  10.915 -0.4759 -0.9279  1.4838
   58DOPE  H18Z 7482   6.281   6.084  10.746  0.2060  0.4517  0.5747
   59DOPE     N 7483   0.954   2.186   9.237 -0.3636 -0.1685 -0.1578
   59DOPE   HN1 7484   1.017   2.268   9.245  0.1656 -0.6493  0.7364
   59DOPE   HN2 7485   0.876   2.215   9.174  0.0481 -0.9166 -1.0471
   59DOPE   HN3 7486   0.918   2.147   9.327  0.6106  0.9043  0.7148
   59DOPE   C12 7487   1.008   2.070   9.166 -0.5741 -0.0058  0.5201
   59DOPE  H12A 7488   1.119   2.077   9.170 -0.5195 -0.6512  0.2931
   59DOPE  H12B 7489   0.952   2.066   9.071  0.3014  0.0026 -0.0117
   59DOPE   C11 7490   0.975   1.938   9.235  0.3685  0.2779 -0.4853
   59DOPE  H11A 7491   1.024   1.929   9.334 -1.5627  1.2702  0.5999
   59DOPE  H11B 7492   1.016   1.858   9.170 -0.9070 -0.9190  0.1450
   59DOPE     P 7493   0.734   1.832   9.165 -0.1671  0.1187 -0.0641
   59DOPE   O13 7494   0.787   1.692   9.191 -0.3508  0.0826  0.4770
   59DOPE   O14 7495   0.720   1.870   9.021 -0.8625 -0.1454 -0.2161
   59DOPE   O11 7496   0.589   1.851   9.230 -0.1725  0.3534  0.3389
   59DOPE   O12 7497   0.831   1.933   9.241  0.2910  0.5704 -0.4408
   59DOPE    C1 7498   0.535   1.983   9.242  0.0123 -0.6192 -0.3727
   59DOPE    HA 7499   0.426   1.970   9.261 -0.2510  1.0683 -0.6552
   59DOPE    HB 7500   0.550   2.040   9.148  0.7795 -0.2831 -0.0501
   59DOPE    C2 7501   0.601   2.071   9.356  0.5385  0.2519 -0.0390
   59DOPE    HS 7502   0.700   2.105   9.318  0.6179  1.3410  1.0679
   59DOPE   O21 7503   0.620   1.994   9.476 -0.1622  0.0548  0.5170
   59DOPE   C21 7504   0.744   2.007   9.522 -0.1318 -0.6427 -0.3159
   59DOPE   O22 7505   0.826   2.086   9.488 -0.1791  0.1865 -0.6232
   59DOPE   C22 7506   0.758   1.923   9.646  0.5162 -0.4920 -0.1548
   59DOPE   H2R 7507   0.819   1.833   9.621  2.3826 -0.1272  2.6005
   59DOPE   H2S 7508   0.656   1.890   9.675  0.5019 -1.7659 -1.5403
   59DOPE    C3 7509   0.512   2.199   9.383  0.1604 -0.0692  0.4656
   59DOPE    HX 7510   0.408   2.166   9.402 -0.1455  1.5137  1.7723
   59DOPE    HY 7511   0.504   2.263   9.292 -1.4982  1.2480  1.4892
   59DOPE   O31 7512   0.555   2.272   9.505 -0.2505 -0.2569  0.0904
   59DOPE   C31 7513   0.664   2.344   9.493 -0.5011  1.0121  0.3710
   59DOPE   O32 7514   0.748   2.351   9.404 -0.0742 -0.1371  0.3140
   59DOPE   C32 7515   0.670   2.431   9.615 -0.1123 -0.3652 -0.2211
   59DOPE   H2X 7516   0.609   2.521   9.590 -2.1187 -1.2194  1.2829
   59DOPE   H2Y 7517   0.620   2.388   9.705  0.4323  2.9949  1.8843
   59DOPE   C23 7518   0.832   2.004   9.756  0.6647 -0.2269  0.0972
   59DOPE   H3R 7519   0.932   2.042   9.724  0.6866  0.5721  1.0457
   59DOPE   H3S 7520   0.873   1.939   9.837 -0.9164 -0.8839  0.3920
   59DOPE   C24 7521   0.753   2.109   9.831  0.3373  0.1304 -0.0240
   59DOPE   H4R 7522   0.678   2.162   9.768 -0.7162 -0.9598  0.2880
   59DOPE   H4S 7523   0.816   2.178   9.890  0.1643 -0.3017  0.6691
   59DOPE   C25 7524   0.670   2.051   9.947  0.0334 -0.1118  0.1097
   59DOPE   H5R 7525   0.747   2.034  10.025  0.9264 -0.2480 -0.7811
   59DOPE   H5S 7526   0.618   1.956   9.922  2.3439 -1.6374  0.8715
   59DOPE   C26 7527   0.574   2.152  10.009 -0.0075  0.5152  0.1020
   59DOPE   H6R 7528   0.626   2.250  10.007 -2.6444  2.0888  2.1120
   59DOPE   H6S 7529   0.558   2.122  10.115 -2.0090  1.5620  0.1517
   59DOPE   C27 7530   0.435   2.167   9.940 -0.5776  0.3621 -0.3294
   59DOPE   H7R 7531   0.401   2.062   9.955  2.0536 -1.1561 -3.7018
   59DOPE   H7S 7532   0.463   2.185   9.834  2.5509  1.7143  0.5971
   59DOPE   C28 7533   0.337   2.273   9.999 -0.0641  0.5746  1.0055
   59DOPE   H8R 7534   0.248   2.260   9.934  0.8476 -1.6285  0.1120
   59DOPE   H8S 7535   0.357   2.382  10.003 -0.8822  0.7540  0.5568
   59DOPE   C29 7536   0.294   2.237  10.139 -0.2247  0.3374  1.0456
   59DOPE   H9R 7537   0.295   2.127  10.150  2.1643 -0.1834 -2.6311
   59DOPE  C210 7538   0.261   2.320  10.242 -0.3212  0.5614  0.3555
   59DOPE  H10R 7539   0.232   2.279  10.340  2.0348  1.8851  1.6716
   59DOPE  C211 7540   0.254   2.468  10.238 -0.3826  0.0235  0.2548
   59DOPE  H11R 7541   0.153   2.495  10.275  1.0695  2.3959  2.8630
   59DOPE  H11S 7542   0.263   2.506  10.133 -0.0735 -0.3672  0.1394
   59DOPE  C212 7543   0.363   2.534  10.325 -0.3761  0.6421 -0.2994
   59DOPE  H12R 7544   0.365   2.643  10.302 -1.4365  0.5901 -0.6618
   59DOPE  H12S 7545   0.461   2.497  10.287  0.1257 -1.5629  2.7651
   59DOPE  C213 7546   0.367   2.503  10.471  0.0860  0.0350 -0.3163
   59DOPE  H13R 7547   0.469   2.529  10.509  0.0769  0.0382 -0.2943
   59DOPE  H13S 7548   0.365   2.393  10.480  1.5871 -0.0992 -1.2061
   59DOPE  C214 7549   0.256   2.582  10.550 -0.1715  0.0104  0.4836
   59DOPE  H14R 7550   0.161   2.552  10.502  0.8524 -0.8482 -1.0681
   59DOPE  H14S 7551   0.274   2.689  10.522  2.6186 -0.3772  0.5128
   59DOPE  C215 7552   0.256   2.561  10.698 -0.2262 -0.0522 -0.3008
   59DOPE  H15R 7553   0.362   2.565  10.732 -0.6488 -0.5200  1.1437
   59DOPE  H15S 7554   0.227   2.454  10.711  0.2065  0.0876  2.3825
   59DOPE  C216 7555   0.157   2.652  10.771 -0.3471  0.1329  0.1325
   59DOPE  H16R 7556   0.063   2.622  10.719  0.1260 -0.3231 -0.4878
   59DOPE  H16S 7557   0.181   2.760  10.768 -2.2303  0.5664 -0.3735
   59DOPE  C217 7558   0.154   2.605  10.918 -0.3218 -0.2985 -0.2064
   59DOPE  H17R 7559   0.249   2.622  10.972 -0.0362  2.5540 -1.3900
   59DOPE  H17S 7560   0.134   2.496  10.921 -0.5026 -0.2477  0.7323
   59DOPE  C218 7561   0.043   2.678  10.998 -0.0625  0.9684  0.0884
   59DOPE  H18R 7562   0.094   2.767  11.042  2.0117  0.2409 -0.7177
   59DOPE  H18S 7563   0.013   2.619  11.087  0.4685  1.9191  0.9385
   59DOPE  H18T 7564  -0.044   2.715  10.941  1.4379  0.9417 -2.3640
   59DOPE   C33 7565   0.807   2.476   9.651  0.1591 -0.3381 -0.1492
   59DOPE   H3X 7566   0.843   2.538   9.566 -1.1092 -0.7213 -0.9817
   59DOPE   H3Y 7567   0.870   2.385   9.649  0.5331 -0.1235 -3.5647
   59DOPE   C34 7568   0.839   2.556   9.773 -0.4412  0.3781  0.7737
   59DOPE   H4X 7569   0.947   2.578   9.781 -0.0502  0.0060 -2.3599
   59DOPE   H4Y 7570   0.784   2.652   9.760  0.6842  0.9357  0.0292
   59DOPE   C35 7571   0.791   2.487   9.901 -0.2449  0.0462 -0.1757
   59DOPE   H5X 7572   0.855   2.398   9.913 -1.2689 -0.3870  3.1053
   59DOPE   H5Y 7573   0.683   2.461   9.907 -0.3653  0.2684 -1.2115
   59DOPE   C36 7574   0.817   2.582  10.021 -0.2062 -0.4774 -0.3242
   59DOPE   H6X 7575   0.762   2.676  10.000 -2.0186 -1.2727  0.6266
   59DOPE   H6Y 7576   0.924   2.610  10.024 -0.5241  0.8042 -0.5482
   59DOPE   C37 7577   0.792   2.501  10.141  0.1316  0.0205 -0.2737
   59DOPE   H7X 7578   0.696   2.446  10.135  0.7426 -1.1342  0.2690
   59DOPE   H7Y 7579   0.864   2.416  10.144  0.3167  0.0927 -1.6647
   59DOPE   C38 7580   0.798   2.573  10.280 -0.3366 -0.5838 -0.7370
   59DOPE   H8X 7581   0.753   2.513  10.363  0.6289  0.0714  0.3002
   59DOPE   H8Y 7582   0.729   2.659  10.274 -1.1126 -1.2138 -0.9900
   59DOPE   C39 7583   0.936   2.623  10.334 -0.2587 -0.7161  0.2483
   59DOPE   H9X 7584   1.019   2.623  10.262 -2.3128 -2.9477 -2.3031
   59DOPE  C310 7585   0.961   2.652  10.466 -0.0195  0.4028  0.0986
   59DOPE  H10X 7586   1.067   2.663  10.492 -0.2423  1.6915  0.5098
   59DOPE  C311 7587   0.862   2.631  10.578  0.2362 -0.0777 -0.4371
   59DOPE  H11X 7588   0.766   2.678  10.548 -0.9082 -1.4517  0.9073
   59DOPE  H11Y 7589   0.846   2.522  10.588  0.2729 -0.2305 -1.8875
   59DOPE  C312 7590   0.912   2.680  10.720 -0.7407  0.1799  0.0224
   59DOPE  H12X 7591   0.919   2.790  10.713 -0.2333  0.2609  1.5221
   59DOPE  H12Y 7592   1.014   2.638  10.733  0.4704  1.4279 -3.9674
   59DOPE  C313 7593   0.812   2.654  10.834  0.0212 -0.5796 -0.0993
   59DOPE  H13X 7594   0.713   2.697  10.810  0.1205  0.2094  0.8739
   59DOPE  H13Y 7595   0.805   2.544  10.854  0.1066 -0.9760 -2.0569
   59DOPE  C314 7596   0.862   2.711  10.966  0.1009 -0.6682 -0.6650
   59DOPE  H14X 7597   0.850   2.821  10.954 -1.9757 -1.1230 -4.2430
   59DOPE  H14Y 7598   0.972   2.701  10.970  0.0701 -1.4286 -1.2690
   59DOPE  C315 7599   0.795   2.661  11.099 -0.1149  0.7560  0.5095
   59DOPE  H15X 7600   0.831   2.732  11.177  0.5413  1.7176 -0.6422
   59DOPE  H15Y 7601   0.822   2.554  11.118 -0.9950  0.2113 -1.1684
   59DOPE  C316 7602   0.643   2.673  11.110  0.0115  0.1471  0.0752
   59DOPE  H16X 7603   0.596   2.608  11.034  0.6809  0.7468 -0.8878
   59DOPE  H16Y 7604   0.609   2.778  11.091 -2.4781 -0.4148  1.0245
   59DOPE  C317 7605   0.601   2.634  11.259  0.2473 -0.3078  0.2552
   59DOPE  H17X 7606   0.614   2.526  11.279  0.3369  0.1092  2.8153
   59DOPE  H17Y 7607   0.674   2.696  11.316  0.8495  1.7995 -2.5997
   59DOPE  C318 7608   0.469   2.682  11.312  0.2733 -0.6890 -0.5495
   59DOPE  H18X 7609   0.388   2.623  11.263 -2.1146  0.9318  1.1966
   59DOPE  H18Y 7610   0.461   2.667  11.422 -0.0419  0.3291 -0.4254
   59DOPE  H18Z 7611   0.452   2.791  11.296 -2.7203 -1.1393 -1.0849
   60DOPE     N 7612   5.649   0.281   8.828 -0.2465 -0.4609  0.0647
   60DOPE   HN1 7613   5.587   0.337   8.891  0.9505  1.2286 -0.2028
   60DOPE   HN2 7614   5.701   0.349   8.770 -0.5497 -1.3514 -1.3154
   60DOPE   HN3 7615   5.587   0.222   8.769 -0.4934 -1.5902  1.3851
   60DOPE   C12 7616   5.752   0.207   8.901  0.0203  0.5882  0.5323
   60DOPE  H12A 7617   5.705   0.188   8.999 -3.0769  1.2270 -0.6978
   60DOPE  H12B 7618   5.840   0.273   8.917  2.2202 -1.8362 -0.8471
   60DOPE   C11 7619   5.783   0.083   8.812  0.3087 -0.1121 -0.5805
   60DOPE  H11A 7620   5.688   0.025   8.804 -1.2623  2.2321  0.1585
   60DOPE  H11B 7621   5.863   0.017   8.853 -0.2946 -0.7259 -0.3634
   60DOPE     P 7622   5.964   0.090   8.625 -0.3745 -0.2767  0.2767
   60DOPE   O13 7623   5.994   0.172   8.504  0.2598 -0.4020  0.4721
   60DOPE   O14 7624   5.984  -0.061   8.615  0.4193  0.1492  0.0794
   60DOPE   O11 7625   6.062   0.133   8.748 -0.0554  0.5977 -0.0853
   60DOPE   O12 7626   5.816   0.130   8.679 -0.1194 -0.0514 -0.3762
   60DOPE    C1 7627   6.117   0.268   8.755  0.6553 -0.3471  0.4068
   60DOPE    HA 7628   6.037   0.345   8.746  0.6542 -0.3162  0.6679
   60DOPE    HB 7629   6.192   0.287   8.676  0.8978  2.2109  1.1826
   60DOPE    C2 7630   6.190   0.302   8.893 -0.7022  0.0843  0.9965
   60DOPE    HS 7631   6.268   0.224   8.905  0.3926  1.2551  1.7696
   60DOPE   O21 7632   6.105   0.318   9.005  0.2265 -0.0204 -0.1759
   60DOPE   C21 7633   6.093   0.201   9.076 -0.7352 -0.2560 -0.2644
   60DOPE   O22 7634   6.144   0.096   9.054 -0.4361  0.1238  0.4220
   60DOPE   C22 7635   6.006   0.231   9.196  0.2945 -0.4605  0.1319
   60DOPE   H2R 7636   5.900   0.224   9.164 -0.3666 -0.1219  2.1202
   60DOPE   H2S 7637   6.032   0.330   9.238  0.0669  0.1441 -1.1158
   60DOPE    C3 7638   6.269   0.439   8.886  0.1465 -0.0116  0.1073
   60DOPE    HX 7639   6.198   0.512   8.843 -1.1470 -2.2405 -1.8200
   60DOPE    HY 7640   6.348   0.427   8.809  1.3461 -1.0812  1.4441
   60DOPE   O31 7641   6.318   0.480   9.016  0.1194 -0.6514 -0.2723
   60DOPE   C31 7642   6.417   0.566   8.991 -0.0738 -0.0004 -0.5951
   60DOPE   O32 7643   6.455   0.610   8.886  0.1848  0.2508  0.6826
   60DOPE   C32 7644   6.495   0.594   9.121  0.0909 -0.0296  0.1260
   60DOPE   H2X 7645   6.505   0.704   9.114 -2.0893  0.1388 -4.1103
   60DOPE   H2Y 7646   6.427   0.579   9.208 -0.7964 -1.1292 -0.7183
   60DOPE   C23 7647   6.016   0.131   9.312  0.3245  0.8595 -0.1943
   60DOPE   H3R 7648   6.124   0.130   9.338 -0.1039  1.5141  1.7519
   60DOPE   H3S 7649   5.984   0.031   9.277 -1.8068  1.3549  0.2276
   60DOPE   C24 7650   5.926   0.156   9.436  0.6893  0.2309  0.1737
   60DOPE   H4R 7651   5.836   0.093   9.428  0.2159  0.9436 -0.2693
   60DOPE   H4S 7652   5.882   0.257   9.420 -0.7309 -0.3729  0.1941
   60DOPE   C25 7653   5.992   0.156   9.569  0.5061 -0.1330 -0.3227
   60DOPE   H5R 7654   6.080   0.221   9.555  0.1109  0.7251  0.9655
   60DOPE   H5S 7655   6.027   0.052   9.585 -1.8696 -0.7473  1.5065
   60DOPE   C26 7656   5.908   0.203   9.685  0.2783 -0.6422 -0.3314
   60DOPE   H6R 7657   5.874   0.307   9.664 -0.1886 -1.1151 -2.0564
   60DOPE   H6S 7658   5.973   0.209   9.775 -0.7383 -0.1105  0.3898
   60DOPE   C27 7659   5.777   0.123   9.722  0.1633 -0.1638 -0.4478
   60DOPE   H7R 7660   5.808   0.020   9.750 -1.3892 -0.2364  1.1337
   60DOPE   H7S 7661   5.714   0.111   9.631 -1.8277 -1.8561  1.0479
   60DOPE   C28 7662   5.695   0.155   9.845  0.2549  0.1902 -0.3880
   60DOPE   H8R 7663   5.652   0.057   9.875  2.7678 -1.1446 -0.8542
   60DOPE   H8S 7664   5.617   0.223   9.804 -0.4605 -0.6724 -0.4747
   60DOPE   C29 7665   5.769   0.211   9.966 -0.0202  0.5631  0.0106
   60DOPE   H9R 7666   5.879   0.202   9.960 -0.1448 -0.7742 -0.5410
   60DOPE  C210 7667   5.720   0.279  10.070  0.3873 -0.6086 -0.3133
   60DOPE  H10R 7668   5.779   0.292  10.162  0.1042  1.3401 -0.3629
   60DOPE  C211 7669   5.570   0.303  10.092  0.4651 -0.0239 -0.0083
   60DOPE  H11R 7670   5.510   0.245  10.020  0.0092  0.9208 -0.3958
   60DOPE  H11S 7671   5.546   0.410  10.077  1.3561  0.2041  0.0954
   60DOPE  C212 7672   5.536   0.235  10.224  0.2139 -0.5568 -0.1797
   60DOPE  H12R 7673   5.553   0.126  10.209  1.9022 -0.3692  0.1745
   60DOPE  H12S 7674   5.427   0.240  10.245 -0.2616  1.6413 -2.7327
   60DOPE  C213 7675   5.600   0.304  10.343 -0.6414  0.0654  0.2991
   60DOPE  H13R 7676   5.593   0.415  10.337 -0.4824  0.0748  0.3047
   60DOPE  H13S 7677   5.704   0.267  10.354 -1.3258 -1.7840  0.9168
   60DOPE  C214 7678   5.535   0.254  10.480 -0.4126  0.3839  0.3808
   60DOPE  H14R 7679   5.539   0.144  10.470 -1.7297  0.3286  0.3126
   60DOPE  H14S 7680   5.426   0.271  10.469 -0.7007  0.1259  2.3747
   60DOPE  C215 7681   5.592   0.307  10.612  0.1327  0.3476 -0.0527
   60DOPE  H15R 7682   5.554   0.410  10.629  2.2135  1.0156  0.8888
   60DOPE  H15S 7683   5.703   0.305  10.617  0.1955 -0.9010 -1.2629
   60DOPE  C216 7684   5.541   0.221  10.728  0.9617 -0.3425  0.9338
   60DOPE  H16R 7685   5.565   0.113  10.714 -0.8961 -0.5339 -1.5871
   60DOPE  H16S 7686   5.430   0.227  10.730  1.0410  3.2494  0.9866
   60DOPE  C217 7687   5.593   0.262  10.868 -0.2914 -0.2383 -0.2192
   60DOPE  H17R 7688   5.535   0.351  10.900  1.3499  1.3500 -1.4765
   60DOPE  H17S 7689   5.695   0.304  10.857 -1.5624  2.7781 -1.5811
   60DOPE  C218 7690   5.594   0.153  10.979  0.4380  0.5951  0.3367
   60DOPE  H18R 7691   5.595   0.202  11.079  3.2098 -0.0746  0.7138
   60DOPE  H18S 7692   5.685   0.091  10.961 -0.2635 -0.2683 -0.3231
   60DOPE  H18T 7693   5.506   0.087  10.970  2.0493 -1.6693  0.2113
   60DOPE   C33 7694   6.631   0.526   9.134  0.5860 -0.8633 -0.1176
   60DOPE   H3X 7695   6.712   0.576   9.077  1.0499 -1.3156  0.1462
   60DOPE   H3Y 7696   6.615   0.431   9.080  0.8114  0.1729 -2.1166
   60DOPE   C34 7697   6.669   0.492   9.276  0.0457  0.4129  0.1551
   60DOPE   H4X 7698   6.682   0.586   9.334  0.8176  1.0569 -1.0174
   60DOPE   H4Y 7699   6.584   0.436   9.320 -0.6811 -1.4147 -3.2268
   60DOPE   C35 7700   6.809   0.426   9.285 -0.1084 -0.2094  0.1580
   60DOPE   H5X 7701   6.880   0.490   9.229  0.0042  0.0244  0.5606
   60DOPE   H5Y 7702   6.791   0.326   9.241 -1.0550 -0.0877  0.2430
   60DOPE   C36 7703   6.864   0.435   9.429  0.4061 -0.0916 -0.2079
   60DOPE   H6X 7704   6.796   0.369   9.488  2.1510 -0.6108  1.2993
   60DOPE   H6Y 7705   6.871   0.537   9.471 -0.5501 -0.8802  2.0481
   60DOPE   C37 7706   7.011   0.386   9.444 -0.2351 -0.3341  0.0089
   60DOPE   H7X 7707   7.005   0.279   9.416 -2.5992 -0.1257 -0.5643
   60DOPE   H7Y 7708   7.080   0.444   9.379  0.8950 -1.0725  0.5214
   60DOPE   C38 7709   7.043   0.389   9.600 -0.2639 -0.0176 -0.2771
   60DOPE   H8X 7710   6.957   0.345   9.656  0.8401 -0.8018  0.8453
   60DOPE   H8Y 7711   7.052   0.496   9.626  1.7141 -0.1019 -0.5287
   60DOPE   C39 7712   7.170   0.312   9.624 -0.0646  0.2001 -0.3547
   60DOPE   H9X 7713   7.227   0.279   9.536 -1.1322 -1.2445 -0.5435
   60DOPE  C310 7714   7.207   0.288   9.749  0.1829 -0.3956 -1.0628
   60DOPE  H10X 7715   7.300   0.234   9.772 -0.4632 -0.8700  0.5964
   60DOPE  C311 7716   7.133   0.334   9.875 -0.3351 -0.1135  0.5796
   60DOPE  H11X 7717   7.213   0.379   9.937  0.3900 -1.0056  0.3072
   60DOPE  H11Y 7718   7.055   0.410   9.853  0.5305  0.4337 -0.7383
   60DOPE  C312 7719   7.077   0.217   9.961 -0.2165  0.2407  0.5243
   60DOPE  H12X 7720   7.143   0.128   9.956 -0.1398  0.1692  2.2050
   60DOPE  H12Y 7721   6.979   0.198   9.913  0.7695  0.4236 -1.7249
   60DOPE  C313 7722   7.056   0.258  10.105  0.5495 -0.0546 -0.5887
   60DOPE  H13X 7723   7.155   0.285  10.146  0.1896  0.7253 -0.2173
   60DOPE  H13Y 7724   6.993   0.349  10.112  0.1148 -0.4789  2.1536
   60DOPE  C314 7725   7.005   0.147  10.199 -0.1709  0.1347 -0.9290
   60DOPE  H14X 7726   7.077   0.064  10.181  1.8615  1.5597  0.2235
   60DOPE  H14Y 7727   6.906   0.110  10.166 -0.9415  1.7900 -0.5669
   60DOPE  C315 7728   7.012   0.171  10.348  0.7484 -0.4780  0.2001
   60DOPE  H15X 7729   6.957   0.085  10.392 -2.8366  0.7133 -1.5699
   60DOPE  H15Y 7730   6.947   0.259  10.366 -0.1437 -0.6790 -1.7727
   60DOPE  C316 7731   7.157   0.199  10.401  0.2182 -0.2530  0.7408
   60DOPE  H16X 7732   7.174   0.307  10.385  2.0545 -0.7183 -0.8578
   60DOPE  H16Y 7733   7.235   0.142  10.346 -1.3778 -1.5161 -0.3050
   60DOPE  C317 7734   7.164   0.166  10.554 -0.5721  0.5105  0.0324
   60DOPE  H17X 7735   7.086   0.223  10.608 -1.6194 -0.1468 -0.7273
   60DOPE  H17Y 7736   7.138   0.058  10.555  1.0416  0.0873 -0.5337
   60DOPE  C318 7737   7.306   0.173  10.618  0.0365 -0.2697 -0.6938
   60DOPE  H18X 7738   7.317   0.150  10.727  0.5613  2.3250 -0.1264
   60DOPE  H18Y 7739   7.380   0.118  10.556  0.8849  1.4934 -1.3287
   60DOPE  H18Z 7740   7.332   0.281  10.608 -1.1357 -0.1329 -2.8444
   6123SM     N 7741   3.527   4.575  13.784 -0.0906  0.5453 -0.3831
   6123SM   C15 7742   3.444   4.636  13.893  0.4786 -0.8266 -0.5906
   6123SM  H15A 7743   3.355   4.585  13.926  0.6615 -0.3676  0.6452
   6123SM  H15B 7744   3.404   4.731  13.859 -2.4501 -0.6959  2.7187
   6123SM  H15C 7745   3.511   4.655  13.975  0.1257 -2.8628  0.2329
   6123SM   C14 7746   3.625   4.683  13.755 -0.2688 -0.2955 -0.0894
   6123SM  H14A 7747   3.579   4.759  13.694  0.3352  0.1758  0.0375
   6123SM  H14B 7748   3.719   4.653  13.711 -0.2844  0.2039 -0.4663
   6123SM  H14C 7749   3.653   4.720  13.853 -0.8915 -0.9204  0.3370
   6123SM   C13 7750   3.593   4.449  13.837  0.3754 -0.4531  0.2726
   6123SM  H13A 7751   3.517   4.373  13.852 -0.3859 -0.0286 -1.1887
   6123SM  H13B 7752   3.637   4.461  13.934 -3.9029  0.7910  2.2821
   6123SM  H13C 7753   3.665   4.401  13.772  1.1045 -0.8114  1.3339
   6123SM   C12 7754   3.440   4.538  13.664 -0.5782 -0.1540  0.1893
   6123SM  H12A 7755   3.344   4.507  13.704 -0.3824 -0.4361  0.4509
   6123SM  H12B 7756   3.484   4.463  13.600 -1.7119 -0.8503  0.2105
   6123SM   C11 7757   3.387   4.652  13.571 -0.2990  0.4220  0.4788
   6123SM  H11A 7758   3.323   4.616  13.489 -1.2106  0.8899  0.9687
   6123SM  H11B 7759   3.475   4.697  13.520 -1.9592 -1.0992 -4.1742
   6123SM     P 7760   3.260   4.882  13.591 -0.0081 -0.1407  0.0508
   6123SM   O13 7761   3.132   4.913  13.665 -0.6709  0.1441  0.0916
   6123SM   O14 7762   3.366   4.982  13.612 -0.6727 -0.2877  0.8836
   6123SM   O11 7763   3.234   4.837  13.445  0.4142 -0.1395 -0.5868
   6123SM   O12 7764   3.320   4.748  13.657  0.3302  0.0666  0.2866
   6123SM   C1S 7765   3.196   4.939  13.349  0.2639  0.5655  0.0616
   6123SM   H1S 7766   3.246   5.037  13.367  1.7625 -0.2571  0.6349
   6123SM   H1T 7767   3.089   4.966  13.363  0.1374 -0.1075  0.4433
   6123SM    NF 7768   3.204   4.995  13.110 -0.1378  0.2242  0.3320
   6123SM   HNF 7769   3.130   4.993  13.043  0.7316  1.0071 -0.6975
   6123SM   C2S 7770   3.209   4.886  13.202  0.1475 -0.0211 -0.2397
   6123SM   H2S 7771   3.307   4.834  13.196  0.0322 -0.1355 -1.4917
   6123SM   C3S 7772   3.096   4.788  13.174 -0.1120  0.0927  0.0641
   6123SM   H3S 7773   3.001   4.845  13.183 -0.5543 -0.5597 -0.3550
   6123SM    O3 7774   3.090   4.690  13.279  0.2996 -0.2313 -0.2441
   6123SM   HO3 7775   3.153   4.721  13.345  1.5348  1.7427 -2.2079
   6123SM   C4S 7776   3.093   4.737  13.033  0.1806  0.0737 -0.3572
   6123SM   H4S 7777   3.012   4.784  12.975 -1.2129 -1.6167  0.1146
   6123SM   C5S 7778   3.165   4.638  12.983  0.1411 -0.6658  0.7509
   6123SM   H5S 7779   3.242   4.593  13.047  2.2541  1.6320  0.0239
   6123SM   C6S 7780   3.141   4.586  12.842  0.3336  0.7557 -0.8565
   6123SM   H6S 7781   3.157   4.476  12.842 -2.2653  0.2890 -1.6964
   6123SM   H6T 7782   3.217   4.627  12.773 -0.2695  1.8147 -0.9056
   6123SM   C7S 7783   3.003   4.610  12.783 -0.8971  0.0419 -0.7314
   6123SM   H7S 7784   3.002   4.719  12.762 -1.3871  0.0527 -0.6569
   6123SM   H7T 7785   2.925   4.591  12.860 -0.5002 -0.7062 -0.4956
   6123SM   C8S 7786   2.965   4.532  12.661  0.2032  0.0847  0.5807
   6123SM   H8S 7787   2.868   4.577  12.631  0.2669 -0.0942  0.0993
   6123SM   H8T 7788   2.950   4.425  12.685  0.3888 -0.6185 -2.1792
   6123SM   C9S 7789   3.063   4.553  12.543 -0.4328  0.0029 -0.6565
   6123SM   H9S 7790   3.165   4.517  12.570 -0.4560 -0.7432 -1.5133
   6123SM   H9T 7791   3.082   4.660  12.520 -0.9028  0.1027 -0.5897
   6123SM  C10S 7792   3.027   4.468  12.418  0.7315  0.2358  0.1903
   6123SM  H10S 7793   2.926   4.486  12.376  1.1360 -2.8348 -2.4700
   6123SM  H10T 7794   3.015   4.366  12.463 -1.4835  0.9366  1.3336
   6123SM  C11S 7795   3.117   4.474  12.296  0.0041 -0.2099 -0.6542
   6123SM  H11S 7796   3.206   4.410  12.309  1.4134  1.8423  0.3524
   6123SM  H11T 7797   3.161   4.576  12.294 -1.0843  0.2679 -0.8934
   6123SM  C12S 7798   3.059   4.455  12.156 -0.1855 -0.2139 -0.6503
   6123SM  H12S 7799   2.973   4.523  12.136 -1.2245 -1.2212  0.3288
   6123SM  H12T 7800   3.031   4.350  12.133 -0.7819 -0.1709 -0.1340
   6123SM  C13S 7801   3.170   4.492  12.053 -0.0336 -0.4986 -0.2014
   6123SM  H13S 7802   3.261   4.429  12.060 -0.2607 -0.7716  0.3146
   6123SM  H13T 7803   3.192   4.599  12.071 -0.2663 -0.5268  0.2558
   6123SM  C14S 7804   3.109   4.489  11.910  0.5130  0.6213  0.3852
   6123SM  H14S 7805   3.009   4.536  11.922 -0.3272 -0.9675 -0.0402
   6123SM  H14T 7806   3.093   4.384  11.877 -2.1509  0.8483  0.7217
   6123SM  C15S 7807   3.196   4.562  11.807  0.5833  0.0053 -0.8267
   6123SM  H15S 7808   3.287   4.507  11.777 -0.7575 -2.0888 -1.2618
   6123SM  H15T 7809   3.227   4.656  11.857  0.1021 -0.3084  0.0978
   6123SM  C16S 7810   3.111   4.587  11.683 -0.1131 -0.6533 -0.0118
   6123SM  H16S 7811   3.017   4.625  11.727  0.3118 -0.5050  0.7947
   6123SM  H16T 7812   3.088   4.490  11.633  0.7862 -2.1104  2.1807
   6123SM  C17S 7813   3.164   4.687  11.580 -0.3992  0.0038  0.5151
   6123SM  H17S 7814   3.252   4.643  11.529  0.4637  0.2303  1.7635
   6123SM  H17T 7815   3.201   4.776  11.634  0.4966  1.8169 -2.8339
   6123SM  C18S 7816   3.067   4.737  11.474  0.5445 -0.3573 -0.0398
   6123SM  H18S 7817   3.120   4.771  11.383 -0.7326  0.3481 -0.5448
   6123SM  H18T 7818   2.993   4.813  11.506 -0.8517 -1.9180  0.6007
   6123SM  H18U 7819   3.010   4.647  11.443 -2.0751 -0.5676  4.4946
   6123SM   C1F 7820   3.276   5.107  13.107 -0.8809  0.2602 -0.3385
   6123SM    OF 7821   3.388   5.105  13.159 -0.3407 -0.0328  0.0931
   6123SM   C2F 7822   3.208   5.224  13.051 -0.0510  0.1241  0.2609
   6123SM   H2F 7823   3.207   5.307  13.125  1.7600  0.7219 -0.3264
   6123SM   H2G 7824   3.100   5.203  13.035 -0.2687  2.1121 -1.3309
   6123SM   C3F 7825   3.279   5.283  12.929  0.0870 -0.0585  1.1864
   6123SM   H3F 7826   3.383   5.317  12.952  0.1416  0.3984  0.3127
   6123SM   H3G 7827   3.222   5.374  12.900 -1.5892 -1.7500 -1.1494
   6123SM   C4F 7828   3.269   5.183  12.813 -0.3609  0.3030  0.3132
   6123SM   H4F 7829   3.170   5.132  12.814 -0.4621  0.5085  1.0101
   6123SM   H4G 7830   3.345   5.105  12.834 -1.5253 -0.4681  1.9718
   6123SM   C5F 7831   3.301   5.252  12.680 -0.3040  0.0080 -0.5101
   6123SM   H5F 7832   3.402   5.298  12.690 -0.7967  1.3738 -1.5098
   6123SM   H5G 7833   3.239   5.340  12.653  2.8388  2.5151 -0.1940
   6123SM   C6F 7834   3.315   5.165  12.564 -0.2478  0.0272 -0.0978
   6123SM   H6F 7835   3.226   5.099  12.561 -0.5189  0.3840 -0.0732
   6123SM   H6G 7836   3.410   5.108  12.568  1.5359  2.5058 -2.6022
   6123SM   C7F 7837   3.324   5.243  12.434 -0.3162 -0.1194 -0.6329
   6123SM   H7F 7838   3.404   5.318  12.452 -0.9088  0.4931 -0.5020
   6123SM   H7G 7839   3.230   5.300  12.421  0.3537  0.7444 -1.9308
   6123SM   C8F 7840   3.367   5.162  12.310  0.0722  1.1664  0.0184
   6123SM   H8F 7841   3.298   5.076  12.317  1.6018 -0.0185  1.3440
   6123SM   H8G 7842   3.472   5.129  12.328 -0.1833 -1.6788 -2.8094
   6123SM   C9F 7843   3.349   5.244  12.178 -0.4426 -0.0029 -0.1049
   6123SM   H9F 7844   3.417   5.331  12.183 -2.8144  1.9268  0.6359
   6123SM   H9G 7845   3.243   5.277  12.172 -0.8936 -1.0742  1.4715
   6123SM  C10F 7846   3.374   5.160  12.056  0.0489 -0.0449  0.3538
   6123SM  H10F 7847   3.285   5.095  12.048  0.8404 -0.9631 -1.5098
   6123SM  H10G 7848   3.475   5.116  12.068  1.3603  2.2658 -1.3011
   6123SM  C11F 7849   3.372   5.245  11.933  0.2215  0.1403 -0.3415
   6123SM  H11F 7850   3.429   5.341  11.935 -0.0011  0.2717  1.7091
   6123SM  H11G 7851   3.267   5.277  11.923 -0.4023 -1.4822  0.5315
   6123SM  C12F 7852   3.420   5.160  11.808  0.3316  0.5689 -0.1345
   6123SM  H12F 7853   3.366   5.062  11.812 -0.2510  0.8878 -0.0197
   6123SM  H12G 7854   3.527   5.134  11.823  0.8268  2.0726 -0.8626
   6123SM  C13F 7855   3.405   5.232  11.678  0.5916  0.1380 -0.2828
   6123SM  H13F 7856   3.445   5.335  11.684 -1.4387  0.8865  1.4613
   6123SM  H13G 7857   3.299   5.262  11.670  0.5567  0.1475  0.1828
   6123SM  C14F 7858   3.439   5.149  11.553  0.0945  0.0357  0.0181
   6123SM  H14F 7859   3.438   5.041  11.580 -0.9827  0.1211  0.3948
   6123SM  H14G 7860   3.541   5.167  11.514  0.2696 -0.1669  0.3731
   6123SM  C15F 7861   3.339   5.170  11.440  0.0529 -0.2553  0.3793
   6123SM  H15F 7862   3.333   5.280  11.420 -1.0453 -0.3609  0.0647
   6123SM  H15G 7863   3.244   5.134  11.483 -0.0920  0.2163  0.4599
   6123SM  C16F 7864   3.366   5.084  11.321 -0.3100  0.6454  0.0218
   6123SM  H16F 7865   3.367   4.980  11.360 -0.8926  1.2380  1.6964
   6123SM  H16G 7866   3.465   5.104  11.273 -0.6134  0.1012 -0.8506
   6123SM  C17F 7867   3.259   5.081  11.208 -0.0151  0.3229  0.5814
   6123SM  H17F 7868   3.181   5.013  11.250 -0.6018  1.1307  0.8157
   6123SM  H17G 7869   3.313   5.028  11.126  2.1146 -0.1010  2.1513
   6123SM  C18F 7870   3.176   5.212  11.177 -0.3188  0.7828 -0.1939
   6123SM  H18F 7871   3.248   5.288  11.141  2.4790 -2.5058 -2.2623
   6123SM  H18G 7872   3.131   5.243  11.274  1.6503  1.9025  0.4254
   6123SM  C19F 7873   3.063   5.210  11.073 -0.1759  0.3691  0.1716
   6123SM  H19F 7874   3.006   5.115  11.089 -0.1682  0.3437  0.0528
   6123SM  H19G 7875   3.109   5.204  10.972  2.6307  1.6565  1.2973
   6123SM  C20F 7876   2.968   5.328  11.079 -0.2996 -1.0766 -0.4194
   6123SM  H20F 7877   2.911   5.336  11.174 -0.2230 -0.1859 -0.4383
   6123SM  H20G 7878   2.886   5.311  11.007 -0.6937 -2.2441  0.2882
   6123SM  C21F 7879   3.040   5.459  11.048 -0.0411 -0.2959  0.3272
   6123SM  H21F 7880   3.081   5.446  10.946 -1.1418 -2.7107  0.1134
   6123SM  H21G 7881   3.126   5.476  11.116  0.9167 -1.6445 -0.4854
   6123SM  C22F 7882   2.942   5.580  11.062 -0.2556 -0.5530  0.3868
   6123SM  H22F 7883   2.882   5.558  11.154  1.8277  1.2799  2.2788
   6123SM  H22G 7884   2.876   5.571  10.973  1.1602  1.7093 -0.9770
   6123SM  C23F 7885   3.013   5.714  11.058 -0.4826  0.1488 -0.1538
   6123SM  H23F 7886   2.942   5.799  11.048  0.0222  0.8764  1.9546
   6123SM  H23G 7887   3.095   5.723  10.984  0.2202  1.4788  0.7507
   6123SM  H23H 7888   3.069   5.726  11.153 -2.4442  2.9116  0.7679
   6223SM     N 7889   3.006   4.461  13.562  0.2686 -0.8537 -0.4176
   6223SM   C15 7890   3.018   4.602  13.592  0.5941 -0.2695 -0.5143
   6223SM  H15A 7891   2.936   4.632  13.655  0.4979 -0.0817 -0.7288
   6223SM  H15B 7892   3.005   4.663  13.504  2.4522  0.0492 -0.6072
   6223SM  H15C 7893   3.113   4.633  13.633 -0.0618  0.5523  0.4409
   6223SM   C14 7894   2.886   4.444  13.484  0.4397 -0.5235  0.7523
   6223SM  H14A 7895   2.886   4.352  13.428  1.0939 -0.3185  0.4068
   6223SM  H14B 7896   2.882   4.517  13.404  0.4678 -0.8223  0.4792
   6223SM  H14C 7897   2.795   4.444  13.542  0.4100 -2.8509  0.7985
   6223SM   C13 7898   3.120   4.410  13.473  0.5493 -0.2449 -0.2880
   6223SM  H13A 7899   3.106   4.309  13.440 -3.1288 -0.5522  1.7288
   6223SM  H13B 7900   3.212   4.411  13.530  1.2720  0.2575 -1.4358
   6223SM  H13C 7901   3.132   4.471  13.384  0.3390 -0.8331 -0.7239
   6223SM   C12 7902   2.982   4.384  13.686 -1.1720  0.2383  0.3728
   6223SM  H12A 7903   2.970   4.282  13.652 -1.3788 -0.3221  2.0555
   6223SM  H12B 7904   2.887   4.408  13.731 -1.7295  0.1969 -0.7243
   6223SM   C11 7905   3.102   4.385  13.799 -0.2116  0.0220  0.7065
   6223SM  H11A 7906   3.060   4.336  13.890 -1.7531  0.1945  0.1034
   6223SM  H11B 7907   3.134   4.490  13.816  0.7609 -0.6131  3.4652
   6223SM     P 7908   3.286   4.187  13.802 -0.5017  0.1722  0.1133
   6223SM   O13 7909   3.412   4.165  13.724 -0.0686  0.8220 -0.4044
   6223SM   O14 7910   3.304   4.207  13.947 -0.1478  0.6423 -0.4374
   6223SM   O11 7911   3.175   4.075  13.774  0.1381  0.3402  0.6425
   6223SM   O12 7912   3.218   4.316  13.751 -0.0892  0.4625 -0.3365
   6223SM   C1S 7913   3.119   4.061  13.645 -0.1595  0.2705  0.0728
   6223SM   H1S 7914   3.108   4.153  13.584 -3.1234 -0.7545 -1.0979
   6223SM   H1T 7915   3.011   4.036  13.651 -0.9406  3.4598  1.0591
   6223SM    NF 7916   3.125   3.965  13.418 -0.1565  0.1101 -0.1663
   6223SM   HNF 7917   3.057   3.900  13.387 -1.5662  1.1269  0.6638
   6223SM   C2S 7918   3.184   3.952  13.550  0.6408 -0.8317  0.4547
   6223SM   H2S 7919   3.289   3.988  13.543  0.3063 -0.1471 -2.5659
   6223SM   C3S 7920   3.164   3.813  13.617  0.5329  0.5028 -0.1082
   6223SM   H3S 7921   3.054   3.796  13.621  0.4037  1.4945  2.3440
   6223SM    O3 7922   3.192   3.812  13.758 -0.2136 -0.1171  0.2903
   6223SM   HO3 7923   3.219   3.902  13.773  0.8545 -0.7473  2.6036
   6223SM   C4S 7924   3.226   3.707  13.535  0.1298  0.1487 -0.7261
   6223SM   H4S 7925   3.155   3.675  13.457  0.0561 -0.7964 -0.2746
   6223SM   C5S 7926   3.345   3.647  13.556 -0.7391  0.3649 -0.1254
   6223SM   H5S 7927   3.416   3.688  13.629 -0.4978 -0.4716  0.1211
   6223SM   C6S 7928   3.404   3.529  13.468  0.4335  0.0064 -0.0985
   6223SM   H6S 7929   3.400   3.434  13.527 -0.6429 -0.2729 -0.6112
   6223SM   H6T 7930   3.512   3.546  13.446  0.1970  0.3835 -0.9945
   6223SM   C7S 7931   3.344   3.500  13.331  0.0181  0.3210  0.1621
   6223SM   H7S 7932   3.234   3.483  13.343  0.0383  1.1185  1.7243
   6223SM   H7T 7933   3.391   3.404  13.300 -1.0259 -0.7629  1.7896
   6223SM   C8S 7934   3.371   3.616  13.227  0.3766 -0.2702  0.1000
   6223SM   H8S 7935   3.476   3.607  13.192 -0.2056  0.5460 -2.0496
   6223SM   H8T 7936   3.368   3.716  13.275  3.7547 -0.6577  1.3406
   6223SM   C9S 7937   3.275   3.613  13.107 -0.5808 -0.1958 -0.1287
   6223SM   H9S 7938   3.172   3.637  13.142 -0.0859  0.5891  0.8232
   6223SM   H9T 7939   3.274   3.511  13.063 -0.2298 -0.0167 -0.5620
   6223SM  C10S 7940   3.316   3.708  12.992  0.4929 -0.1865  0.9177
   6223SM  H10S 7941   3.427   3.708  12.991  0.5761 -0.8914 -2.4736
   6223SM  H10T 7942   3.295   3.813  13.022  2.4945  0.8348 -1.0408
   6223SM  C11S 7943   3.236   3.671  12.866 -1.1659 -0.1570  0.3292
   6223SM  H11S 7944   3.150   3.742  12.865  0.0792  1.3987  0.2045
   6223SM  H11T 7945   3.206   3.564  12.873  1.7391 -0.9812  1.3629
   6223SM  C12S 7946   3.322   3.691  12.743  0.0563  0.2533 -0.0545
   6223SM  H12S 7947   3.405   3.619  12.756  0.5904  0.8546 -0.0886
   6223SM  H12T 7948   3.354   3.797  12.738 -0.6591  0.4355 -1.2848
   6223SM  C13S 7949   3.237   3.669  12.612  0.6971  0.7896 -0.1657
   6223SM  H13S 7950   3.150   3.739  12.609  1.2051  1.7197  2.9080
   6223SM  H13T 7951   3.196   3.566  12.617  0.4194  0.9546  1.8883
   6223SM  C14S 7952   3.322   3.684  12.489  0.1401 -1.1349  0.2470
   6223SM  H14S 7953   3.396   3.601  12.494  0.1863 -1.0729  0.6822
   6223SM  H14T 7954   3.379   3.779  12.495 -0.4356 -0.8095  0.7155
   6223SM  C15S 7955   3.240   3.668  12.359 -0.9718 -0.6213  0.0725
   6223SM  H15S 7956   3.168   3.747  12.330  0.2231  0.1406 -0.9243
   6223SM  H15T 7957   3.186   3.571  12.359 -0.8918 -0.6739 -0.7818
   6223SM  C16S 7958   3.340   3.663  12.237  0.7523 -0.0323  0.6919
   6223SM  H16S 7959   3.289   3.636  12.143  2.5845 -1.1891 -0.0313
   6223SM  H16T 7960   3.402   3.575  12.268 -1.2508 -1.7217  0.1502
   6223SM  C17S 7961   3.421   3.785  12.207 -0.5617  0.0002 -0.5384
   6223SM  H17S 7962   3.479   3.823  12.294  1.7571  0.4474 -2.1683
   6223SM  H17T 7963   3.355   3.869  12.177 -1.6863 -0.0914  1.4794
   6223SM  C18S 7964   3.508   3.764  12.087 -0.2472 -0.2527 -0.1193
   6223SM  H18S 7965   3.551   3.857  12.044 -0.9379  0.3297  0.4142
   6223SM  H18T 7966   3.446   3.710  12.012  1.4076  0.6038 -2.2155
   6223SM  H18U 7967   3.594   3.695  12.100  1.8272  2.2940  0.6574
   6223SM   C1F 7968   3.147   4.070  13.337  0.3126  0.2955  0.1615
   6223SM    OF 7969   3.221   4.157  13.368 -0.1232  0.1170 -0.2924
   6223SM   C2F 7970   3.071   4.070  13.207 -0.1689  0.3784 -0.0308
   6223SM   H2F 7971   2.962   4.089  13.218 -0.7598 -0.9556 -2.9134
   6223SM   H2G 7972   3.085   3.967  13.170 -1.8458  0.1058  0.0256
   6223SM   C3F 7973   3.145   4.167  13.113 -0.1732 -0.3105 -0.3644
   6223SM   H3F 7974   3.252   4.138  13.115 -0.0845  0.0362 -0.0706
   6223SM   H3G 7975   3.132   4.274  13.140 -2.0477 -0.2827 -1.2223
   6223SM   C4F 7976   3.085   4.154  12.968  0.1552 -0.9445  0.4562
   6223SM   H4F 7977   3.123   4.241  12.910  1.2569 -0.0994  2.3703
   6223SM   H4G 7978   2.974   4.155  12.972  0.1428 -2.3390  1.0500
   6223SM   C5F 7979   3.142   4.031  12.897  0.2404  0.3189  0.2417
   6223SM   H5F 7980   3.123   3.940  12.959  2.5472 -1.3821 -1.3840
   6223SM   H5G 7981   3.253   4.027  12.897  0.2096 -2.0224  0.5396
   6223SM   C6F 7982   3.085   4.014  12.758 -0.1071  0.2800 -0.0169
   6223SM   H6F 7983   2.978   4.045  12.759 -0.3295 -0.4887  1.2782
   6223SM   H6G 7984   3.087   3.913  12.713 -0.0184 -0.2053  1.0510
   6223SM   C7F 7985   3.164   4.114  12.672  0.0983  0.5996  0.2803
   6223SM   H7F 7986   3.263   4.067  12.654 -0.5457 -0.4441 -0.6256
   6223SM   H7G 7987   3.191   4.208  12.725  2.5063  0.6988 -0.9519
   6223SM   C8F 7988   3.095   4.120  12.533 -0.3056  0.2094 -0.2072
   6223SM   H8F 7989   2.998   4.174  12.534 -0.2276  0.3536 -0.4110
   6223SM   H8G 7990   3.065   4.016  12.507  0.2411 -0.3634  1.3640
   6223SM   C9F 7991   3.181   4.151  12.417 -0.7926 -0.6972  0.2312
   6223SM   H9F 7992   3.261   4.074  12.419  0.0096  0.1313  0.6258
   6223SM   H9G 7993   3.237   4.247  12.421  2.0409 -2.2742  1.4824
   6223SM  C10F 7994   3.116   4.106  12.283 -0.6118  0.2695  0.0368
   6223SM  H10F 7995   3.029   4.174  12.271  0.2282  1.3552 -0.1014
   6223SM  H10G 7996   3.078   4.004  12.305 -0.6643  0.6290  1.7557
   6223SM  C11F 7997   3.208   4.117  12.157 -0.0422 -0.2905  0.2433
   6223SM  H11F 7998   3.294   4.048  12.166  0.4788  0.1554 -1.0999
   6223SM  H11G 7999   3.247   4.221  12.164 -2.6819  0.6946  2.3129
   6223SM  C12F 8000   3.125   4.105  12.025  0.3594 -0.0986 -0.0828
   6223SM  H12F 8001   3.159   4.178  11.948 -4.2099  2.4279 -0.0649
   6223SM  H12G 8002   3.019   4.122  12.051  0.1329 -1.6402  0.0557
   6223SM  C13F 8003   3.121   3.960  11.978  0.3960 -0.0564 -0.3955
   6223SM  H13F 8004   3.080   3.896  12.059 -1.6310 -0.8101 -1.9248
   6223SM  H13G 8005   3.230   3.938  11.968  0.8211  1.0704  1.3391
   6223SM  C14F 8006   3.037   3.951  11.848 -0.3337 -0.3709  0.1994
   6223SM  H14F 8007   2.937   3.987  11.880 -0.5209  0.3317 -1.1319
   6223SM  H14G 8008   3.043   3.846  11.811  0.5508  0.3528 -1.8074
   6223SM  C15F 8009   3.090   4.046  11.738 -0.3822  0.5605  0.9188
   6223SM  H15F 8010   3.200   4.043  11.722 -0.5485  0.5749 -0.2735
   6223SM  H15G 8011   3.080   4.150  11.776 -0.3856  0.6924  0.5576
   6223SM  C16F 8012   3.022   4.039  11.606  0.0144  0.3222 -0.1072
   6223SM  H16F 8013   3.061   4.124  11.546 -1.2589  1.2007  0.2575
   6223SM  H16G 8014   2.915   4.067  11.622  0.6680  1.9998  1.6412
   6223SM  C17F 8015   3.043   3.913  11.528  0.1646 -0.1125 -0.6002
   6223SM  H17F 8016   3.005   3.823  11.582 -0.9103 -0.1084 -1.3224
   6223SM  H17G 8017   3.153   3.902  11.511  0.1318  1.5564 -2.1350
   6223SM  C18F 8018   2.985   3.904  11.386  0.6524 -0.4782 -0.9147
   6223SM  H18F 8019   3.013   3.987  11.318  0.0952  0.4599 -0.0268
   6223SM  H18G 8020   2.875   3.910  11.393  0.4659 -0.9652 -2.9266
   6223SM  C19F 8021   3.020   3.774  11.315 -0.5459  0.0201 -0.0940
   6223SM  H19F 8022   2.986   3.787  11.210 -0.1289  0.9112 -0.1237
   6223SM  H19G 8023   2.951   3.699  11.358 -0.2627 -0.7909 -0.9919
   6223SM  C20F 8024   3.163   3.723  11.327 -0.1095  0.7274 -0.0977
   6223SM  H20F 8025   3.173   3.655  11.414  3.0663 -0.4241 -1.2216
   6223SM  H20G 8026   3.223   3.815  11.344 -1.8278  1.9574 -0.3635
   6223SM  C21F 8027   3.203   3.639  11.202 -0.3037  0.3836 -0.5274
   6223SM  H21F 8028   3.173   3.699  11.114  0.2360  0.8422 -0.4028
   6223SM  H21G 8029   3.149   3.542  11.197  2.3796 -1.2476 -0.2216
   6223SM  C22F 8030   3.355   3.624  11.190 -0.1644  0.5846 -0.3053
   6223SM  H22F 8031   3.401   3.720  11.220 -3.2409  2.2404 -0.4565
   6223SM  H22G 8032   3.393   3.604  11.088 -0.7449 -0.5998 -0.3049
   6223SM  C23F 8033   3.413   3.508  11.274  0.1028  0.0101 -0.3906
   6223SM  H23F 8034   3.519   3.490  11.246  0.2453  0.6765 -0.2918
   6223SM  H23G 8035   3.358   3.414  11.253 -0.0841  0.3488 -1.5148
   6223SM  H23H 8036   3.412   3.535  11.382  0.6359  1.7174 -0.7824
   6323SM     N 8037   3.107   6.224  13.816 -0.5217  0.2066  0.5747
   6323SM   C15 8038   3.092   6.374  13.795  0.3462  0.2582 -0.1725
   6323SM  H15A 8039   3.089   6.432  13.886 -1.7915 -0.9753  0.6216
   6323SM  H15B 8040   3.001   6.400  13.743  0.6714 -0.0316 -0.8976
   6323SM  H15C 8041   3.165   6.415  13.726  1.1500  1.6614  1.4402
   6323SM   C14 8042   3.232   6.212  13.902  0.0505 -0.7243 -0.1415
   6323SM  H14A 8043   3.314   6.236  13.835  0.8057 -0.9043  0.7056
   6323SM  H14B 8044   3.248   6.110  13.935 -1.5512 -1.4821 -1.5742
   6323SM  H14C 8045   3.236   6.279  13.986  1.9022 -0.5670 -0.3012
   6323SM   C13 8046   2.994   6.161  13.884  0.5141  0.3077 -0.0565
   6323SM  H13A 8047   3.014   6.059  13.913  1.9221 -0.3410 -2.9535
   6323SM  H13B 8048   2.912   6.146  13.815 -0.8017 -4.7950  2.1375
   6323SM  H13C 8049   2.960   6.225  13.964 -0.0841 -1.7467  1.4230
   6323SM   C12 8050   3.134   6.160  13.680  0.5964 -0.6268 -0.1472
   6323SM  H12A 8051   3.047   6.160  13.616  0.1664  1.7084  0.3443
   6323SM  H12B 8052   3.157   6.055  13.697  3.3705 -0.2923 -1.2824
   6323SM   C11 8053   3.255   6.199  13.591  0.7695  0.3870  0.1267
   6323SM  H11A 8054   3.255   6.309  13.580  0.1569  0.5400  1.5423
   6323SM  H11B 8055   3.243   6.157  13.488  1.7702  1.0998 -0.2919
   6323SM     P 8056   3.428   6.018  13.646  0.1320 -0.3109 -0.0160
   6323SM   O13 8057   3.572   6.029  13.682 -0.1755 -0.4706  0.3350
   6323SM   O14 8058   3.341   5.933  13.732 -0.2149  0.4830 -0.2454
   6323SM   O11 8059   3.417   5.963  13.499 -0.5599 -0.5686  0.6161
   6323SM   O12 8060   3.377   6.160  13.645  0.2202  0.0466  0.3572
   6323SM   C1S 8061   3.477   6.042  13.396 -0.9193 -0.1260 -0.2188
   6323SM   H1S 8062   3.580   6.071  13.429  0.4101  0.0259 -4.0422
   6323SM   H1T 8063   3.414   6.132  13.379 -1.3933 -0.0531  1.6521
   6323SM    NF 8064   3.567   6.031  13.163 -0.2782 -0.1685 -0.2767
   6323SM   HNF 8065   3.515   6.076  13.091 -1.1932 -1.8406 -0.7160
   6323SM   C2S 8066   3.484   5.960  13.259  0.1163  0.0458 -0.1677
   6323SM   H2S 8067   3.534   5.863  13.279  1.4896  0.3137 -2.0158
   6323SM   C3S 8068   3.337   5.930  13.203  0.0234 -0.4130  0.2702
   6323SM   H3S 8069   3.302   6.028  13.165  0.8896  0.6035  1.9727
   6323SM    O3 8070   3.242   5.888  13.300  0.0753  0.1920 -0.4825
   6323SM   HO3 8071   3.286   5.880  13.384  0.6917 -0.4298 -0.8619
   6323SM   C4S 8072   3.334   5.843  13.089  0.4971  0.3237 -0.2053
   6323SM   H4S 8073   3.334   5.890  12.990  1.9335 -1.6534 -1.1959
   6323SM   C5S 8074   3.328   5.710  13.089 -0.3924  0.3694 -0.3570
   6323SM   H5S 8075   3.321   5.650  13.181  0.7149 -0.2787 -0.6781
   6323SM   C6S 8076   3.345   5.626  12.970  0.1700  0.2408 -0.8814
   6323SM   H6S 8077   3.245   5.578  12.958  0.4534 -1.1253  1.6572
   6323SM   H6T 8078   3.417   5.546  12.995 -1.5085 -0.9976  0.1592
   6323SM   C7S 8079   3.383   5.695  12.834 -0.3993  0.0235 -0.0963
   6323SM   H7S 8080   3.468   5.762  12.856 -0.4370 -0.2541  0.9334
   6323SM   H7T 8081   3.303   5.761  12.793 -0.6329  0.1022  0.4782
   6323SM   C8S 8082   3.422   5.580  12.738  0.3242 -1.0815 -0.3374
   6323SM   H8S 8083   3.337   5.509  12.729 -0.9720  0.1404  1.4641
   6323SM   H8T 8084   3.504   5.524  12.787 -0.1621  0.3895  2.3932
   6323SM   C9S 8085   3.453   5.624  12.597 -0.0161 -0.5510 -0.0282
   6323SM   H9S 8086   3.501   5.540  12.544 -0.6086  0.1101 -1.6903
   6323SM   H9T 8087   3.521   5.712  12.587 -0.9984 -0.0149 -3.0026
   6323SM  C10S 8088   3.323   5.660  12.524 -0.5476 -0.0751  0.5368
   6323SM  H10S 8089   3.257   5.729  12.581 -0.4152  0.0742  0.5093
   6323SM  H10T 8090   3.263   5.567  12.520 -0.6049 -0.1369  2.1451
   6323SM  C11S 8091   3.355   5.714  12.382 -0.3056  0.0963  0.1448
   6323SM  H11S 8092   3.466   5.709  12.371 -0.1401 -3.4527  2.0327
   6323SM  H11T 8093   3.313   5.816  12.367 -1.5538 -0.4372 -0.1050
   6323SM  C12S 8094   3.299   5.633  12.266 -0.3046  0.0443  1.0884
   6323SM  H12S 8095   3.200   5.594  12.298  0.9432 -1.1217  3.8293
   6323SM  H12T 8096   3.352   5.538  12.244  0.3502  0.5509  0.4335
   6323SM  C13S 8097   3.301   5.712  12.132  0.1601 -0.3876 -0.2659
   6323SM  H13S 8098   3.403   5.756  12.125 -0.0011  0.4705  2.0148
   6323SM  H13T 8099   3.233   5.797  12.152 -1.1846 -1.2323 -1.0548
   6323SM  C14S 8100   3.268   5.630  12.005 -0.0051  0.9690  0.2442
   6323SM  H14S 8101   3.169   5.582  12.015  0.5092 -0.2726 -0.4426
   6323SM  H14T 8102   3.342   5.548  12.014 -2.6650 -1.6299 -0.2067
   6323SM  C15S 8103   3.296   5.697  11.873 -0.6944  0.0864  0.0429
   6323SM  H15S 8104   3.406   5.717  11.874 -0.1946 -2.3465  0.6111
   6323SM  H15T 8105   3.240   5.792  11.865  0.3016  0.6397 -0.5756
   6323SM  C16S 8106   3.270   5.614  11.744  0.3351 -0.4182 -0.4411
   6323SM  H16S 8107   3.165   5.578  11.740 -0.0540  0.6931 -0.5130
   6323SM  H16T 8108   3.329   5.519  11.748 -0.1513 -0.8970 -2.9231
   6323SM  C17S 8109   3.313   5.694  11.622 -0.4059  0.3142  0.4662
   6323SM  H17S 8110   3.415   5.730  11.647 -0.8727  0.4243  2.3574
   6323SM  H17T 8111   3.252   5.783  11.596 -2.2885 -0.6444  1.3886
   6323SM  C18S 8112   3.332   5.599  11.505 -0.2645  0.2629 -0.1489
   6323SM  H18S 8113   3.240   5.549  11.467  1.0269 -2.1584 -0.3026
   6323SM  H18T 8114   3.385   5.509  11.545  0.3981  0.9888  0.6457
   6323SM  H18U 8115   3.386   5.652  11.424  1.0026  0.9080  1.0794
   6323SM   C1F 8116   3.702   6.032  13.168  0.1190 -1.2557 -0.4900
   6323SM    OF 8117   3.763   5.955  13.244 -0.3103 -0.7596 -0.6336
   6323SM   C2F 8118   3.769   6.131  13.076  0.5066  0.4411 -0.1895
   6323SM   H2F 8119   3.863   6.160  13.130 -1.0816  4.3183  0.8839
   6323SM   H2G 8120   3.704   6.221  13.071 -1.7007 -1.1590 -2.3540
   6323SM   C3F 8121   3.800   6.063  12.943  0.1656 -0.4933 -0.4929
   6323SM   H3F 8122   3.808   6.149  12.873  1.6639 -0.7886 -0.6975
   6323SM   H3G 8123   3.708   6.013  12.907 -0.0614 -1.6488  1.4922
   6323SM   C4F 8124   3.912   5.964  12.932 -0.1949  0.3799 -0.8303
   6323SM   H4F 8125   3.896   5.870  12.989  1.4755  0.5754  0.0101
   6323SM   H4G 8126   4.008   6.000  12.975 -0.9226  0.0884  1.1810
   6323SM   C5F 8127   3.949   5.910  12.790  0.0555  0.7170 -0.4575
   6323SM   H5F 8128   4.045   5.855  12.789  0.7384  1.7321  2.3783
   6323SM   H5G 8129   3.954   6.004  12.731 -0.2983  0.4256 -0.9626
   6323SM   C6F 8130   3.834   5.826  12.732  0.5905  0.1316 -0.1607
   6323SM   H6F 8131   3.739   5.884  12.735 -0.4451 -1.5356  0.8888
   6323SM   H6G 8132   3.817   5.742  12.802 -3.3196 -0.9189 -2.0175
   6323SM   C7F 8133   3.851   5.752  12.600  0.6401  0.0911 -0.0865
   6323SM   H7F 8134   3.759   5.692  12.585  1.0454 -0.4436 -0.4685
   6323SM   H7G 8135   3.935   5.680  12.608  0.9321  0.2919 -1.2276
   6323SM   C8F 8136   3.863   5.862  12.483 -0.1072  0.1355 -0.1862
   6323SM   H8F 8137   3.954   5.924  12.496 -0.9965  0.9246  3.3510
   6323SM   H8G 8138   3.779   5.934  12.492 -0.7762 -0.5678 -0.6723
   6323SM   C9F 8139   3.880   5.801  12.339 -0.0170 -0.3842 -0.2682
   6323SM   H9F 8140   3.784   5.760  12.299 -0.4662  0.6434 -0.2652
   6323SM   H9G 8141   3.946   5.712  12.350  1.6761  0.5921 -1.9660
   6323SM  C10F 8142   3.945   5.904  12.240 -0.1785  0.0293  0.0505
   6323SM  H10F 8143   4.030   5.949  12.295 -1.3466 -0.6036  2.5183
   6323SM  H10G 8144   3.870   5.985  12.223 -0.1120  0.2628  0.8181
   6323SM  C11F 8145   3.998   5.835  12.111  0.4178  0.3670  0.0472
   6323SM  H11F 8146   4.072   5.756  12.136 -1.3612 -1.6794 -0.9016
   6323SM  H11G 8147   4.034   5.916  12.043 -1.5840 -1.7014 -3.7771
   6323SM  C12F 8148   3.887   5.768  12.025  0.4421 -0.2806 -0.7843
   6323SM  H12F 8149   3.818   5.849  11.995 -1.4285 -1.5152  0.0199
   6323SM  H12G 8150   3.814   5.717  12.092 -1.2588  2.0984 -0.7082
   6323SM  C13F 8151   3.916   5.691  11.898 -0.4030  0.2472 -0.0917
   6323SM  H13F 8152   3.822   5.654  11.852 -0.0568 -0.8496  0.0728
   6323SM  H13G 8153   3.973   5.601  11.929 -2.3851 -0.5623  1.5352
   6323SM  C14F 8154   3.987   5.769  11.786  0.3242  0.0796 -0.4121
   6323SM  H14F 8155   4.090   5.791  11.819  0.2079 -0.1333  0.1001
   6323SM  H14G 8156   3.929   5.861  11.762  0.4825 -0.0191 -1.2218
   6323SM  C15F 8157   3.999   5.683  11.656 -0.1322 -0.6918  0.9960
   6323SM  H15F 8158   4.052   5.587  11.675  0.4078 -0.8449 -1.0199
   6323SM  H15G 8159   4.071   5.740  11.594 -0.2999  0.2122  1.6134
   6323SM  C16F 8160   3.866   5.656  11.582  0.4934 -0.2589 -0.4544
   6323SM  H16F 8161   3.826   5.756  11.553  1.0079  1.0481  2.8925
   6323SM  H16G 8162   3.790   5.629  11.659  1.3499 -0.3611  0.3721
   6323SM  C17F 8163   3.879   5.570  11.454  0.5605 -0.8653 -0.2048
   6323SM  H17F 8164   3.906   5.468  11.488 -1.2487 -0.4220  2.9696
   6323SM  H17G 8165   3.966   5.611  11.399  0.5092  3.5327  2.5062
   6323SM  C18F 8166   3.761   5.553  11.363  0.1521 -0.2397  0.2522
   6323SM  H18F 8167   3.733   5.660  11.352 -0.5019 -0.1383  2.3296
   6323SM  H18G 8168   3.676   5.499  11.411 -0.6309  0.8886  0.1928
   6323SM  C19F 8169   3.790   5.492  11.220 -0.1848  0.0535 -0.3930
   6323SM  H19F 8170   3.848   5.399  11.232 -1.5913 -0.7215  0.7501
   6323SM  H19G 8171   3.859   5.565  11.172  0.6274 -0.2832  0.2503
   6323SM  C20F 8172   3.657   5.471  11.152  0.0112  1.2239 -0.2174
   6323SM  H20F 8173   3.611   5.571  11.137  1.0250  2.0360  1.6636
   6323SM  H20G 8174   3.591   5.413  11.221 -1.0103 -0.3524 -2.4067
   6323SM  C21F 8175   3.670   5.396  11.024 -0.2837  0.3031  0.2758
   6323SM  H21F 8176   3.701   5.294  11.053 -0.6648  0.6283  1.9299
   6323SM  H21G 8177   3.745   5.434  10.952 -0.9043 -0.5715 -0.8640
   6323SM  C22F 8178   3.535   5.378  10.948  0.4099  0.0909  1.4080
   6323SM  H22F 8179   3.445   5.382  11.013 -0.6468 -2.3420  0.2338
   6323SM  H22G 8180   3.535   5.274  10.909 -2.5126 -0.6157  2.9484
   6323SM  C23F 8181   3.521   5.473  10.835  0.3735  0.5520 -0.1930
   6323SM  H23F 8182   3.469   5.565  10.868 -1.6687 -0.0602 -1.5108
   6323SM  H23G 8183   3.462   5.425  10.754 -2.2637  1.6375  0.9695
   6323SM  H23H 8184   3.619   5.499  10.789  0.3770  2.2378  0.6836
   6423SM     N 8185   4.901   3.913  13.973 -0.1012  0.4029  0.0032
   6423SM   C15 8186   4.755   3.928  13.939 -0.1972  0.0407  0.7239
   6423SM  H15A 8187   4.700   3.934  14.032  0.9211  1.6850  1.3149
   6423SM  H15B 8188   4.730   3.854  13.865 -0.0383  0.9597 -0.2645
   6423SM  H15C 8189   4.751   4.027  13.897 -1.3496  0.5610  2.0001
   6423SM   C14 8190   4.942   4.033  14.050 -0.5470 -0.6656 -0.1231
   6423SM  H14A 8191   4.880   4.051  14.137 -0.1654  1.1752 -0.2006
   6423SM  H14B 8192   4.936   4.118  13.984 -0.9823  0.7065  1.5848
   6423SM  H14C 8193   5.045   4.021  14.080 -0.4939 -1.0738 -0.4684
   6423SM   C13 8194   4.907   3.795  14.061 -0.0688  0.1486 -0.5188
   6423SM  H13A 8195   5.007   3.765  14.090 -1.0185 -0.4393  2.6190
   6423SM  H13B 8196   4.866   3.713  14.004 -1.7139  1.6487 -1.5716
   6423SM  H13C 8197   4.854   3.812  14.154  0.7282 -0.4647  0.0667
   6423SM   C12 8198   4.993   3.886  13.853  0.4257  0.2033  0.2812
   6423SM  H12A 8199   4.981   3.783  13.820 -1.6136  0.9090 -1.4230
   6423SM  H12B 8200   5.093   3.901  13.890  0.8568 -0.7950 -0.4091
   6423SM   C11 8201   4.971   3.967  13.727 -0.3890 -0.8306  0.3141
   6423SM  H11A 8202   4.870   3.949  13.685 -0.7890 -0.1735  0.9721
   6423SM  H11B 8203   5.043   3.952  13.644 -0.0893  1.9953 -0.0377
   6423SM     P 8204   5.075   4.215  13.731  0.3739  0.2294 -0.3634
   6423SM   O13 8205   5.023   4.349  13.756  0.3411  0.3092  0.4682
   6423SM   O14 8206   5.203   4.182  13.801  0.4878  0.6080  1.0108
   6423SM   O11 8207   5.102   4.189  13.574  0.2124 -0.2847  0.5225
   6423SM   O12 8208   4.968   4.107  13.756 -0.4076 -0.2583  0.1314
   6423SM   C1S 8209   4.980   4.211  13.496 -0.3997 -0.5062  0.3861
   6423SM   H1S 8210   4.957   4.319  13.501  1.8004 -0.0326  2.1436
   6423SM   H1T 8211   4.900   4.141  13.527  0.5558 -2.8929 -2.1358
   6423SM    NF 8212   4.909   4.220  13.257 -0.4085  0.3993  0.5959
   6423SM   HNF 8213   4.849   4.149  13.222  2.4113 -2.1868  0.5264
   6423SM   C2S 8214   5.018   4.175  13.346 -0.0506 -0.5812  0.4519
   6423SM   H2S 8215   5.111   4.225  13.311 -0.5644 -1.0105 -1.6755
   6423SM   C3S 8216   5.062   4.020  13.338  0.2608 -0.7284  0.3180
   6423SM   H3S 8217   4.966   3.970  13.366 -0.7568 -0.2985 -2.1373
   6423SM    O3 8218   5.164   3.989  13.424 -0.2533  0.2003  0.3003
   6423SM   HO3 8219   5.164   4.052  13.496 -0.1245  1.7988 -1.0352
   6423SM   C4S 8220   5.088   3.975  13.194 -0.2756 -0.9602 -0.9124
   6423SM   H4S 8221   4.999   3.933  13.144 -1.3230  1.1120 -0.8929
   6423SM   C5S 8222   5.202   3.987  13.128 -0.3061 -0.4507 -0.8077
   6423SM   H5S 8223   5.289   4.038  13.174  1.6824 -1.4672 -3.1980
   6423SM   C6S 8224   5.228   3.966  12.987 -0.2746  0.0941 -0.1395
   6423SM   H6S 8225   5.312   3.895  12.976  0.4913  1.1174 -1.1610
   6423SM   H6T 8226   5.259   4.062  12.941 -0.4510  1.3343  2.1925
   6423SM   C7S 8227   5.120   3.924  12.890 -0.5026 -0.3104 -0.2150
   6423SM   H7S 8228   5.031   3.989  12.893 -0.1905  0.3382 -2.7004
   6423SM   H7T 8229   5.086   3.819  12.907 -1.3638  0.2993  2.1735
   6423SM   C8S 8230   5.165   3.920  12.742  0.0250  0.2553  0.5094
   6423SM   H8S 8231   5.252   3.851  12.740 -3.1364 -4.1728  1.1371
   6423SM   H8T 8232   5.192   4.019  12.698  0.9400 -0.0613  0.3417
   6423SM   C9S 8233   5.052   3.868  12.643 -0.0887 -0.0867  0.0431
   6423SM   H9S 8234   4.961   3.930  12.658  0.9353  1.2930  0.8034
   6423SM   H9T 8235   5.021   3.765  12.669  0.8072 -0.3508  0.1018
   6423SM  C10S 8236   5.093   3.876  12.491 -0.1055  0.0335  0.4475
   6423SM  H10S 8237   5.194   3.830  12.499 -0.9901 -2.0919 -0.0096
   6423SM  H10T 8238   5.095   3.980  12.452 -0.5899 -0.6793 -1.5454
   6423SM  C11S 8239   4.995   3.799  12.404  0.2192  0.1693 -0.1278
   6423SM  H11S 8240   4.902   3.859  12.392 -0.6426 -1.3339 -1.3633
   6423SM  H11T 8241   4.985   3.702  12.457  2.5763  0.8862  1.8128
   6423SM  C12S 8242   5.045   3.772  12.264 -0.2130  0.5958  0.6601
   6423SM  H12S 8243   5.148   3.737  12.283  0.9397  3.3296 -0.1459
   6423SM  H12T 8244   5.046   3.868  12.209 -1.8279 -0.2253 -0.9351
   6423SM  C13S 8245   4.952   3.671  12.186 -0.4032 -0.2172  0.3114
   6423SM  H13S 8246   4.848   3.700  12.161  0.0041  0.9640 -0.0445
   6423SM  H13T 8247   4.936   3.586  12.256 -0.5631  0.4615  1.1232
   6423SM  C14S 8248   4.996   3.634  12.045 -0.3597  0.8228 -0.5674
   6423SM  H14S 8249   4.945   3.549  11.995  2.7679 -2.4121  1.2760
   6423SM  H14T 8250   5.104   3.609  12.049 -1.0885 -2.7902 -0.3055
   6423SM  C15S 8251   5.005   3.758  11.956 -0.3006 -0.0188  0.1195
   6423SM  H15S 8252   5.082   3.826  11.997  0.3038 -0.1883 -0.7054
   6423SM  H15T 8253   4.911   3.817  11.957  0.0100  0.5055 -0.5102
   6423SM  C16S 8254   5.060   3.740  11.813 -0.1071  0.0383 -0.1578
   6423SM  H16S 8255   5.153   3.680  11.823 -0.6594 -0.4590  3.5463
   6423SM  H16T 8256   5.079   3.840  11.769 -1.4571 -0.3681 -1.7700
   6423SM  C17S 8257   4.965   3.677  11.709  0.4204  0.1670 -0.0766
   6423SM  H17S 8258   4.981   3.567  11.719 -0.5776 -0.1039 -1.2657
   6423SM  H17T 8259   5.011   3.701  11.611  2.6003 -0.4088  0.7280
   6423SM  C18S 8260   4.817   3.719  11.719  0.5418  0.4537  0.2789
   6423SM  H18S 8261   4.760   3.675  11.634 -0.0850  1.2903  0.2531
   6423SM  H18T 8262   4.801   3.829  11.715 -1.9301  0.1372  0.0030
   6423SM  H18U 8263   4.784   3.694  11.822  1.9101  1.3881  0.9714
   6423SM   C1F 8264   4.884   4.348  13.240 -0.3116  1.1235 -0.2712
   6423SM    OF 8265   4.973   4.431  13.270  0.2842  0.3510  0.0641
   6423SM   C2F 8266   4.755   4.390  13.176  0.3492  0.2733  0.2070
   6423SM   H2F 8267   4.719   4.477  13.235 -1.0428 -0.8019  1.0260
   6423SM   H2G 8268   4.685   4.303  13.176  2.6773 -1.7167  0.2716
   6423SM   C3F 8269   4.785   4.416  13.028  0.3582 -0.1748 -0.2657
   6423SM   H3F 8270   4.872   4.484  13.016  0.5829 -0.0693  1.6058
   6423SM   H3G 8271   4.704   4.486  12.999  1.3848  1.0678 -0.1958
   6423SM   C4F 8272   4.775   4.292  12.942 -0.3654 -0.1411 -0.1439
   6423SM   H4F 8273   4.686   4.229  12.966 -1.4343  0.4085 -2.3765
   6423SM   H4G 8274   4.865   4.228  12.955  1.1755  1.8332 -0.6752
   6423SM   C5F 8275   4.755   4.315  12.786 -0.4346  0.4478 -0.1922
   6423SM   H5F 8276   4.826   4.394  12.751 -1.4450  0.9879 -1.0602
   6423SM   H5G 8277   4.650   4.349  12.775 -1.4213 -2.1282  0.4899
   6423SM   C6F 8278   4.772   4.174  12.715 -0.3526  0.5482  0.2069
   6423SM   H6F 8279   4.711   4.100  12.771 -0.9624  0.2668 -0.8067
   6423SM   H6G 8280   4.877   4.141  12.728 -0.0524 -0.0957 -3.1213
   6423SM   C7F 8281   4.731   4.171  12.570  0.4393  0.4672  0.4506
   6423SM   H7F 8282   4.640   4.228  12.542 -0.0208 -0.9129 -1.0403
   6423SM   H7G 8283   4.703   4.065  12.549 -2.4618  1.3842 -0.8288
   6423SM   C8F 8284   4.842   4.201  12.471 -0.6249  0.3442 -0.3160
   6423SM   H8F 8285   4.929   4.139  12.502  2.3017  2.9704 -2.6017
   6423SM   H8G 8286   4.882   4.303  12.488 -1.5636  0.4795  1.1949
   6423SM   C9F 8287   4.812   4.169  12.324  0.4245  0.7731  0.3576
   6423SM   H9F 8288   4.725   4.229  12.289  0.3819  0.1144 -0.7130
   6423SM   H9G 8289   4.772   4.065  12.319  1.7784  0.0542  2.9359
   6423SM  C10F 8290   4.928   4.191  12.222  0.2918 -0.3992 -0.0567
   6423SM  H10F 8291   5.020   4.135  12.252 -0.2282 -0.9283  0.5676
   6423SM  H10G 8292   4.955   4.298  12.222 -0.5985 -0.1677  1.0988
   6423SM  C11F 8293   4.894   4.166  12.074  0.1155  0.4612  0.2466
   6423SM  H11F 8294   4.813   4.236  12.045  1.3126  0.9466 -2.1635
   6423SM  H11G 8295   4.875   4.061  12.044  1.9548  0.7963 -2.4945
   6423SM  C12F 8296   5.009   4.198  11.975  0.4139 -0.1575 -0.0237
   6423SM  H12F 8297   5.096   4.144  12.018  0.9419  1.4450  1.0261
   6423SM  H12G 8298   5.047   4.301  11.991  0.0140 -0.1278  0.7829
   6423SM  C13F 8299   4.985   4.163  11.833  0.6515  0.1054  0.2490
   6423SM  H13F 8300   4.958   4.055  11.825  1.0821  0.0989 -1.8235
   6423SM  H13G 8301   5.081   4.163  11.777 -0.4265  0.8355 -1.7134
   6423SM  C14F 8302   4.901   4.260  11.755  0.2818  0.5065  0.3230
   6423SM  H14F 8303   4.964   4.351  11.769  2.7459 -1.3864  2.8514
   6423SM  H14G 8304   4.795   4.269  11.788 -0.6996  0.5525 -2.6196
   6423SM  C15F 8305   4.899   4.243  11.606 -0.7155  0.1913  0.5782
   6423SM  H15F 8306   5.001   4.271  11.572 -0.9924 -0.7669 -1.1438
   6423SM  H15G 8307   4.835   4.315  11.551 -0.2566 -0.4304 -0.8047
   6423SM  C16F 8308   4.863   4.103  11.556 -0.2313 -0.6399 -0.0653
   6423SM  H16F 8309   4.788   4.049  11.619 -1.2562  0.7073 -0.0797
   6423SM  H16G 8310   4.957   4.047  11.574 -1.1862 -1.8569  1.4743
   6423SM  C17F 8311   4.829   4.098  11.410  0.3986 -0.4618 -0.2821
   6423SM  H17F 8312   4.909   4.141  11.347  0.7097  0.0921  0.4817
   6423SM  H17G 8313   4.737   4.161  11.404  0.7095  0.2269  1.7144
   6423SM  C18F 8314   4.813   3.949  11.378  0.2867 -0.0271 -0.5139
   6423SM  H18F 8315   4.730   3.900  11.434  0.6123 -1.9773 -1.6136
   6423SM  H18G 8316   4.902   3.895  11.419 -0.6177 -0.8413  0.4418
   6423SM  C19F 8317   4.802   3.925  11.226  0.0195  0.3451  0.7238
   6423SM  H19F 8318   4.900   3.944  11.175 -0.7817  0.6732 -0.7549
   6423SM  H19G 8319   4.728   4.002  11.194  0.7693  0.6480 -0.3478
   6423SM  C20F 8320   4.755   3.789  11.190  0.4454  0.3713 -1.0527
   6423SM  H20F 8321   4.771   3.765  11.083 -1.7172  0.3256 -1.4269
   6423SM  H20G 8322   4.644   3.786  11.204  0.5680  1.9878  0.8493
   6423SM  C21F 8323   4.828   3.677  11.279 -0.4983 -0.5919 -0.1635
   6423SM  H21F 8324   4.792   3.579  11.243 -1.0929 -0.0812 -1.0003
   6423SM  H21G 8325   4.815   3.680  11.389  0.4831 -1.0813 -0.0265
   6423SM  C22F 8326   4.976   3.684  11.244  0.1913 -0.3938 -0.1051
   6423SM  H22F 8327   5.027   3.774  11.284  0.6042 -0.0018 -1.4951
   6423SM  H22G 8328   4.990   3.701  11.135  2.6567 -0.0699  0.2064
   6423SM  C23F 8329   5.068   3.578  11.286  0.3749  0.3042  0.5591
   6423SM  H23F 8330   5.016   3.483  11.258  1.4033 -1.0563  2.9396
   6423SM  H23G 8331   5.080   3.561  11.395 -1.8213 -3.1615  0.4344
   6423SM  H23H 8332   5.164   3.581  11.231 -0.4182 -1.2546 -1.0281
   6523SM     N 8333   4.527   5.481  13.891 -0.7312  0.4022 -0.1672
   6523SM   C15 8334   4.410   5.492  13.987  0.7165  0.7934 -0.2529
   6523SM  H15A 8335   4.419   5.416  14.064  0.4565 -0.2846 -1.2574
   6523SM  H15B 8336   4.319   5.473  13.932  1.3797  2.6617 -2.0848
   6523SM  H15C 8337   4.414   5.587  14.039  3.0478  1.1892 -1.0651
   6523SM   C14 8338   4.654   5.486  13.971 -0.4764  0.1855 -0.1602
   6523SM  H14A 8339   4.665   5.572  14.036 -1.8537 -0.9090  1.6173
   6523SM  H14B 8340   4.734   5.501  13.900 -0.0665 -0.0813  0.2384
   6523SM  H14C 8341   4.673   5.392  14.020 -0.2939  0.4490  0.2852
   6523SM   C13 8342   4.524   5.349  13.823  0.0851  0.1610 -0.2575
   6523SM  H13A 8343   4.440   5.338  13.757 -2.2212  0.2693  2.4652
   6523SM  H13B 8344   4.508   5.270  13.896  1.2365 -0.7785 -0.9650
   6523SM  H13C 8345   4.616   5.330  13.769  0.3290  1.1431 -0.2006
   6523SM   C12 8346   4.517   5.589  13.789  0.0326  0.2625  0.9578
   6523SM  H12A 8347   4.546   5.685  13.829  0.3372  0.8682 -0.6236
   6523SM  H12B 8348   4.413   5.590  13.759 -0.2118 -1.6639  1.5581
   6523SM   C11 8349   4.610   5.583  13.666  0.0291 -0.0705 -0.1750
   6523SM  H11A 8350   4.584   5.657  13.587 -0.1471  0.3655  0.2843
   6523SM  H11B 8351   4.603   5.486  13.613 -1.5623  0.4303 -0.9681
   6523SM     P 8352   4.817   5.726  13.689  0.0454  0.4766 -0.2835
   6523SM   O13 8353   4.723   5.841  13.709 -0.1473  0.4886  0.0466
   6523SM   O14 8354   4.936   5.722  13.767 -0.7992  0.1490 -0.2645
   6523SM   O11 8355   4.851   5.728  13.541  0.2525  0.3487  0.4964
   6523SM   O12 8356   4.739   5.590  13.709 -0.1455  0.2783 -0.0224
   6523SM   C1S 8357   4.889   5.616  13.458  0.4504 -0.1843 -0.8195
   6523SM   H1S 8358   4.874   5.519  13.510 -0.3327 -1.0164 -2.5007
   6523SM   H1T 8359   4.999   5.615  13.439  0.7813  0.4572  0.9199
   6523SM    NF 8360   4.827   5.493  13.259  0.4001  0.3387  0.5056
   6523SM   HNF 8361   4.899   5.488  13.191  0.0740 -0.8909  0.2171
   6523SM   C2S 8362   4.826   5.618  13.315  0.1142 -0.9072 -1.1224
   6523SM   H2S 8363   4.720   5.642  13.337  0.6223 -2.0077  3.2640
   6523SM   C3S 8364   4.887   5.734  13.235  0.3276 -0.2377 -0.1784
   6523SM   H3S 8365   4.994   5.715  13.210 -0.4390 -3.1255 -1.6778
   6523SM    O3 8366   4.892   5.854  13.314 -0.4174  0.4020  0.0650
   6523SM   HO3 8367   4.881   5.824  13.404 -3.4101  0.0227 -0.3087
   6523SM   C4S 8368   4.809   5.753  13.109 -0.0098  0.0475 -0.1987
   6523SM   H4S 8369   4.705   5.782  13.130  0.2324 -0.9013  2.7928
   6523SM   C5S 8370   4.845   5.719  12.983  0.3941 -0.1005  0.0688
   6523SM   H5S 8371   4.941   5.669  12.962 -0.0689 -0.5315 -1.1760
   6523SM   C6S 8372   4.754   5.757  12.862  0.4572  0.5635  0.0043
   6523SM   H6S 8373   4.781   5.863  12.840 -0.8298  0.9116  0.0347
   6523SM   H6T 8374   4.645   5.760  12.883  0.8349  1.4336  2.0694
   6523SM   C7S 8375   4.788   5.659  12.747 -0.0484 -0.2819  0.0635
   6523SM   H7S 8376   4.746   5.558  12.771 -0.3452  0.0219  0.8209
   6523SM   H7T 8377   4.899   5.654  12.747 -0.0055  0.4939  1.3563
   6523SM   C8S 8378   4.744   5.700  12.603  0.2658  0.3548  0.1505
   6523SM   H8S 8379   4.802   5.794  12.595  1.3962 -0.1747  1.6774
   6523SM   H8T 8380   4.637   5.727  12.591  0.3280 -0.1068 -1.9467
   6523SM   C9S 8381   4.795   5.604  12.489 -0.3648 -0.1808 -0.8297
   6523SM   H9S 8382   4.755   5.501  12.503  2.2320 -0.9083  2.3769
   6523SM   H9T 8383   4.904   5.590  12.504 -0.2209  1.9736  0.5048
   6523SM  C10S 8384   4.769   5.657  12.353 -0.3166  0.5653 -0.2665
   6523SM  H10S 8385   4.848   5.735  12.343 -1.5288  1.8700 -0.0664
   6523SM  H10T 8386   4.670   5.707  12.346 -0.1349  0.7370 -2.4955
   6523SM  C11S 8387   4.778   5.551  12.244 -0.4765 -0.0748 -0.3057
   6523SM  H11S 8388   4.696   5.477  12.260  0.2479 -0.3985  2.5157
   6523SM  H11T 8389   4.871   5.492  12.256 -1.1309 -0.8327  1.4306
   6523SM  C12S 8390   4.762   5.602  12.105  0.7352 -0.4050 -0.7073
   6523SM  H12S 8391   4.841   5.676  12.080  2.7075 -1.4113  2.1599
   6523SM  H12T 8392   4.666   5.658  12.099  1.5072  0.8148 -2.4653
   6523SM  C13S 8393   4.764   5.498  11.987 -0.4808 -0.3546 -0.7841
   6523SM  H13S 8394   4.704   5.408  12.013 -0.0064 -0.6514 -0.6890
   6523SM  H13T 8395   4.871   5.473  11.971 -0.2111  0.6016 -0.5166
   6523SM  C14S 8396   4.712   5.559  11.856  0.2396 -0.0864  0.5315
   6523SM  H14S 8397   4.786   5.638  11.833  0.6977 -0.4087  0.8709
   6523SM  H14T 8398   4.615   5.606  11.883 -0.6074 -2.1115  1.2854
   6523SM  C15S 8399   4.688   5.460  11.746 -0.6249 -0.2195  0.8100
   6523SM  H15S 8400   4.602   5.391  11.757 -0.0394 -1.1798 -0.3634
   6523SM  H15T 8401   4.772   5.391  11.725 -1.4739 -0.6958 -1.2195
   6523SM  C16S 8402   4.662   5.534  11.612 -0.6274  0.3383 -0.2326
   6523SM  H16S 8403   4.749   5.601  11.593 -0.5776  0.1571 -0.6559
   6523SM  H16T 8404   4.578   5.604  11.629 -1.2945 -0.6778  0.7906
   6523SM  C17S 8405   4.627   5.456  11.481 -0.7316  0.0474  0.9300
   6523SM  H17S 8406   4.518   5.440  11.470 -0.4125 -1.1768 -0.7864
   6523SM  H17T 8407   4.690   5.366  11.498  0.1165  0.7412  1.5833
   6523SM  C18S 8408   4.668   5.535  11.356  0.3370  0.3032  0.1798
   6523SM  H18S 8409   4.599   5.621  11.359  0.7698  0.6415  0.5641
   6523SM  H18T 8410   4.655   5.478  11.262  1.8759  2.0928 -1.1894
   6523SM  H18U 8411   4.775   5.566  11.359  0.2273  0.6198  1.5236
   6523SM   C1F 8412   4.760   5.386  13.310  0.0860 -0.6253  0.1359
   6523SM    OF 8413   4.676   5.408  13.396 -0.4202 -0.1049  0.2135
   6523SM   C2F 8414   4.777   5.254  13.256 -0.3998  0.0430  0.4768
   6523SM   H2F 8415   4.831   5.181  13.321 -0.6988 -1.0455 -0.4617
   6523SM   H2G 8416   4.834   5.261  13.161 -1.2035 -1.5425 -0.1596
   6523SM   C3F 8417   4.643   5.200  13.208  0.1006 -0.1378 -0.1625
   6523SM   H3F 8418   4.566   5.204  13.288 -2.4887  0.6101 -2.5303
   6523SM   H3G 8419   4.664   5.096  13.175  1.2118  0.2114 -0.6016
   6523SM   C4F 8420   4.584   5.283  13.091  0.6260  0.6254 -0.1256
   6523SM   H4F 8421   4.559   5.389  13.115  0.7421  0.7531 -0.5689
   6523SM   H4G 8422   4.490   5.228  13.073  0.8653  0.4930 -1.0292
   6523SM   C5F 8423   4.657   5.279  12.959  0.0944 -0.1868  0.3384
   6523SM   H5F 8424   4.691   5.174  12.946 -4.0391 -1.5331 -0.9885
   6523SM   H5G 8425   4.744   5.349  12.967 -1.2769  1.5848  0.2965
   6523SM   C6F 8426   4.566   5.323  12.836 -0.6690 -0.1673 -0.4472
   6523SM   H6F 8427   4.573   5.432  12.821  0.1372 -0.0671  0.4804
   6523SM   H6G 8428   4.460   5.289  12.830 -1.0965  1.0963 -0.3491
   6523SM   C7F 8429   4.625   5.270  12.707 -0.1197  0.8968  0.0390
   6523SM   H7F 8430   4.728   5.309  12.698 -0.1366  1.0738  0.5817
   6523SM   H7G 8431   4.579   5.332  12.628 -2.5257  0.4515  0.9942
   6523SM   C8F 8432   4.604   5.122  12.677 -0.2268  0.1876 -1.1621
   6523SM   H8F 8433   4.500   5.099  12.646 -0.9130  0.8235  0.5617
   6523SM   H8G 8434   4.638   5.058  12.761  2.2090  0.9862 -1.4717
   6523SM   C9F 8435   4.691   5.074  12.564 -1.1187 -0.4779 -0.5304
   6523SM   H9F 8436   4.666   4.971  12.530  0.0641 -0.7888 -0.5378
   6523SM   H9G 8437   4.800   5.076  12.587 -1.3923  0.3558  0.7456
   6523SM  C10F 8438   4.673   5.153  12.434  0.2575  0.1357  0.2759
   6523SM  H10F 8439   4.734   5.246  12.428 -0.4750  0.5567 -0.7949
   6523SM  H10G 8440   4.572   5.196  12.424  0.0412  0.5930  3.4641
   6523SM  C11F 8441   4.694   5.060  12.312  0.1189 -0.7290  0.2878
   6523SM  H11F 8442   4.612   4.986  12.323 -1.1071  0.6781  1.0745
   6523SM  H11G 8443   4.798   5.021  12.316  0.0514 -1.0965 -1.1681
   6523SM  C12F 8444   4.682   5.121  12.168  0.0635 -0.1377  0.1336
   6523SM  H12F 8445   4.740   5.213  12.149 -0.7137  0.0180 -1.6212
   6523SM  H12G 8446   4.576   5.151  12.154  0.6685  1.8877 -0.3142
   6523SM  C13F 8447   4.713   5.021  12.050  1.2761  0.0312  0.4385
   6523SM  H13F 8448   4.658   4.925  12.063  2.3151 -0.4319  1.5781
   6523SM  H13G 8449   4.820   4.996  12.058  1.1614 -0.7305 -0.3341
   6523SM  C14F 8450   4.677   5.078  11.912  0.0318 -0.2766 -0.6831
   6523SM  H14F 8451   4.764   5.136  11.874 -0.0236 -0.3788 -0.9672
   6523SM  H14G 8452   4.596   5.152  11.928  1.1929  1.0179 -0.5998
   6523SM  C15F 8453   4.631   4.979  11.818  0.6693  0.4543  0.2310
   6523SM  H15F 8454   4.523   4.971  11.845  1.2699  0.5826  3.0048
   6523SM  H15G 8455   4.676   4.878  11.829  0.0113  0.3666  2.7467
   6523SM  C16F 8456   4.656   5.017  11.675  0.0634 -0.0680  0.4715
   6523SM  H16F 8457   4.765   5.014  11.656  0.3301  0.7115  1.7554
   6523SM  H16G 8458   4.620   5.121  11.669 -2.6963 -0.8944  1.1148
   6523SM  C17F 8459   4.590   4.934  11.561 -0.5527 -0.5512  0.4812
   6523SM  H17F 8460   4.606   4.992  11.468 -1.2022 -0.9688  0.0979
   6523SM  H17G 8461   4.480   4.932  11.577 -0.9242  3.1917 -0.7415
   6523SM  C18F 8462   4.648   4.793  11.558  0.3060  0.3002 -0.0448
   6523SM  H18F 8463   4.585   4.739  11.631 -0.0333  1.1028  0.2599
   6523SM  H18G 8464   4.753   4.788  11.596  0.7742 -0.2105 -1.3406
   6523SM  C19F 8465   4.637   4.717  11.431 -0.1016 -0.7186 -0.4125
   6523SM  H19F 8466   4.682   4.617  11.451 -0.5481 -0.8465 -0.0243
   6523SM  H19G 8467   4.698   4.768  11.353 -1.6216  0.8011 -0.6751
   6523SM  C20F 8468   4.492   4.713  11.369 -0.1219  0.4931  0.8158
   6523SM  H20F 8469   4.459   4.816  11.346 -0.2791  0.7694  2.1713
   6523SM  H20G 8470   4.434   4.664  11.450  1.5533 -1.0689  1.1459
   6523SM  C21F 8471   4.479   4.653  11.229  0.1720 -0.9377 -0.4833
   6523SM  H21F 8472   4.535   4.719  11.159  0.4380  2.2553  2.4391
   6523SM  H21G 8473   4.370   4.669  11.211  0.1102 -0.4904  0.2522
   6523SM  C22F 8474   4.525   4.515  11.227  0.1337  0.5638 -0.1927
   6523SM  H22F 8475   4.483   4.471  11.320  2.7302 -2.0310 -0.1222
   6523SM  H22G 8476   4.633   4.517  11.250  0.1322 -0.2063 -0.0695
   6523SM  C23F 8477   4.487   4.427  11.105  0.0861  0.3777  0.3317
   6523SM  H23F 8478   4.378   4.430  11.083  0.0612 -1.6078 -0.0763
   6523SM  H23G 8479   4.499   4.317  11.117 -1.1728  0.3210  1.2458
   6523SM  H23H 8480   4.551   4.466  11.022 -0.6538  0.3215 -0.2798
   6623SM     N 8481   3.012   3.223  14.026 -0.0833 -0.6189  0.5308
   6623SM   C15 8482   2.981   3.133  14.145  0.3560  0.3391  0.2959
   6623SM  H15A 8483   3.020   3.034  14.125 -1.0934 -0.4649  1.3059
   6623SM  H15B 8484   2.873   3.133  14.157  0.2105  1.0647 -0.8518
   6623SM  H15C 8485   3.009   3.170  14.242 -0.8700  1.0257  0.4176
   6623SM   C14 8486   2.937   3.170  13.898  0.0176  0.7321 -0.7223
   6623SM  H14A 8487   2.832   3.150  13.912  0.3764 -1.4681 -0.8148
   6623SM  H14B 8488   2.979   3.074  13.869 -2.5385 -0.7985  0.2808
   6623SM  H14C 8489   2.937   3.237  13.814 -1.1135 -0.9426 -2.1457
   6623SM   C13 8490   2.963   3.358  14.045  0.4554 -0.1553 -0.9199
   6623SM  H13A 8491   2.859   3.368  14.070  0.4892  0.1912 -0.9130
   6623SM  H13B 8492   2.974   3.431  13.965 -0.5613  3.1263  1.6935
   6623SM  H13C 8493   3.012   3.397  14.133  1.3697 -0.7626 -1.1499
   6623SM   C12 8494   3.159   3.230  14.009 -0.4837  0.5832  0.1525
   6623SM  H12A 8495   3.210   3.267  14.097  1.0787  1.7332 -1.1681
   6623SM  H12B 8496   3.178   3.300  13.929 -0.3653 -0.3729 -0.6705
   6623SM   C11 8497   3.229   3.104  13.954  0.4839 -0.0293  0.0873
   6623SM  H11A 8498   3.179   3.067  13.862 -0.0813 -2.3623  1.2705
   6623SM  H11B 8499   3.225   3.027  14.034 -0.5168  0.4188  0.4849
   6623SM     P 8500   3.408   3.202  13.785 -0.1448 -0.1418 -0.3342
   6623SM   O13 8501   3.327   3.320  13.762  0.1348 -0.0118  0.7634
   6623SM   O14 8502   3.556   3.203  13.784 -0.1351 -0.4340 -0.1533
   6623SM   O11 8503   3.355   3.095  13.681 -0.3445  0.3799  0.5453
   6623SM   O12 8504   3.360   3.142  13.924 -0.8810 -0.1165 -0.3965
   6623SM   C1S 8505   3.241   3.088  13.595 -0.9982  0.3227  0.0839
   6623SM   H1S 8506   3.156   3.143  13.641 -1.3962  0.3578 -0.6846
   6623SM   H1T 8507   3.212   2.982  13.581  2.1880 -0.6153 -0.1191
   6623SM    NF 8508   3.137   3.114  13.369 -0.0476  0.4018  0.1699
   6623SM   HNF 8509   3.131   3.039  13.303 -1.5575  0.0538  0.6676
   6623SM   C2S 8510   3.265   3.130  13.443  0.4342  0.4991 -0.3944
   6623SM   H2S 8511   3.297   3.236  13.446 -0.5333  0.7791  0.2064
   6623SM   C3S 8512   3.381   3.045  13.378  0.1052  0.5365  0.2275
   6623SM   H3S 8513   3.351   2.939  13.391 -1.3847  0.7626 -1.0430
   6623SM    O3 8514   3.501   3.069  13.457 -0.1392 -0.0181 -0.2527
   6623SM   HO3 8515   3.474   3.085  13.548  0.3533  1.4617 -0.3476
   6623SM   C4S 8516   3.399   3.072  13.226 -0.3172  0.3938 -0.3574
   6623SM   H4S 8517   3.345   3.003  13.159  0.4774  0.8086 -1.4478
   6623SM   C5S 8518   3.483   3.162  13.168  0.3276  0.1251  0.3191
   6623SM   H5S 8519   3.552   3.228  13.224  1.4784 -0.8348  0.0821
   6623SM   C6S 8520   3.505   3.172  13.018 -0.5763 -0.2510  0.2394
   6623SM   H6S 8521   3.506   3.071  12.973 -0.3312  0.5061 -1.5276
   6623SM   H6T 8522   3.597   3.229  12.990 -2.7540  2.3254 -2.1898
   6623SM   C7S 8523   3.381   3.246  12.967  0.2873 -0.0503  0.1750
   6623SM   H7S 8524   3.368   3.336  13.030  0.9276 -0.7246  1.3028
   6623SM   H7T 8525   3.292   3.184  12.989  1.2420 -1.1308  1.1215
   6623SM   C8S 8526   3.400   3.282  12.822 -0.5327  0.2622 -0.7116
   6623SM   H8S 8527   3.503   3.322  12.808 -0.1098 -1.0135 -1.4240
   6623SM   H8T 8528   3.325   3.360  12.796 -0.7610  1.4525  2.9672
   6623SM   C9S 8529   3.390   3.151  12.736 -0.0690  0.2944 -0.1677
   6623SM   H9S 8530   3.300   3.102  12.779 -0.1493  2.5936  2.5514
   6623SM   H9T 8531   3.477   3.086  12.760 -1.1179 -0.7477  1.0240
   6623SM  C10S 8532   3.387   3.182  12.589  0.4780 -0.7075  0.4217
   6623SM  H10S 8533   3.399   3.085  12.535  4.5596  0.5165 -1.2727
   6623SM  H10T 8534   3.482   3.235  12.566  1.2557 -2.6356 -1.1535
   6623SM  C11S 8535   3.261   3.241  12.526  0.2863  0.1578 -0.3395
   6623SM  H11S 8536   3.229   3.330  12.584  1.2623  0.2527  0.0713
   6623SM  H11T 8537   3.188   3.158  12.523  3.7967 -3.2097 -2.1097
   6623SM  C12S 8538   3.276   3.286  12.382  0.1676  0.8590 -0.5359
   6623SM  H12S 8539   3.370   3.344  12.364  1.5384 -1.3210 -0.7384
   6623SM  H12T 8540   3.178   3.331  12.357 -1.4432 -2.0486  0.0997
   6623SM  C13S 8541   3.304   3.163  12.281 -0.6172  0.0908 -0.6378
   6623SM  H13S 8542   3.224   3.085  12.279 -0.7126  0.1190  0.7239
   6623SM  H13T 8543   3.389   3.109  12.328 -1.3079 -0.3355  0.1541
   6623SM  C14S 8544   3.340   3.209  12.140 -0.3600 -0.2347 -0.7180
   6623SM  H14S 8545   3.441   3.254  12.146 -0.4868 -0.1202  2.7820
   6623SM  H14T 8546   3.270   3.286  12.103 -1.9569 -0.4211  1.6384
   6623SM  C15S 8547   3.368   3.089  12.045 -0.3637 -0.4525 -0.6419
   6623SM  H15S 8548   3.273   3.042  12.012 -0.7462  0.5129 -0.9503
   6623SM  H15T 8549   3.432   3.019  12.102  2.3471  0.9878 -1.7385
   6623SM  C16S 8550   3.447   3.119  11.915  0.5003  0.7224 -0.2514
   6623SM  H16S 8551   3.513   3.035  11.885  3.7833  2.4851  1.4260
   6623SM  H16T 8552   3.527   3.196  11.923 -0.1139  1.4555 -0.9348
   6623SM  C17S 8553   3.359   3.194  11.807 -0.2724  0.4837 -0.5798
   6623SM  H17S 8554   3.349   3.298  11.845  1.2838  0.8200 -0.9972
   6623SM  H17T 8555   3.261   3.144  11.798  0.0148 -0.5249  1.2993
   6623SM  C18S 8556   3.439   3.196  11.672 -0.4528 -0.1715  0.5755
   6623SM  H18S 8557   3.472   3.090  11.668 -1.9249 -0.7088  1.5863
   6623SM  H18T 8558   3.526   3.263  11.683 -0.0011 -0.4130 -1.2498
   6623SM  H18U 8559   3.374   3.223  11.586 -0.8153 -2.7645 -0.0533
   6623SM   C1F 8560   3.043   3.200  13.401  0.5467 -0.0151 -0.8177
   6623SM    OF 8561   3.056   3.290  13.482 -1.0075 -0.2729  0.1991
   6623SM   C2F 8562   2.912   3.195  13.324 -0.4070  0.1835  0.8445
   6623SM   H2F 8563   2.830   3.189  13.399 -2.0550  0.9309 -0.8147
   6623SM   H2G 8564   2.919   3.103  13.263 -3.5261 -0.1176  0.7741
   6623SM   C3F 8565   2.884   3.322  13.243 -0.3620 -0.2672  0.4232
   6623SM   H3F 8566   2.973   3.386  13.229 -1.5933  1.2863 -0.8025
   6623SM   H3G 8567   2.830   3.377  13.324 -0.6592  0.1459 -0.0410
   6623SM   C4F 8568   2.795   3.309  13.123  0.2271  0.3266  0.1083
   6623SM   H4F 8569   2.763   3.413  13.101  0.3152  0.1760 -0.7679
   6623SM   H4G 8570   2.710   3.239  13.140 -0.4481  0.4444 -2.3506
   6623SM   C5F 8571   2.870   3.244  13.001 -0.0621 -0.1089  0.1784
   6623SM   H5F 8572   2.889   3.138  13.028  1.5387  0.4399  1.3621
   6623SM   H5G 8573   2.957   3.311  12.986 -0.5158  0.3713 -0.3485
   6623SM   C6F 8574   2.793   3.282  12.869 -0.6133  0.2244  0.4168
   6623SM   H6F 8575   2.779   3.392  12.872 -0.0507  0.2853  0.7921
   6623SM   H6G 8576   2.694   3.231  12.862 -1.2819  1.6211 -1.1201
   6623SM   C7F 8577   2.880   3.258  12.741  0.7985 -0.3342  0.3445
   6623SM   H7F 8578   2.904   3.151  12.723  1.6987  0.2475 -2.3544
   6623SM   H7G 8579   2.978   3.308  12.758  0.2995  0.9398 -0.4184
   6623SM   C8F 8580   2.822   3.319  12.610  0.1816  0.7409  0.2126
   6623SM   H8F 8581   2.798   3.425  12.631 -1.5380  0.2239  1.0032
   6623SM   H8G 8582   2.720   3.284  12.583 -0.1554  2.2540 -0.5975
   6623SM   C9F 8583   2.912   3.301  12.486 -0.2712  0.5084  0.0411
   6623SM   H9F 8584   2.927   3.197  12.449 -0.1104  0.5247  0.0599
   6623SM   H9G 8585   3.016   3.335  12.508  0.6714 -0.8284 -1.9785
   6623SM  C10F 8586   2.866   3.389  12.368 -1.1581  0.0489  0.6940
   6623SM  H10F 8587   2.876   3.500  12.374 -0.0632  0.3120 -3.1904
   6623SM  H10G 8588   2.759   3.372  12.345 -0.5630 -2.6544 -0.4041
   6623SM  C11F 8589   2.946   3.369  12.239  0.1020 -0.2939 -0.1321
   6623SM  H11F 8590   2.965   3.259  12.234  0.0966 -0.4916  2.4647
   6623SM  H11G 8591   3.047   3.414  12.231 -0.0464  0.1611  0.4490
   6623SM  C12F 8592   2.855   3.411  12.124  0.6245  0.6165 -0.2080
   6623SM  H12F 8593   2.808   3.512  12.129  0.8956  0.8149 -1.4288
   6623SM  H12G 8594   2.766   3.345  12.115  0.7699  0.5736 -1.5323
   6623SM  C13F 8595   2.926   3.403  11.991 -0.6245 -0.2405 -0.0212
   6623SM  H13F 8596   2.864   3.431  11.904 -1.3292 -1.0598  0.2043
   6623SM  H13G 8597   2.946   3.297  11.967  1.3662  0.8932 -4.3623
   6623SM  C14F 8598   3.068   3.480  11.983  1.1598 -0.5211 -0.3434
   6623SM  H14F 8599   3.146   3.441  12.052 -0.7175 -1.4675  1.3741
   6623SM  H14G 8600   3.055   3.586  12.013  0.2034 -0.8011  0.2863
   6623SM  C15F 8601   3.116   3.486  11.836  0.9533  1.0413 -0.2592
   6623SM  H15F 8602   3.029   3.528  11.780 -0.8819  0.1989  1.8209
   6623SM  H15G 8603   3.116   3.384  11.794  1.0408  1.3216 -0.9563
   6623SM  C16F 8604   3.243   3.568  11.807 -1.2266  0.0471  0.5452
   6623SM  H16F 8605   3.337   3.522  11.845 -1.1047  0.9480  1.3582
   6623SM  H16G 8606   3.229   3.660  11.868 -1.1183  1.0019 -0.8377
   6623SM  C17F 8607   3.269   3.621  11.665 -0.5149 -0.3607  0.4402
   6623SM  H17F 8608   3.174   3.664  11.628  0.1580  0.1791 -0.7483
   6623SM  H17G 8609   3.302   3.529  11.612 -1.6158 -0.6707  0.2663
   6623SM  C18F 8610   3.389   3.724  11.666 -0.9992  0.6576 -0.2812
   6623SM  H18F 8611   3.375   3.789  11.754 -2.0766 -1.8139  1.4780
   6623SM  H18G 8612   3.371   3.778  11.570 -1.7642  3.4260  1.3297
   6623SM  C19F 8613   3.524   3.656  11.679  0.7691  0.6539 -0.7889
   6623SM  H19F 8614   3.518   3.559  11.626 -0.2776 -0.4061  1.1551
   6623SM  H19G 8615   3.535   3.631  11.787 -0.4449  0.0932 -0.7745
   6623SM  C20F 8616   3.637   3.746  11.642  0.0549 -0.5620  0.3597
   6623SM  H20F 8617   3.726   3.694  11.682  0.2939 -0.0528  0.4896
   6623SM  H20G 8618   3.632   3.845  11.692 -1.3539 -1.5176  2.2268
   6623SM  C21F 8619   3.631   3.758  11.487  0.0266  0.5730  0.3365
   6623SM  H21F 8620   3.540   3.820  11.469  0.7938  1.4214 -0.7796
   6623SM  H21G 8621   3.635   3.661  11.433  1.2924  1.4486 -1.2455
   6623SM  C22F 8622   3.749   3.840  11.429 -0.8976  0.0935  0.0857
   6623SM  H22F 8623   3.845   3.786  11.444 -0.3553  0.3296 -2.0692
   6623SM  H22G 8624   3.751   3.936  11.484 -0.9742  0.7356 -0.9897
   6623SM  C23F 8625   3.739   3.875  11.281  0.1417 -0.6983  0.0494
   6623SM  H23F 8626   3.689   3.973  11.267 -0.8077 -1.5367 -3.3717
   6623SM  H23G 8627   3.692   3.794  11.221  0.6187  0.2095 -1.5932
   6623SM  H23H 8628   3.844   3.884  11.248  0.6222 -0.1934  1.5911
   6723SM     N 8629   3.038   0.559  13.779 -0.0420 -0.2921  0.1268
   6723SM   C15 8630   3.009   0.417  13.828  0.1973 -0.5662  0.0180
   6723SM  H15A 8631   3.075   0.353  13.772  0.0280 -1.0075  0.3208
   6723SM  H15B 8632   2.909   0.381  13.808  0.5954  0.1263 -3.8390
   6723SM  H15C 8633   3.045   0.404  13.929  2.3302  0.2238 -0.5891
   6723SM   C14 8634   2.943   0.653  13.843 -0.4192 -0.1853  0.0706
   6723SM  H14A 8635   2.843   0.622  13.818  0.3940 -1.4437 -1.8780
   6723SM  H14B 8636   2.962   0.757  13.822  1.0145  0.2382  2.9620
   6723SM  H14C 8637   2.937   0.657  13.950  1.9047  0.2710  0.2435
   6723SM   C13 8638   3.176   0.587  13.821 -0.3657  0.0367 -0.5629
   6723SM  H13A 8639   3.240   0.500  13.810 -0.2043 -0.0824  1.1045
   6723SM  H13B 8640   3.178   0.605  13.927 -3.0093  0.6776 -0.5576
   6723SM  H13C 8641   3.218   0.671  13.768 -0.4889 -0.4687 -1.4908
   6723SM   C12 8642   3.035   0.556  13.627  0.6406 -0.8683  0.0666
   6723SM  H12A 8643   3.098   0.476  13.590 -0.7407 -1.3881 -1.2748
   6723SM  H12B 8644   3.092   0.643  13.597  1.2360 -1.6545 -1.1601
   6723SM   C11 8645   2.901   0.555  13.541  0.1667 -0.1253 -0.0497
   6723SM  H11A 8646   2.936   0.559  13.436  0.4203  0.4473  0.0499
   6723SM  H11B 8647   2.837   0.638  13.578  0.2233 -0.5869  1.1317
   6723SM     P 8648   2.873   0.293  13.529 -0.0742  0.4657 -0.0436
   6723SM   O13 8649   3.005   0.299  13.460  0.6445 -0.7470 -0.2454
   6723SM   O14 8650   2.866   0.197  13.641 -0.1079 -0.3408  0.4881
   6723SM   O11 8651   2.757   0.249  13.424 -0.6075  0.3112 -0.3060
   6723SM   O12 8652   2.826   0.438  13.576  0.0200 -0.1560  0.4016
   6723SM   C1S 8653   2.697   0.335  13.333  0.1279  0.3095  0.2160
   6723SM   H1S 8654   2.655   0.420  13.391 -0.6326 -0.3316  0.6202
   6723SM   H1T 8655   2.609   0.276  13.302  0.3385 -1.6599  2.9250
   6723SM    NF 8656   2.696   0.460  13.118 -0.3451  0.0761 -0.0209
   6723SM   HNF 8657   2.669   0.418  13.032  0.2354 -0.6395  0.1371
   6723SM   C2S 8658   2.776   0.368  13.205  0.0439 -0.7159 -0.7515
   6723SM   H2S 8659   2.877   0.410  13.224 -0.7607  0.6730  0.7140
   6723SM   C3S 8660   2.809   0.239  13.129  0.9354  0.1318 -0.1056
   6723SM   H3S 8661   2.711   0.192  13.110  2.1093 -2.7128  0.3521
   6723SM    O3 8662   2.892   0.144  13.193 -0.0732  0.2686 -0.2612
   6723SM   HO3 8663   2.881   0.156  13.287 -1.8831 -1.9049 -0.1267
   6723SM   C4S 8664   2.870   0.273  13.000 -0.2615  0.4690 -0.1682
   6723SM   H4S 8665   2.961   0.331  13.020 -0.2723  0.0490  1.2719
   6723SM   C5S 8666   2.826   0.230  12.877  0.3651 -0.6899  0.2455
   6723SM   H5S 8667   2.737   0.168  12.863  0.5067 -0.7290 -0.5298
   6723SM   C6S 8668   2.899   0.280  12.756  0.9467  0.1316  0.8735
   6723SM   H6S 8669   3.006   0.298  12.782  1.2700  0.5489 -0.6310
   6723SM   H6T 8670   2.856   0.378  12.728 -1.7193 -1.0787  0.3997
   6723SM   C7S 8671   2.896   0.174  12.652 -0.2666 -0.6942  0.0737
   6723SM   H7S 8672   2.791   0.139  12.645  0.0338 -1.9113  1.2929
   6723SM   H7T 8673   2.958   0.087  12.682 -1.0087 -0.8680  1.1495
   6723SM   C8S 8674   2.945   0.220  12.506 -0.1186 -0.2867 -0.3029
   6723SM   H8S 8675   3.052   0.250  12.515  1.1725 -4.6903  2.0421
   6723SM   H8T 8676   2.888   0.314  12.489  1.2957  0.8180  0.8203
   6723SM   C9S 8677   2.921   0.115  12.401 -0.3785  0.3704 -0.7210
   6723SM   H9S 8678   2.814   0.086  12.394 -0.1725 -0.8501  0.7456
   6723SM   H9T 8679   2.974   0.022  12.432  0.1964  0.6416 -0.8698
   6723SM  C10S 8680   2.968   0.161  12.264 -0.5597  0.3670 -0.0964
   6723SM  H10S 8681   3.078   0.173  12.276 -0.3826 -2.0115  1.4135
   6723SM  H10T 8682   2.915   0.244  12.213  1.0853  0.3707 -1.9048
   6723SM  C11S 8683   2.974   0.056  12.155  0.5029 -0.1905  0.1635
   6723SM  H11S 8684   2.876   0.003  12.161  0.0349  0.5981 -0.3350
   6723SM  H11T 8685   3.048  -0.024  12.177 -0.7971 -1.5770 -0.3153
   6723SM  C12S 8686   2.991   0.102  12.010 -0.3044 -0.0537  0.2192
   6723SM  H12S 8687   3.090   0.151  12.001  0.8828 -1.9482  2.1593
   6723SM  H12T 8688   2.912   0.176  11.985 -2.1556 -2.6364 -2.1008
   6723SM  C13S 8689   2.985  -0.013  11.915 -0.2694 -0.5102  0.6824
   6723SM  H13S 8690   2.889  -0.067  11.921 -0.4449 -0.1775  0.9056
   6723SM  H13T 8691   3.064  -0.086  11.943  0.7830  0.9682  1.7563
   6723SM  C14S 8692   3.012   0.040  11.773  0.2658  0.1051 -0.2299
   6723SM  H14S 8693   3.114   0.084  11.765  0.0836  0.8429  1.1948
   6723SM  H14T 8694   2.941   0.124  11.767 -0.1245  0.0805  2.6681
   6723SM  C15S 8695   2.987  -0.060  11.656 -0.1477 -0.0919  0.2545
   6723SM  H15S 8696   2.880  -0.086  11.645 -0.1956  0.7438 -1.7909
   6723SM  H15T 8697   3.046  -0.146  11.695  1.0270 -0.2337 -1.7279
   6723SM  C16S 8698   3.043  -0.000  11.522  0.1166  0.3817  0.7787
   6723SM  H16S 8699   3.151  -0.026  11.518 -0.0184 -0.0400 -0.4404
   6723SM  H16T 8700   3.032   0.110  11.526 -0.5447  0.5193 -2.5171
   6723SM  C17S 8701   2.988  -0.058  11.382 -0.3322  0.7170 -0.3380
   6723SM  H17S 8702   2.883  -0.023  11.379 -1.3588 -1.9100  1.3785
   6723SM  H17T 8703   2.995  -0.169  11.374  3.1138  0.8136 -0.2805
   6723SM  C18S 8704   3.059  -0.009  11.256 -0.4576 -0.1641 -0.1615
   6723SM  H18S 8705   3.002  -0.036  11.165 -0.5672  2.5140 -0.9411
   6723SM  H18T 8706   3.160  -0.046  11.229  0.2828  2.1695 -0.7616
   6723SM  H18U 8707   3.064   0.101  11.249  0.9988 -0.1828  0.3091
   6723SM   C1F 8708   2.681   0.594  13.142 -0.0560 -0.9695  0.0861
   6723SM    OF 8709   2.744   0.655  13.225 -0.1298 -0.3832 -0.0063
   6723SM   C2F 8710   2.574   0.662  13.061 -0.0859  0.2571 -0.1068
   6723SM   H2F 8711   2.530   0.743  13.124 -2.0695 -0.6145 -0.2835
   6723SM   H2G 8712   2.496   0.590  13.029 -0.7547  1.4415 -1.2554
   6723SM   C3F 8713   2.636   0.724  12.938 -1.1496 -0.5358  0.4439
   6723SM   H3F 8714   2.699   0.814  12.952 -3.2857  1.0632  0.3298
   6723SM   H3G 8715   2.555   0.783  12.890  0.0068  1.0768  0.4060
   6723SM   C4F 8716   2.678   0.619  12.836  0.1443  0.1801 -1.0373
   6723SM   H4F 8717   2.604   0.537  12.826  0.0296  0.3767 -1.8350
   6723SM   H4G 8718   2.776   0.576  12.866  0.0271  0.4139 -0.2801
   6723SM   C5F 8719   2.673   0.690  12.699  0.3007 -0.2361  0.2926
   6723SM   H5F 8720   2.740   0.778  12.704 -1.8141  1.4361  1.1639
   6723SM   H5G 8721   2.572   0.733  12.682  0.2136 -0.8997 -0.9681
   6723SM   C6F 8722   2.714   0.615  12.572 -0.5964  0.4853  0.3549
   6723SM   H6F 8723   2.667   0.515  12.563 -1.9382  1.1664 -0.5640
   6723SM   H6G 8724   2.824   0.596  12.564 -1.0448 -2.2989 -0.2484
   6723SM   C7F 8725   2.696   0.699  12.441 -0.3515 -0.2191 -0.1681
   6723SM   H7F 8726   2.774   0.778  12.441 -0.5274 -0.0351 -1.0024
   6723SM   H7G 8727   2.604   0.757  12.462 -0.6182 -1.3779  2.1778
   6723SM   C8F 8728   2.701   0.617  12.312 -0.5974 -0.0324  0.0012
   6723SM   H8F 8729   2.598   0.579  12.292 -0.5809 -0.3257  0.4449
   6723SM   H8G 8730   2.776   0.538  12.335 -0.1512 -0.2068 -1.9098
   6723SM   C9F 8731   2.752   0.686  12.189 -0.0718  0.1514 -0.4663
   6723SM   H9F 8732   2.829   0.759  12.223 -1.6307  0.8655  1.7573
   6723SM   H9G 8733   2.675   0.752  12.144 -1.0658  0.1541  1.1594
   6723SM  C10F 8734   2.803   0.589  12.081  0.2421 -0.5316  0.6672
   6723SM  H10F 8735   2.717   0.528  12.045 -0.1377  0.3572  0.0171
   6723SM  H10G 8736   2.879   0.530  12.137 -0.1389  0.8087  2.6950
   6723SM  C11F 8737   2.862   0.670  11.959 -0.0226  0.2417 -0.0462
   6723SM  H11F 8738   2.966   0.704  11.977  0.8212 -1.9374 -0.5534
   6723SM  H11G 8739   2.788   0.751  11.945 -0.5374  0.0208  1.1976
   6723SM  C12F 8740   2.858   0.587  11.835 -0.3309 -0.4927 -0.0987
   6723SM  H12F 8741   2.752   0.554  11.831 -0.8269  1.0349 -0.0494
   6723SM  H12G 8742   2.923   0.498  11.848 -0.1273 -0.3612 -0.2064
   6723SM  C13F 8743   2.889   0.672  11.714 -0.6999 -0.0115 -0.4839
   6723SM  H13F 8744   2.926   0.604  11.635 -0.2352 -0.9560  0.5158
   6723SM  H13G 8745   2.976   0.736  11.740 -0.4870  0.0835 -1.3888
   6723SM  C14F 8746   2.768   0.741  11.662  0.8153 -0.5852  0.2323
   6723SM  H14F 8747   2.728   0.810  11.739  1.1096  1.7570 -1.6327
   6723SM  H14G 8748   2.685   0.669  11.642  1.1014 -1.2469  1.3418
   6723SM  C15F 8749   2.787   0.815  11.532 -0.3144  0.5871 -0.2165
   6723SM  H15F 8750   2.813   0.752  11.444 -2.5928 -0.2153 -0.3828
   6723SM  H15G 8751   2.860   0.892  11.564 -1.4730  1.1216  1.2677
   6723SM  C16F 8752   2.660   0.886  11.484 -0.1267 -0.5829  0.5675
   6723SM  H16F 8753   2.629   0.938  11.578 -1.3301 -0.8341  0.3259
   6723SM  H16G 8754   2.578   0.812  11.472 -0.5947  0.2466 -1.7321
   6723SM  C17F 8755   2.683   0.977  11.368  0.4416 -0.8979 -0.1491
   6723SM  H17F 8756   2.581   1.004  11.333 -0.2374 -2.6805  0.3290
   6723SM  H17G 8757   2.745   0.934  11.287  3.1695 -0.5096  1.6007
   6723SM  C18F 8758   2.759   1.101  11.408 -0.2922 -0.3169  0.2430
   6723SM  H18F 8759   2.867   1.078  11.411 -0.1759  0.1042 -0.6124
   6723SM  H18G 8760   2.729   1.132  11.511  1.4794 -0.0994  0.7292
   6723SM  C19F 8761   2.747   1.223  11.307  0.1723 -0.0488  0.1258
   6723SM  H19F 8762   2.653   1.277  11.330 -0.0473 -0.0299 -0.7836
   6723SM  H19G 8763   2.731   1.176  11.208 -1.3443  2.2186 -0.7697
   6723SM  C20F 8764   2.870   1.319  11.301  0.4341  0.4607 -0.7242
   6723SM  H20F 8765   2.950   1.271  11.240  0.8704  1.5752 -1.0480
   6723SM  H20G 8766   2.895   1.340  11.407 -0.2138  0.6484 -0.6073
   6723SM  C21F 8767   2.835   1.453  11.236 -0.0488  0.6945  0.7922
   6723SM  H21F 8768   2.925   1.517  11.225 -0.6917  1.2775 -1.9516
   6723SM  H21G 8769   2.762   1.521  11.284 -0.1748  1.7864 -0.8467
   6723SM  C22F 8770   2.786   1.434  11.100 -0.4783 -0.0856 -0.4544
   6723SM  H22F 8771   2.682   1.395  11.093 -0.7262  0.8141 -5.1191
   6723SM  H22G 8772   2.850   1.356  11.054 -1.2627  0.8603 -3.4155
   6723SM  C23F 8773   2.785   1.563  11.015  0.7118  0.2294 -0.0103
   6723SM  H23F 8774   2.763   1.525  10.913  2.4849  2.6725 -1.3827
   6723SM  H23G 8775   2.881   1.617  11.030  1.5895 -1.6702  1.9021
   6723SM  H23H 8776   2.699   1.627  11.046 -0.6938 -0.9565 -1.2782
   6823SM     N 8777   1.878   3.599  14.448  0.2209  0.3415 -0.6605
   6823SM   C15 8778   1.809   3.706  14.369 -0.3605  0.3368 -1.1873
   6823SM  H15A 8779   1.836   3.678  14.269 -0.0052 -2.5633 -0.3720
   6823SM  H15B 8780   1.842   3.806  14.392 -1.3673  0.3212  0.5360
   6823SM  H15C 8781   1.702   3.720  14.377 -0.2841  0.5453 -0.3914
   6823SM   C14 8782   2.011   3.582  14.404  0.4350 -0.4543 -0.3175
   6823SM  H14A 8783   2.074   3.535  14.478 -1.6198 -1.1405  1.0825
   6823SM  H14B 8784   2.068   3.672  14.385 -3.1706  2.5055  1.4869
   6823SM  H14C 8785   2.018   3.533  14.308 -0.0291 -0.1601 -0.5058
   6823SM   C13 8786   1.877   3.625  14.597 -0.7017  0.1817  0.4713
   6823SM  H13A 8787   1.922   3.546  14.656  0.0424 -0.2164 -0.5965
   6823SM  H13B 8788   1.773   3.628  14.626 -0.7408  1.1637  0.2545
   6823SM  H13C 8789   1.925   3.720  14.616  2.3281 -0.6292 -2.2151
   6823SM   C12 8790   1.806   3.467  14.426 -0.3997 -0.2333  0.3880
   6823SM  H12A 8791   1.705   3.481  14.463 -0.4506  0.0053  0.1650
   6823SM  H12B 8792   1.839   3.384  14.487 -0.6510 -1.7906 -1.4972
   6823SM   C11 8793   1.799   3.402  14.283 -0.1101  0.1872  0.3680
   6823SM  H11A 8794   1.759   3.480  14.215  0.6405  2.1335  2.0536
   6823SM  H11B 8795   1.728   3.317  14.290  1.5172 -1.0830  3.1490
   6823SM     P 8796   1.959   3.215  14.204  0.1739  0.2175 -0.1406
   6823SM   O13 8797   2.105   3.212  14.170 -0.1479  0.8015  0.2169
   6823SM   O14 8798   1.921   3.116  14.307 -0.4041 -0.3899  0.2108
   6823SM   O11 8799   1.879   3.180  14.072  0.3665  0.4884  0.2951
   6823SM   O12 8800   1.930   3.365  14.239 -0.2806 -0.7230  0.2930
   6823SM   C1S 8801   1.882   3.262  13.954 -0.3254 -0.2038 -0.9765
   6823SM   H1S 8802   1.983   3.307  13.940 -0.0462 -0.7270 -0.6601
   6823SM   H1T 8803   1.804   3.340  13.972 -2.4970 -2.4097 -0.2083
   6823SM    NF 8804   1.835   3.284  13.706 -0.5872 -0.2910 -0.1428
   6823SM   HNF 8805   1.740   3.309  13.686 -0.8742 -0.4229  0.9855
   6823SM   C2S 8806   1.850   3.190  13.820  0.3791 -0.5599 -0.0346
   6823SM   H2S 8807   1.926   3.111  13.803  1.4580 -0.0711  2.1903
   6823SM   C3S 8808   1.723   3.121  13.837  0.1720  0.0100  0.7688
   6823SM   H3S 8809   1.634   3.187  13.847 -0.4789 -0.4520 -1.5353
   6823SM    O3 8810   1.714   3.034  13.948  0.5776  0.1854 -1.2632
   6823SM   HO3 8811   1.796   3.044  13.997 -1.0382  0.1338  1.6610
   6823SM   C4S 8812   1.690   3.038  13.712  0.4569  0.4823 -0.3778
   6823SM   H4S 8813   1.757   2.952  13.695 -1.4619 -1.3599  0.8922
   6823SM   C5S 8814   1.602   3.079  13.606  0.1876 -0.4102 -0.2808
   6823SM   H5S 8815   1.543   3.172  13.616  0.3537 -0.2573 -0.6905
   6823SM   C6S 8816   1.580   2.998  13.478  0.1786 -0.3013 -0.1612
   6823SM   H6S 8817   1.472   2.982  13.457  0.4730 -0.3178 -1.8306
   6823SM   H6T 8818   1.627   2.899  13.493  4.0727  1.5291  0.8407
   6823SM   C7S 8819   1.645   3.065  13.345  0.2332  0.1167  0.2181
   6823SM   H7S 8820   1.753   3.081  13.366  0.4318 -1.2667  0.3768
   6823SM   H7T 8821   1.598   3.165  13.333 -2.3735 -1.0914 -0.2319
   6823SM   C8S 8822   1.626   2.983  13.204 -0.2107 -0.0936 -0.5657
   6823SM   H8S 8823   1.683   2.888  13.203 -0.5308 -0.2887 -2.1083
   6823SM   H8T 8824   1.672   3.037  13.120 -0.6449  2.0924  0.5262
   6823SM   C9S 8825   1.481   2.956  13.174  0.3968 -0.2558 -0.1505
   6823SM   H9S 8826   1.421   3.049  13.180 -2.0954 -1.6792 -1.5029
   6823SM   H9T 8827   1.439   2.892  13.254  1.1848 -2.6276 -1.5436
   6823SM  C10S 8828   1.457   2.881  13.044 -0.2071 -0.3623 -0.4603
   6823SM  H10S 8829   1.351   2.848  13.051 -1.0811  2.5721  2.6504
   6823SM  H10T 8830   1.507   2.783  13.058 -1.2210 -0.9922 -1.0953
   6823SM  C11S 8831   1.484   2.952  12.914  0.2729 -0.1923  0.5170
   6823SM  H11S 8832   1.571   3.021  12.923  1.0881 -1.2313  0.7307
   6823SM  H11T 8833   1.394   3.005  12.876  1.9785  1.1885 -1.8959
   6823SM  C12S 8834   1.531   2.851  12.803 -0.1863 -0.6447  0.3500
   6823SM  H12S 8835   1.456   2.768  12.798  2.1064 -3.0018  2.2416
   6823SM  H12T 8836   1.628   2.813  12.841  0.4352  1.6331  1.1748
   6823SM  C13S 8837   1.542   2.913  12.663 -0.1967  0.2419 -0.2652
   6823SM  H13S 8838   1.595   3.010  12.666 -0.2123  0.2549  3.1391
   6823SM  H13T 8839   1.440   2.919  12.621 -0.1976 -0.5994 -0.4056
   6823SM  C14S 8840   1.620   2.826  12.570 -0.9300 -0.0985 -0.9889
   6823SM  H14S 8841   1.575   2.725  12.561 -0.2676 -0.5243  0.1518
   6823SM  H14T 8842   1.724   2.803  12.604  0.3302  1.5396 -3.4333
   6823SM  C15S 8843   1.647   2.884  12.434  0.0027 -0.2162 -0.0789
   6823SM  H15S 8844   1.738   2.837  12.391  0.1041 -1.0674  1.0042
   6823SM  H15T 8845   1.657   2.994  12.444 -0.3340 -0.2727  0.9926
   6823SM  C16S 8846   1.530   2.850  12.335  0.0598  0.1887 -0.5010
   6823SM  H16S 8847   1.435   2.870  12.388  1.9186 -1.2111  3.8418
   6823SM  H16T 8848   1.529   2.740  12.318  0.7375  0.3329 -1.5570
   6823SM  C17S 8849   1.523   2.919  12.196  0.0053  0.0231 -0.4756
   6823SM  H17S 8850   1.518   3.027  12.218  0.2884 -0.0713  0.0707
   6823SM  H17T 8851   1.432   2.886  12.141  0.2855 -0.4242 -0.6808
   6823SM  C18S 8852   1.657   2.891  12.121 -0.4975 -0.1611  0.0156
   6823SM  H18S 8853   1.659   2.947  12.025 -0.4500  1.5554  0.9821
   6823SM  H18T 8854   1.680   2.785  12.097  2.2108  0.4277 -0.3076
   6823SM  H18U 8855   1.742   2.920  12.185  0.2973 -2.5348  0.1517
   6823SM   C1F 8856   1.928   3.329  13.624  0.0432 -1.0326  0.9152
   6823SM    OF 8857   2.044   3.310  13.645  0.2600 -0.3006 -0.0754
   6823SM   C2F 8858   1.883   3.418  13.500 -0.0341  0.1658 -0.2987
   6823SM   H2F 8859   1.843   3.514  13.538 -1.4851  0.3038 -1.9904
   6823SM   H2G 8860   1.809   3.359  13.441  1.1115 -1.3852 -0.2556
   6823SM   C3F 8861   2.006   3.433  13.395  0.1190 -0.2463  0.0944
   6823SM   H3F 8862   2.035   3.331  13.362 -2.3548 -1.5803  1.7259
   6823SM   H3G 8863   2.095   3.483  13.441  1.0376 -0.8837 -0.9383
   6823SM   C4F 8864   1.965   3.517  13.278 -0.2855  0.5925  0.5393
   6823SM   H4F 8865   1.982   3.625  13.296 -1.1406  1.0513 -1.1612
   6823SM   H4G 8866   1.854   3.516  13.268 -0.2572  0.7504  0.1922
   6823SM   C5F 8867   2.025   3.467  13.146  0.5087 -0.6551  0.9002
   6823SM   H5F 8868   1.974   3.378  13.104 -1.1769  0.5270  0.3529
   6823SM   H5G 8869   2.134   3.450  13.156  0.9212  1.3642  0.3148
   6823SM   C6F 8870   2.007   3.569  13.042 -0.1897 -0.2635  0.9916
   6823SM   H6F 8871   2.078   3.655  13.044  1.5541 -1.5401 -1.1414
   6823SM   H6G 8872   1.902   3.602  13.055 -1.1633 -1.5596 -2.5059
   6823SM   C7F 8873   2.000   3.514  12.902 -0.7646 -0.2187 -0.3734
   6823SM   H7F 8874   1.934   3.424  12.903 -0.2554 -0.6926  3.0370
   6823SM   H7G 8875   2.102   3.477  12.878  1.1423  2.9717  1.9352
   6823SM   C8F 8876   1.948   3.610  12.800  0.9148 -0.2770  0.1225
   6823SM   H8F 8877   2.006   3.704  12.792  0.7160 -0.1268  0.4174
   6823SM   H8G 8878   1.847   3.642  12.834  0.8169 -1.2076  0.7275
   6823SM   C9F 8879   1.940   3.536  12.670 -0.6081  0.2144 -0.1043
   6823SM   H9F 8880   1.878   3.444  12.677 -1.0547  0.6135  1.7144
   6823SM   H9G 8881   2.045   3.509  12.646 -0.2993  1.6805 -0.5099
   6823SM  C10F 8882   1.875   3.617  12.556  0.2479  0.0423  0.4913
   6823SM  H10F 8883   1.911   3.721  12.564  0.3289  0.1143 -0.6780
   6823SM  H10G 8884   1.764   3.624  12.562  0.0379 -1.0107 -1.3951
   6823SM  C11F 8885   1.906   3.564  12.416 -0.3948  0.0766  0.0932
   6823SM  H11F 8886   1.849   3.471  12.396 -0.0796 -0.4602  1.5823
   6823SM  H11G 8887   2.013   3.541  12.434 -0.3743  1.4443  1.9922
   6823SM  C12F 8888   1.874   3.671  12.306 -0.8419 -0.7062 -0.8583
   6823SM  H12F 8889   1.913   3.772  12.328 -1.4784 -0.4038 -1.0993
   6823SM  H12G 8890   1.764   3.686  12.314 -0.5109  0.9737  1.4576
   6823SM  C13F 8891   1.911   3.627  12.169 -0.0782 -0.5124  0.6304
   6823SM  H13F 8892   1.878   3.528  12.130 -0.4843  0.1909 -0.8943
   6823SM  H13G 8893   2.021   3.638  12.162 -0.1609  0.2959  0.4986
   6823SM  C14F 8894   1.848   3.716  12.048 -0.5076  0.7080 -0.1720
   6823SM  H14F 8895   1.894   3.818  12.056 -0.4995  1.0445 -3.3495
   6823SM  H14G 8896   1.738   3.721  12.061 -0.3684  2.1617  0.6986
   6823SM  C15F 8897   1.876   3.645  11.912  0.6317 -0.2172 -0.1944
   6823SM  H15F 8898   1.816   3.553  11.898  0.6300  0.0178 -2.0272
   6823SM  H15G 8899   1.986   3.633  11.902  0.5814  0.9608 -4.1855
   6823SM  C16F 8900   1.846   3.736  11.791  0.6967 -0.3625  0.4376
   6823SM  H16F 8901   1.935   3.803  11.787  1.4027 -1.3414 -2.5969
   6823SM  H16G 8902   1.756   3.799  11.800  0.8474 -0.2108  0.9170
   6823SM  C17F 8903   1.827   3.661  11.658 -0.3172  0.3213  0.1504
   6823SM  H17F 8904   1.739   3.595  11.669  0.6574 -0.9171  0.8376
   6823SM  H17G 8905   1.913   3.597  11.627  0.7950  0.8801  1.9121
   6823SM  C18F 8906   1.800   3.758  11.541 -0.2828 -0.7222  0.1192
   6823SM  H18F 8907   1.899   3.808  11.531 -0.6699 -0.0366 -0.3560
   6823SM  H18G 8908   1.729   3.839  11.566  1.3417  0.5317  0.8693
   6823SM  C19F 8909   1.763   3.691  11.409  0.0097 -0.4015 -0.8742
   6823SM  H19F 8910   1.657   3.656  11.406  0.9643 -4.1563  1.7192
   6823SM  H19G 8911   1.825   3.600  11.400  2.3283  1.0822 -0.7150
   6823SM  C20F 8912   1.798   3.778  11.284 -0.2870  0.5808 -0.0648
   6823SM  H20F 8913   1.907   3.789  11.299 -0.2282 -0.6649  0.5310
   6823SM  H20G 8914   1.749   3.874  11.310  1.2336  0.8338  2.1447
   6823SM  C21F 8915   1.764   3.724  11.142 -0.4423 -0.6609  0.9904
   6823SM  H21F 8916   1.656   3.714  11.118 -0.3620  1.3535 -0.5815
   6823SM  H21G 8917   1.821   3.630  11.129 -0.0989 -0.3852  0.4406
   6823SM  C22F 8918   1.825   3.813  11.028 -0.8856  0.5917  0.4729
   6823SM  H22F 8919   1.933   3.833  11.042 -0.8909  2.8143 -1.9698
   6823SM  H22G 8920   1.771   3.909  11.042 -1.2911  0.5050 -0.4518
   6823SM  C23F 8921   1.810   3.766  10.881 -0.0891  0.0589  0.1174
   6823SM  H23F 8922   1.704   3.735  10.868 -1.0635  2.6057  1.3261
   6823SM  H23G 8923   1.878   3.682  10.855  0.4733  0.5560 -0.0475
   6823SM  H23H 8924   1.825   3.852  10.812 -0.1178  0.8158  1.0324
   6923SM     N 8925   3.765   2.309  14.064  0.9649  0.5421 -0.2978
   6923SM   C15 8926   3.672   2.233  13.984 -0.3277  0.1150  0.3302
   6923SM  H15A 8927   3.708   2.136  13.952  0.2797 -0.0612  1.4979
   6923SM  H15B 8928   3.651   2.280  13.890 -1.9337  1.7332  1.4394
   6923SM  H15C 8929   3.575   2.221  14.031 -1.1979  1.3340 -1.0795
   6923SM   C14 8930   3.690   2.441  14.107  0.5572  0.9442  0.3596
   6923SM  H14A 8931   3.602   2.423  14.166 -1.1601 -0.3762 -2.4418
   6923SM  H14B 8932   3.662   2.501  14.022  1.2183  0.8736  0.0843
   6923SM  H14C 8933   3.756   2.504  14.165 -0.5951  3.4125 -0.8494
   6923SM   C13 8934   3.793   2.231  14.188 -0.3315  0.1147  0.0581
   6923SM  H13A 8935   3.816   2.300  14.268 -1.0341  0.3645  0.0575
   6923SM  H13B 8936   3.880   2.173  14.164 -0.5483  0.5442 -2.0306
   6923SM  H13C 8937   3.706   2.174  14.216 -0.4316  0.4815  0.5086
   6923SM   C12 8938   3.893   2.324  13.989 -0.0893 -0.6320  0.5169
   6923SM  H12A 8939   3.918   2.225  13.955  0.8551 -0.6679  1.2707
   6923SM  H12B 8940   3.974   2.354  14.055  0.8659  1.6382 -1.5567
   6923SM   C11 8941   3.897   2.424  13.873  0.0660  0.8064  0.5736
   6923SM  H11A 8942   3.833   2.391  13.788 -0.6551 -2.0506  2.1163
   6923SM  H11B 8943   4.000   2.418  13.833  0.0243  0.4702  0.5083
   6923SM     P 8944   3.966   2.675  13.921 -0.6860 -0.1733 -0.3831
   6923SM   O13 8945   3.895   2.804  13.954 -0.3382  0.3690  0.0761
   6923SM   O14 8946   4.073   2.628  14.013  0.0345 -0.1806  0.2886
   6923SM   O11 8947   4.037   2.690  13.784 -0.8870 -0.5195 -0.5716
   6923SM   O12 8948   3.865   2.559  13.905  0.6486  0.2447  0.1001
   6923SM   C1S 8949   3.971   2.676  13.661 -0.7379  0.3728  0.2807
   6923SM   H1S 8950   3.867   2.715  13.658  0.2890  3.2741 -0.2737
   6923SM   H1T 8951   3.969   2.570  13.627  3.1822  0.7535 -1.6438
   6923SM    NF 8952   3.970   2.735  13.417 -0.0157 -0.8949  0.0667
   6923SM   HNF 8953   4.014   2.682  13.344 -0.8735  1.6702 -2.5301
   6923SM   C2S 8954   4.051   2.748  13.543  0.1527  0.2661 -0.0741
   6923SM   H2S 8955   4.059   2.856  13.567 -0.4309  0.4249 -0.5800
   6923SM   C3S 8956   4.190   2.682  13.529 -0.9535 -0.7117 -0.9504
   6923SM   H3S 8957   4.181   2.579  13.491  1.4303 -1.7506  0.9941
   6923SM    O3 8958   4.269   2.663  13.650  0.6938 -0.4155 -0.0840
   6923SM   HO3 8959   4.203   2.689  13.715  0.0628  2.7814 -1.7810
   6923SM   C4S 8960   4.280   2.755  13.433  0.4827 -0.6215  0.0927
   6923SM   H4S 8961   4.243   2.743  13.330 -2.3766 -0.6469  1.0280
   6923SM   C5S 8962   4.385   2.839  13.460  0.5085  0.7351  0.2107
   6923SM   H5S 8963   4.417   2.863  13.562  1.2931 -1.9570  0.6733
   6923SM   C6S 8964   4.474   2.902  13.356 -0.6057 -1.0268  0.3029
   6923SM   H6S 8965   4.578   2.886  13.393 -0.4013  1.3348  0.9041
   6923SM   H6T 8966   4.479   3.012  13.346  1.0855 -1.1427 -0.4053
   6923SM   C7S 8967   4.468   2.827  13.225 -0.3228 -0.5901 -0.0105
   6923SM   H7S 8968   4.361   2.829  13.195 -0.1537  1.3647 -0.5947
   6923SM   H7T 8969   4.505   2.722  13.235  0.1916 -0.4005  0.0786
   6923SM   C8S 8970   4.543   2.902  13.110 -0.5157 -0.0751 -0.4148
   6923SM   H8S 8971   4.649   2.914  13.141 -0.8200  2.5916 -0.1634
   6923SM   H8T 8972   4.505   3.006  13.105 -0.4666 -0.0094  0.4676
   6923SM   C9S 8973   4.538   2.815  12.988 -0.7332  0.3865  0.1319
   6923SM   H9S 8974   4.433   2.802  12.953 -0.3758 -0.1540 -0.7692
   6923SM   H9T 8975   4.590   2.720  13.010  1.0069  1.3011  0.1030
   6923SM  C10S 8976   4.613   2.880  12.863  0.1009 -0.4103 -0.3077
   6923SM  H10S 8977   4.719   2.852  12.881 -0.2864 -2.1861 -0.5880
   6923SM  H10T 8978   4.613   2.991  12.871  1.3368 -0.3612 -0.6954
   6923SM  C11S 8979   4.575   2.835  12.719  0.0424 -0.4652  0.2337
   6923SM  H11S 8980   4.612   2.906  12.641  1.1883  0.1494  1.2903
   6923SM  H11T 8981   4.464   2.833  12.720 -0.0273  0.1381 -1.8178
   6923SM  C12S 8982   4.616   2.690  12.688  0.0544 -0.5060  0.1922
   6923SM  H12S 8983   4.574   2.634  12.774 -2.3413  1.4702  0.4059
   6923SM  H12T 8984   4.725   2.668  12.694 -0.0592 -1.2522 -0.2805
   6923SM  C13S 8985   4.574   2.633  12.555  0.0815 -0.8365 -0.2962
   6923SM  H13S 8986   4.463   2.622  12.559 -0.3452  2.7144  0.4288
   6923SM  H13T 8987   4.623   2.534  12.546  0.8346 -0.4490 -0.5104
   6923SM  C14S 8988   4.615   2.714  12.433 -0.1981  0.3349 -0.0037
   6923SM  H14S 8989   4.725   2.719  12.417 -0.1406  0.6181  0.4647
   6923SM  H14T 8990   4.582   2.818  12.454  1.2602  1.1028 -1.3534
   6923SM  C15S 8991   4.537   2.663  12.305  0.1896 -0.0765  0.2634
   6923SM  H15S 8992   4.427   2.657  12.323  0.0731 -0.0256 -0.4027
   6923SM  H15T 8993   4.577   2.560  12.288 -0.0159  0.1268 -1.8010
   6923SM  C16S 8994   4.574   2.741  12.174 -0.2910  0.5827  0.3547
   6923SM  H16S 8995   4.683   2.750  12.156 -0.4718  1.3887 -0.4141
   6923SM  H16T 8996   4.537   2.845  12.190 -0.9414  0.5404 -0.7692
   6923SM  C17S 8997   4.518   2.696  12.038 -0.0080 -0.0337 -0.6965
   6923SM  H17S 8998   4.414   2.735  12.047  0.8799  1.9786  2.7370
   6923SM  H17T 8999   4.516   2.586  12.023  1.6941 -0.1396 -0.3641
   6923SM  C18S 9000   4.582   2.751  11.915 -0.7251 -0.3383  0.0658
   6923SM  H18S 9001   4.519   2.724  11.828 -0.8556  0.0033  0.0544
   6923SM  H18T 9002   4.684   2.710  11.897 -0.8642  0.4234 -2.8296
   6923SM  H18U 9003   4.594   2.861  11.922 -0.8192 -0.3296  0.0901
   6923SM   C1F 9004   3.846   2.766  13.391  0.1331 -0.1036 -0.8922
   6923SM    OF 9005   3.790   2.842  13.463  0.3100 -0.3744  0.0112
   6923SM   C2F 9006   3.774   2.688  13.280  0.0287  0.3344 -0.0057
   6923SM   H2F 9007   3.754   2.590  13.328 -0.3485  1.5252  2.3832
   6923SM   H2G 9008   3.841   2.690  13.191 -0.6993  0.8974 -0.5401
   6923SM   C3F 9009   3.633   2.744  13.243 -0.4800  0.1738 -0.4882
   6923SM   H3F 9010   3.650   2.851  13.216  2.8338 -0.2489 -0.4443
   6923SM   H3G 9011   3.561   2.739  13.327  0.9633  0.1161  0.7767
   6923SM   C4F 9012   3.561   2.659  13.134  0.1965 -0.6498 -0.6640
   6923SM   H4F 9013   3.452   2.672  13.150  0.7022  2.4920  1.1304
   6923SM   H4G 9014   3.582   2.550  13.135 -2.9471 -1.4087  2.8321
   6923SM   C5F 9015   3.575   2.722  12.997 -0.2542 -0.3098  0.0807
   6923SM   H5F 9016   3.682   2.719  12.968  0.0703 -0.2478  1.2254
   6923SM   H5G 9017   3.556   2.831  13.002 -1.2907 -0.4013 -1.1372
   6923SM   C6F 9018   3.486   2.667  12.886 -0.1701  0.0026  0.4466
   6923SM   H6F 9019   3.378   2.683  12.907  0.0804 -0.7671  2.6050
   6923SM   H6G 9020   3.501   2.559  12.869 -0.5242  0.0605 -0.2763
   6923SM   C7F 9021   3.517   2.735  12.752  0.0650 -0.6892 -0.1995
   6923SM   H7F 9022   3.618   2.779  12.752  0.2243 -0.9090 -2.4036
   6923SM   H7G 9023   3.432   2.805  12.737 -0.2263 -0.9234  0.3407
   6923SM   C8F 9024   3.503   2.632  12.644  0.0738 -0.8245  0.6089
   6923SM   H8F 9025   3.404   2.585  12.664 -0.7015  0.9812  1.2210
   6923SM   H8G 9026   3.584   2.556  12.651  2.0706  1.2471  1.5721
   6923SM   C9F 9027   3.502   2.698  12.506 -0.4520  0.0108 -0.7922
   6923SM   H9F 9028   3.594   2.758  12.488  0.8461 -1.3808  0.8748
   6923SM   H9G 9029   3.415   2.766  12.515 -0.1553  0.1879  1.2256
   6923SM  C10F 9030   3.485   2.600  12.393 -0.3299 -0.1303  0.4633
   6923SM  H10F 9031   3.390   2.546  12.412 -0.7229  0.7057  0.8705
   6923SM  H10G 9032   3.573   2.532  12.382  0.2335  0.4648  1.2172
   6923SM  C11F 9033   3.490   2.685  12.260  0.2873  0.2151  0.3253
   6923SM  H11F 9034   3.592   2.730  12.252  0.7691 -1.0623 -1.1988
   6923SM  H11G 9035   3.419   2.770  12.268 -1.0415 -0.2151 -4.1601
   6923SM  C12F 9036   3.459   2.609  12.141  0.0959  0.3072 -0.8351
   6923SM  H12F 9037   3.372   2.543  12.163  0.1913 -0.0198 -1.4225
   6923SM  H12G 9038   3.547   2.547  12.116  0.3053  0.6752 -1.0236
   6923SM  C13F 9039   3.421   2.701  12.032  0.3448 -0.0224  0.1972
   6923SM  H13F 9040   3.477   2.797  12.029  1.3838 -0.6346 -1.1763
   6923SM  H13G 9041   3.312   2.720  12.035  0.2159 -0.8316  1.0619
   6923SM  C14F 9042   3.463   2.645  11.895 -0.2581 -0.0664 -0.1715
   6923SM  H14F 9043   3.429   2.539  11.889  2.4775 -0.9596 -1.7114
   6923SM  H14G 9044   3.572   2.640  11.877 -0.4098  0.0089 -1.1936
   6923SM  C15F 9045   3.403   2.726  11.779 -0.2685 -0.1170 -0.2201
   6923SM  H15F 9046   3.434   2.826  11.816  1.5707 -0.4326 -0.8003
   6923SM  H15G 9047   3.292   2.714  11.783 -0.3394  0.5684  0.0667
   6923SM  C16F 9048   3.454   2.688  11.643  0.0379 -0.1463  0.6819
   6923SM  H16F 9049   3.422   2.586  11.613 -0.0595  0.3147 -0.8960
   6923SM  H16G 9050   3.565   2.692  11.640 -0.0079  1.0681 -0.8901
   6923SM  C17F 9051   3.402   2.781  11.532  0.3591  0.3613  0.6836
   6923SM  H17F 9052   3.450   2.877  11.560  3.6987 -1.7397  2.8218
   6923SM  H17G 9053   3.291   2.782  11.529  0.3081 -1.5692 -2.3872
   6923SM  C18F 9054   3.449   2.734  11.392 -0.2493 -0.5959  0.6381
   6923SM  H18F 9055   3.438   2.625  11.375 -1.0843 -0.2964 -0.9452
   6923SM  H18G 9056   3.556   2.760  11.376 -0.6492  0.0135 -1.3574
   6923SM  C19F 9057   3.365   2.788  11.272 -0.3135 -0.0428  0.6639
   6923SM  H19F 9058   3.373   2.899  11.276  1.0646 -0.0519 -0.8045
   6923SM  H19G 9059   3.258   2.759  11.280 -0.0064 -0.8149  2.8621
   6923SM  C20F 9060   3.416   2.750  11.131  0.1687  0.7248  0.4085
   6923SM  H20F 9061   3.527   2.754  11.123  0.2484 -2.2529 -3.4108
   6923SM  H20G 9062   3.362   2.796  11.046 -0.5517 -1.2806 -0.2854
   6923SM  C21F 9063   3.393   2.598  11.092  0.0489 -0.7074 -0.3300
   6923SM  H21F 9064   3.285   2.575  11.075 -0.5664  0.3640  1.6835
   6923SM  H21G 9065   3.436   2.539  11.176  3.1003 -0.4145 -1.5881
   6923SM  C22F 9066   3.467   2.556  10.967  0.4350  0.0929 -0.3115
   6923SM  H22F 9067   3.571   2.595  10.972  0.5730 -0.1286 -1.1658
   6923SM  H22G 9068   3.427   2.597  10.872 -0.3370 -0.9186 -0.4494
   6923SM  C23F 9069   3.458   2.398  10.951  0.5037 -0.1656  0.2637
   6923SM  H23F 9070   3.503   2.366  10.854  0.1252  0.5750 -0.1651
   6923SM  H23G 9071   3.349   2.379  10.944  0.6166 -1.6290  1.7925
   6923SM  H23H 9072   3.513   2.349  11.034  0.0760 -0.9891  0.0778
   7023SM     N 9073   3.531   2.779  13.778 -1.0266 -0.2779  0.6558
   7023SM   C15 9074   3.639   2.885  13.784 -0.1684  0.2970  0.1243
   7023SM  H15A 9075   3.676   2.877  13.886  0.4830  0.0166 -0.1320
   7023SM  H15B 9076   3.592   2.982  13.772 -1.4776 -0.3490 -0.1553
   7023SM  H15C 9077   3.720   2.870  13.715 -1.3395 -4.7748 -0.5828
   7023SM   C14 9078   3.591   2.648  13.820 -0.0472  0.3151 -0.0909
   7023SM  H14A 9079   3.515   2.586  13.866 -0.5988  1.3645  0.4262
   7023SM  H14B 9080   3.659   2.663  13.903  0.3422  0.9726 -0.5267
   7023SM  H14C 9081   3.647   2.600  13.741 -0.8268 -0.6854 -0.0552
   7023SM   C13 9082   3.423   2.817  13.865  0.2170  0.0867 -0.1610
   7023SM  H13A 9083   3.450   2.799  13.968  0.2042 -1.5660 -0.4209
   7023SM  H13B 9084   3.335   2.760  13.838  0.0569  1.1387 -2.0066
   7023SM  H13C 9085   3.403   2.921  13.844 -1.8275 -0.8492 -3.6872
   7023SM   C12 9086   3.477   2.770  13.637  0.5817  0.3298  0.9544
   7023SM  H12A 9087   3.562   2.744  13.576  0.7274 -2.4450  2.1690
   7023SM  H12B 9088   3.441   2.867  13.605  2.1986  0.2715 -1.3075
   7023SM   C11 9089   3.364   2.668  13.602 -0.2838 -0.6932  0.1029
   7023SM  H11A 9090   3.382   2.572  13.656 -0.3344 -1.9239 -1.9299
   7023SM  H11B 9091   3.371   2.643  13.494  3.1235  0.3784 -0.0285
   7023SM     P 9092   3.113   2.648  13.641  0.4201  0.1253  0.2947
   7023SM   O13 9093   3.140   2.545  13.746 -0.5825  0.3476  0.2506
   7023SM   O14 9094   2.990   2.727  13.667 -0.0352 -0.8456  0.2692
   7023SM   O11 9095   3.096   2.593  13.497 -0.0904 -0.5163  0.0418
   7023SM   O12 9096   3.241   2.735  13.623 -0.5077 -0.7886  0.3483
   7023SM   C1S 9097   3.089   2.691  13.392 -0.6346  0.4380 -0.5149
   7023SM   H1S 9098   3.155   2.779  13.413  0.6988  0.3713 -3.8192
   7023SM   H1T 9099   2.981   2.712  13.377 -0.7999  0.5405  0.7184
   7023SM    NF 9100   3.045   2.683  13.152  0.0875 -0.0621 -0.4418
   7023SM   HNF 9101   2.983   2.608  13.130  2.4843 -3.1184  2.2381
   7023SM   C2S 9102   3.139   2.633  13.257  0.1184 -0.1584  0.6391
   7023SM   H2S 9103   3.243   2.670  13.242 -0.5967  0.6104 -3.9937
   7023SM   C3S 9104   3.156   2.480  13.263 -0.0611  0.3587 -0.1172
   7023SM   H3S 9105   3.052   2.441  13.268 -0.2998  0.6458 -1.8904
   7023SM    O3 9106   3.242   2.421  13.360  0.3487 -0.4664 -0.2896
   7023SM   HO3 9107   3.241   2.491  13.426  1.0443 -0.2203 -0.5305
   7023SM   C4S 9108   3.211   2.431  13.128  0.2388  0.0310 -0.6266
   7023SM   H4S 9109   3.320   2.445  13.121 -0.0424  3.8746  0.0992
   7023SM   C5S 9110   3.149   2.372  13.023  0.2049  0.1895  0.6618
   7023SM   H5S 9111   3.040   2.366  13.016  0.3713 -0.6416 -2.6665
   7023SM   C6S 9112   3.213   2.315  12.902 -0.0389 -0.1643  0.2049
   7023SM   H6S 9113   3.172   2.214  12.879  0.7829 -0.4089 -0.2397
   7023SM   H6T 9114   3.322   2.294  12.908  0.0569 -0.7705 -2.3130
   7023SM   C7S 9115   3.192   2.408  12.784 -0.1781 -0.0916 -0.7012
   7023SM   H7S 9116   3.246   2.504  12.798 -0.4815  0.0642 -0.5804
   7023SM   H7T 9117   3.089   2.450  12.784 -0.3389 -0.4721 -1.4362
   7023SM   C8S 9118   3.211   2.337  12.653 -0.3243 -0.4170  0.7758
   7023SM   H8S 9119   3.150   2.244  12.657  0.3042 -0.8550  0.3320
   7023SM   H8T 9120   3.319   2.319  12.639  0.2575  2.5035  0.8941
   7023SM   C9S 9121   3.155   2.410  12.535  0.4059 -0.5138 -0.2888
   7023SM   H9S 9122   3.224   2.497  12.528  1.2085 -1.0149  1.1457
   7023SM   H9T 9123   3.050   2.442  12.556 -0.0501 -0.3180 -2.5849
   7023SM  C10S 9124   3.159   2.327  12.410 -0.2422 -0.0164  0.3160
   7023SM  H10S 9125   3.099   2.234  12.410  1.5863 -1.2527 -0.4599
   7023SM  H10T 9126   3.264   2.303  12.381 -0.6708 -0.1229 -1.2309
   7023SM  C11S 9127   3.118   2.412  12.291 -0.0671  0.0895  0.6651
   7023SM  H11S 9128   3.174   2.507  12.293 -2.1641  1.3774  0.7342
   7023SM  H11T 9129   3.009   2.434  12.303 -0.4658 -1.6192  0.4632
   7023SM  C12S 9130   3.136   2.345  12.151 -0.4120 -0.2511  0.9416
   7023SM  H12S 9131   3.074   2.253  12.142  0.4660 -0.6901 -1.6078
   7023SM  H12T 9132   3.245   2.322  12.148 -0.2172  0.4964  1.8773
   7023SM  C13S 9133   3.080   2.431  12.027 -0.4505  0.1799 -0.7023
   7023SM  H13S 9134   3.123   2.534  12.020  2.1183 -0.8334 -0.9877
   7023SM  H13T 9135   2.972   2.427  12.052 -0.4305 -0.8876 -0.7326
   7023SM  C14S 9136   3.118   2.356  11.893 -0.3119  0.5295 -0.3203
   7023SM  H14S 9137   3.071   2.255  11.894  0.9538 -0.0902 -1.4137
   7023SM  H14T 9138   3.229   2.347  11.896 -0.3833 -0.4591  2.3802
   7023SM  C15S 9139   3.083   2.436  11.771  0.3353  0.2863 -0.1750
   7023SM  H15S 9140   3.098   2.542  11.800 -1.4849  0.4972  0.1210
   7023SM  H15T 9141   2.974   2.430  11.751  0.1894 -1.2035  0.9535
   7023SM  C16S 9142   3.177   2.415  11.649 -0.5260  0.2662  0.2495
   7023SM  H16S 9143   3.189   2.305  11.639  0.3307  0.4190 -0.5517
   7023SM  H16T 9144   3.273   2.457  11.685  0.1320  1.0257 -2.1638
   7023SM  C17S 9145   3.127   2.479  11.515  0.3163 -0.1303  0.0088
   7023SM  H17S 9146   3.118   2.588  11.531  0.2205  0.1252 -1.6335
   7023SM  H17T 9147   3.025   2.439  11.492  0.2277 -0.1620  0.4379
   7023SM  C18S 9148   3.221   2.457  11.390  0.2482 -0.5006 -0.5996
   7023SM  H18S 9149   3.183   2.515  11.303 -0.4876  0.0211  0.0576
   7023SM  H18T 9150   3.227   2.353  11.352  0.8839 -0.2032 -1.3346
   7023SM  H18U 9151   3.322   2.485  11.428  0.8151 -0.8464 -1.8199
   7023SM   C1F 9152   3.042   2.813  13.118 -0.3017  0.4019 -0.1062
   7023SM    OF 9153   3.118   2.898  13.166 -0.5116  0.1234 -0.1444
   7023SM   C2F 9154   2.925   2.846  13.030  0.2000  0.3996  0.1288
   7023SM   H2F 9155   2.870   2.925  13.085  0.9254  0.6372  0.5201
   7023SM   H2G 9156   2.866   2.752  13.024 -0.3900  0.8085 -0.7445
   7023SM   C3F 9157   2.961   2.893  12.896 -0.7116  0.6610  0.5628
   7023SM   H3F 9158   3.021   2.986  12.902 -1.7432  1.4707 -1.0038
   7023SM   H3G 9159   2.866   2.924  12.848  0.0498  2.6438  0.2445
   7023SM   C4F 9160   3.035   2.792  12.809 -0.0863 -0.1834 -0.1706
   7023SM   H4F 9161   2.985   2.694  12.792  1.6962 -1.3437  0.9260
   7023SM   H4G 9162   3.136   2.776  12.853 -0.4517 -0.5217  0.5608
   7023SM   C5F 9163   3.063   2.851  12.672  0.0087 -0.3212  0.4021
   7023SM   H5F 9164   3.131   2.939  12.679 -1.6969  1.1210 -0.0971
   7023SM   H5G 9165   2.963   2.883  12.634 -0.9284  0.3351  3.1849
   7023SM   C6F 9166   3.134   2.749  12.574 -0.0188 -0.4461  0.4520
   7023SM   H6F 9167   3.066   2.662  12.586  1.1295 -1.3125  0.8700
   7023SM   H6G 9168   3.229   2.729  12.627  0.1584  1.4625  0.9272
   7023SM   C7F 9169   3.134   2.800  12.426 -0.5554 -0.4424  0.3449
   7023SM   H7F 9170   3.188   2.732  12.356 -1.2337 -0.0049 -0.6259
   7023SM   H7G 9171   3.176   2.903  12.428 -1.3573 -0.1191  1.0995
   7023SM   C8F 9172   2.992   2.819  12.365 -0.7559 -0.1931  0.5481
   7023SM   H8F 9173   2.919   2.837  12.447 -0.2350 -1.1123  1.2293
   7023SM   H8G 9174   2.972   2.719  12.320 -0.2603  0.0547 -0.2477
   7023SM   C9F 9175   2.981   2.926  12.259 -0.3093  0.1756 -0.1163
   7023SM   H9F 9176   3.019   3.025  12.294  1.2524 -1.2454  2.5447
   7023SM   H9G 9177   2.872   2.941  12.239 -0.9251 -0.1893  2.5374
   7023SM  C10F 9178   3.043   2.881  12.124 -0.2399 -0.3528 -0.5855
   7023SM  H10F 9179   3.012   2.779  12.096 -1.2639 -0.7325  1.6987
   7023SM  H10G 9180   3.153   2.884  12.142 -0.0267  1.5288 -1.8635
   7023SM  C11F 9181   2.995   2.971  12.006  0.0212 -0.1683 -0.6450
   7023SM  H11F 9182   3.011   3.078  12.033 -0.0779 -0.6675  1.6486
   7023SM  H11G 9183   2.885   2.956  12.010 -0.0229  0.0455 -1.0097
   7023SM  C12F 9184   3.046   2.947  11.862  0.0864  0.0938 -0.4932
   7023SM  H12F 9185   3.008   2.847  11.833 -1.3638 -0.5673  3.1302
   7023SM  H12G 9186   3.157   2.943  11.874 -0.1888  0.4554  3.4230
   7023SM  C13F 9187   3.001   3.052  11.757  0.2062  0.5079 -0.0892
   7023SM  H13F 9188   3.055   3.144  11.787 -0.3677  0.5955  0.7169
   7023SM  H13G 9189   2.893   3.079  11.758 -0.4327 -1.7926  0.0087
   7023SM  C14F 9190   3.034   3.006  11.619  0.0667  0.0984 -0.1265
   7023SM  H14F 9191   2.958   2.940  11.573 -0.7228  1.5256 -0.9512
   7023SM  H14G 9192   3.128   2.948  11.621 -0.1713 -0.3506 -1.2450
   7023SM  C15F 9193   3.059   3.114  11.521 -0.8484 -0.8134  0.2204
   7023SM  H15F 9194   3.083   3.058  11.427 -0.4091  0.5399 -0.4968
   7023SM  H15G 9195   3.154   3.163  11.549 -2.0702  2.3601 -0.7728
   7023SM  C16F 9196   2.940   3.205  11.501  0.1909 -0.8584 -0.4420
   7023SM  H16F 9197   2.965   3.291  11.436 -0.1121 -0.2870  0.1856
   7023SM  H16G 9198   2.908   3.249  11.598 -0.0366 -0.1963 -0.8127
   7023SM  C17F 9199   2.818   3.131  11.449 -0.6830  0.0887  0.0073
   7023SM  H17F 9200   2.805   3.038  11.509  0.4046  0.6000  1.0674
   7023SM  H17G 9201   2.843   3.094  11.348 -0.8896  0.2561 -0.1071
   7023SM  C18F 9202   2.689   3.214  11.427 -0.4088  0.3708  0.4951
   7023SM  H18F 9203   2.708   3.302  11.362 -0.7274  0.3067  0.3162
   7023SM  H18G 9204   2.641   3.243  11.523  0.9392 -3.0134  2.3462
   7023SM  C19F 9205   2.584   3.125  11.368  0.4846 -0.2880  0.7342
   7023SM  H19F 9206   2.549   3.038  11.427  1.8099  0.0718  2.1074
   7023SM  H19G 9207   2.620   3.103  11.265  1.1271  1.7060  0.4805
   7023SM  C20F 9208   2.448   3.210  11.343  0.0960  0.0898 -0.1392
   7023SM  H20F 9209   2.473   3.306  11.292 -1.1061  1.9152  2.4578
   7023SM  H20G 9210   2.406   3.229  11.444 -1.8101  0.7354 -1.0101
   7023SM  C21F 9211   2.345   3.134  11.264 -0.1716 -0.9135 -0.6603
   7023SM  H21F 9212   2.268   3.213  11.252 -0.2574 -0.8530  0.2252
   7023SM  H21G 9213   2.315   3.043  11.320  0.3286 -0.5081  0.2983
   7023SM  C22F 9214   2.390   3.079  11.127  0.6708 -0.0994  0.5141
   7023SM  H22F 9215   2.459   2.993  11.132 -0.3800 -0.9677  0.4205
   7023SM  H22G 9216   2.447   3.160  11.077 -3.0702  2.4936  0.0020
   7023SM  C23F 9217   2.267   3.036  11.041  0.7768 -0.3228  0.2676
   7023SM  H23F 9218   2.285   3.012  10.934 -0.2796  0.9630 -0.2417
   7023SM  H23G 9219   2.191   3.118  11.047 -0.7758 -1.7968  1.8725
   7023SM  H23H 9220   2.214   2.948  11.084 -2.0139  1.2459  0.2966
   7123SM     N 9221   3.188   1.674  14.231 -1.3035  0.5766  0.4622
   7123SM   C15 9222   3.181   1.818  14.269  0.4655 -0.4700 -0.4385
   7123SM  H15A 9223   3.119   1.874  14.201 -3.4299 -1.8468  1.6136
   7123SM  H15B 9224   3.274   1.868  14.293 -0.9783  1.6780  1.0621
   7123SM  H15C 9225   3.128   1.816  14.363 -0.7692 -0.2220 -1.1067
   7123SM   C14 9226   3.265   1.606  14.343 -0.1128 -0.0028  0.9072
   7123SM  H14A 9227   3.255   1.499  14.331 -1.6831  0.2198 -0.1390
   7123SM  H14B 9228   3.220   1.620  14.440 -1.4023 -1.1987  0.5172
   7123SM  H14C 9229   3.366   1.641  14.357  0.3852 -0.2717 -1.5796
   7123SM   C13 9230   3.058   1.606  14.224  0.4224 -0.1786 -0.5650
   7123SM  H13A 9231   3.069   1.500  14.210  0.3118 -0.1455 -0.9099
   7123SM  H13B 9232   2.991   1.650  14.152 -0.6686 -0.2333  0.3901
   7123SM  H13C 9233   3.001   1.602  14.316 -0.2724 -0.8102 -1.0112
   7123SM   C12 9234   3.276   1.656  14.104  0.2313  0.3137 -0.2373
   7123SM  H12A 9235   3.361   1.723  14.111  0.4036 -0.1116  3.7198
   7123SM  H12B 9236   3.221   1.681  14.014 -0.1004 -1.9657 -0.7233
   7123SM   C11 9237   3.323   1.508  14.068  0.0165 -0.3630  0.4711
   7123SM  H11A 9238   3.369   1.456  14.155  0.7978 -0.0425  0.2589
   7123SM  H11B 9239   3.395   1.502  13.983 -0.0255 -0.2536  0.4278
   7123SM     P 9240   3.146   1.425  13.889 -0.4228 -0.0164 -0.3352
   7123SM   O13 9241   3.205   1.297  13.839  0.1173  0.8613  0.0321
   7123SM   O14 9242   2.999   1.425  13.897  0.3156 -0.0772 -0.7576
   7123SM   O11 9243   3.198   1.553  13.813  0.5654  0.1774 -0.0470
   7123SM   O12 9244   3.202   1.437  14.034 -1.0657 -0.2115 -0.1505
   7123SM   C1S 9245   3.230   1.553  13.676  0.4244  0.4400  0.3016
   7123SM   H1S 9246   3.261   1.451  13.644 -0.3639  0.9242 -2.2409
   7123SM   H1T 9247   3.313   1.624  13.655 -1.2342  2.1616 -0.7113
   7123SM    NF 9248   3.162   1.602  13.455  0.7475 -0.1514  1.2120
   7123SM   HNF 9249   3.193   1.687  13.412  1.0864 -0.8030  0.1299
   7123SM   C2S 9250   3.111   1.595  13.590  0.8448  0.5255 -0.0664
   7123SM   H2S 9251   3.027   1.525  13.611  0.6764  1.1092  1.2972
   7123SM   C3S 9252   3.055   1.733  13.633  0.7589 -0.2726  0.0956
   7123SM   H3S 9253   3.138   1.806  13.647  1.7943 -0.8298 -2.5624
   7123SM    O3 9254   2.989   1.737  13.752  0.0760  0.0476 -0.5067
   7123SM   HO3 9255   2.988   1.643  13.773  3.0410  0.4313  1.9579
   7123SM   C4S 9256   2.956   1.784  13.533  0.1420 -0.3553  0.2972
   7123SM   H4S 9257   2.864   1.725  13.539  0.6982 -1.3575 -0.6617
   7123SM   C5S 9258   2.965   1.893  13.454  0.0185 -0.4824 -0.2041
   7123SM   H5S 9259   3.059   1.951  13.455 -0.4362  0.2627  0.5766
   7123SM   C6S 9260   2.849   1.932  13.371 -0.2174  0.4709 -0.0288
   7123SM   H6S 9261   2.795   2.021  13.409  0.8257  0.1856  2.2791
   7123SM   H6T 9262   2.771   1.853  13.372 -0.3683  0.6072  1.6709
   7123SM   C7S 9263   2.878   1.958  13.224 -0.5840  0.1782  0.4110
   7123SM   H7S 9264   2.926   1.865  13.186  1.1100  1.5647 -0.9681
   7123SM   H7T 9265   2.952   2.039  13.214 -0.1531 -0.3324 -0.7391
   7123SM   C8S 9266   2.765   2.001  13.140 -0.3209 -0.8488  0.0194
   7123SM   H8S 9267   2.714   2.085  13.192 -0.6983 -0.2760 -1.2148
   7123SM   H8T 9268   2.691   1.919  13.139  0.5433 -1.6657 -1.4140
   7123SM   C9S 9269   2.813   2.033  12.996 -0.1229 -0.0787  0.1631
   7123SM   H9S 9270   2.911   2.077  13.022  1.4580 -1.8939 -2.3237
   7123SM   H9T 9271   2.749   2.110  12.948  1.0224  0.5759 -0.3488
   7123SM  C10S 9272   2.840   1.911  12.906 -0.0507  0.0918  0.0724
   7123SM  H10S 9273   2.741   1.863  12.885  0.3978  0.1580 -2.4881
   7123SM  H10T 9274   2.911   1.845  12.959  0.8770 -0.0748 -1.3112
   7123SM  C11S 9275   2.892   1.942  12.768 -0.5522 -0.1409  0.6675
   7123SM  H11S 9276   2.951   1.858  12.726 -0.7426  0.4204 -0.8097
   7123SM  H11T 9277   2.962   2.026  12.789 -1.0448 -0.3042  3.2221
   7123SM  C12S 9278   2.789   1.986  12.661  0.1340 -0.0213  0.4682
   7123SM  H12S 9279   2.713   2.062  12.691 -0.6570 -1.6584  2.9376
   7123SM  H12T 9280   2.726   1.896  12.639 -0.9038  1.1407 -1.7287
   7123SM  C13S 9281   2.853   2.040  12.535  0.2521 -0.0855  0.2174
   7123SM  H13S 9282   2.911   1.960  12.484  0.5608  1.3027 -1.7136
   7123SM  H13T 9283   2.920   2.125  12.561 -1.4304  1.3812 -0.0397
   7123SM  C14S 9284   2.745   2.096  12.444 -0.1941  0.4738 -0.2091
   7123SM  H14S 9285   2.722   2.200  12.477 -0.2229  0.2517  0.4887
   7123SM  H14T 9286   2.653   2.034  12.451  1.4575 -1.9694  1.0528
   7123SM  C15S 9287   2.792   2.111  12.291 -0.1868  0.1718  0.0709
   7123SM  H15S 9288   2.878   2.181  12.281 -0.1022 -0.0302 -0.6667
   7123SM  H15T 9289   2.711   2.158  12.230 -0.4866 -0.6119 -0.1512
   7123SM  C16S 9290   2.825   1.982  12.219 -0.0279  0.2648 -0.5895
   7123SM  H16S 9291   2.751   1.907  12.256 -1.7846  2.6109  0.8888
   7123SM  H16T 9292   2.928   1.946  12.240 -1.0685 -0.9840  3.2026
   7123SM  C17S 9293   2.804   1.984  12.067 -0.1777 -0.2649 -0.4160
   7123SM  H17S 9294   2.836   2.084  12.030 -0.6037  0.3567  0.8403
   7123SM  H17T 9295   2.698   1.986  12.035 -0.0509  0.2531 -0.8265
   7123SM  C18S 9296   2.877   1.865  12.004  0.5452  0.4102 -0.0139
   7123SM  H18S 9297   2.986   1.871  12.023  0.1657  1.0511  2.3174
   7123SM  H18T 9298   2.858   1.853  11.895  2.3834 -0.0554 -0.3026
   7123SM  H18U 9299   2.843   1.769  12.050 -0.4868 -0.1746 -1.8899
   7123SM   C1F 9300   3.185   1.487  13.392 -0.2646  0.1315 -0.3795
   7123SM    OF 9301   3.154   1.378  13.439 -0.1098  0.6402 -0.1264
   7123SM   C2F 9302   3.234   1.506  13.255  0.6932 -0.1640  0.0098
   7123SM   H2F 9303   3.339   1.539  13.262  0.2360  1.9957 -2.0756
   7123SM   H2G 9304   3.171   1.584  13.208  2.5052  0.4837 -1.4582
   7123SM   C3F 9305   3.222   1.373  13.168 -0.1605  0.5073  0.7885
   7123SM   H3F 9306   3.122   1.326  13.181  0.3597 -1.3025 -1.2079
   7123SM   H3G 9307   3.287   1.296  13.216 -1.0785 -0.2444  0.8553
   7123SM   C4F 9308   3.261   1.379  13.020  0.4048  0.3764 -0.2989
   7123SM   H4F 9309   3.199   1.444  12.955 -2.3728  0.9538  2.6367
   7123SM   H4G 9310   3.257   1.287  12.959  5.3637  0.5239 -1.3056
   7123SM   C5F 9311   3.408   1.423  12.999 -0.1452 -0.5336 -0.5393
   7123SM   H5F 9312   3.475   1.374  13.073  0.0669  0.6339  0.0743
   7123SM   H5G 9313   3.418   1.533  13.010 -0.5683 -0.6297  1.1574
   7123SM   C6F 9314   3.479   1.382  12.865 -0.3643 -0.0319  0.0075
   7123SM   H6F 9315   3.470   1.272  12.858 -0.5963  0.0770 -1.8844
   7123SM   H6G 9316   3.589   1.394  12.858 -0.1227 -2.2914 -0.8874
   7123SM   C7F 9317   3.421   1.435  12.733  0.2528 -0.4034 -0.0279
   7123SM   H7F 9318   3.431   1.545  12.747  1.0633 -0.5236  0.4048
   7123SM   H7G 9319   3.314   1.413  12.717  0.1166  0.2698 -0.0449
   7123SM   C8F 9320   3.485   1.394  12.608  0.3892  0.5543  0.4508
   7123SM   H8F 9321   3.498   1.283  12.603  0.8397  0.6492 -0.9019
   7123SM   H8G 9322   3.594   1.418  12.611  0.4264  0.5354 -0.4780
   7123SM   C9F 9323   3.408   1.448  12.477 -0.5635 -0.9257 -0.0386
   7123SM   H9F 9324   3.431   1.556  12.465 -0.0385 -1.0742 -0.4306
   7123SM   H9G 9325   3.299   1.432  12.486 -0.5733 -0.9895 -0.2612
   7123SM  C10F 9326   3.454   1.375  12.353  0.5411  0.1386  0.0902
   7123SM  H10F 9327   3.421   1.269  12.351  1.6254 -0.2400  0.9024
   7123SM  H10G 9328   3.564   1.359  12.349  0.6064 -0.6592  2.7756
   7123SM  C11F 9329   3.390   1.445  12.228 -0.0629  1.2654  0.5773
   7123SM  H11F 9330   3.450   1.537  12.244  2.2796 -0.1489  0.4858
   7123SM  H11G 9331   3.281   1.462  12.243 -0.6030  0.5666 -2.1103
   7123SM  C12F 9332   3.434   1.385  12.093  1.3870 -0.5854 -0.1988
   7123SM  H12F 9333   3.391   1.284  12.078 -0.7687  0.4166 -1.1136
   7123SM  H12G 9334   3.544   1.373  12.084  1.6696  1.6773 -0.3654
   7123SM  C13F 9335   3.391   1.472  11.978  0.0360 -0.0886  0.3152
   7123SM  H13F 9336   3.427   1.575  11.997  0.2956 -0.3766  1.4940
   7123SM  H13G 9337   3.281   1.480  11.970 -0.3825 -1.7583  3.0986
   7123SM  C14F 9338   3.453   1.427  11.846  0.0237  0.3284  0.1102
   7123SM  H14F 9339   3.397   1.488  11.772 -2.7855  0.3950  2.1320
   7123SM  H14G 9340   3.432   1.320  11.828 -3.3600  0.9426 -0.2434
   7123SM  C15F 9341   3.599   1.469  11.814  0.1196 -0.2254 -0.3800
   7123SM  H15F 9342   3.677   1.439  11.887  3.1058  3.9147 -1.4750
   7123SM  H15G 9343   3.597   1.577  11.840  0.0149 -0.3776  0.2487
   7123SM  C16F 9344   3.650   1.427  11.673 -0.3233 -0.6529 -0.3745
   7123SM  H16F 9345   3.572   1.466  11.605  0.5338  0.7736 -0.5874
   7123SM  H16G 9346   3.650   1.316  11.665 -1.3978 -0.7105  0.2933
   7123SM  C17F 9347   3.782   1.501  11.635  0.2728  0.6167 -0.1454
   7123SM  H17F 9348   3.867   1.454  11.689  0.3310  2.1031  1.1064
   7123SM  H17G 9349   3.773   1.608  11.663 -1.9757  0.4546 -0.0272
   7123SM  C18F 9350   3.812   1.481  11.479  0.6714  0.2167  0.5114
   7123SM  H18F 9351   3.923   1.487  11.470  0.5483  0.0728 -1.4670
   7123SM  H18G 9352   3.759   1.573  11.447  1.6823  0.8033  0.4672
   7123SM  C19F 9353   3.765   1.356  11.404  0.4627  0.0812 -0.1140
   7123SM  H19F 9354   3.655   1.350  11.419  0.1961  0.1459 -1.8397
   7123SM  H19G 9355   3.802   1.270  11.463  1.3906  1.2194  1.0038
   7123SM  C20F 9356   3.799   1.352  11.255 -0.0199  0.1448  0.4001
   7123SM  H20F 9357   3.901   1.395  11.244 -0.4986  0.7112 -3.5324
   7123SM  H20G 9358   3.732   1.428  11.209  0.6246 -1.0000 -2.6764
   7123SM  C21F 9359   3.778   1.212  11.189 -0.0809 -0.0985 -0.1255
   7123SM  H21F 9360   3.677   1.168  11.204 -0.1652 -0.0953 -0.6808
   7123SM  H21G 9361   3.848   1.137  11.233  1.2758  0.9123 -0.4992
   7123SM  C22F 9362   3.810   1.208  11.038 -0.6568 -0.6930  0.5085
   7123SM  H22F 9363   3.734   1.261  10.978  1.7476  3.3104  0.5853
   7123SM  H22G 9364   3.812   1.101  11.007 -0.4302 -0.7340  0.6611
   7123SM  C23F 9365   3.943   1.274  10.997  0.3105 -0.2742  0.4364
   7123SM  H23F 9366   4.034   1.225  11.038 -1.0438 -3.0462  0.3679
   7123SM  H23G 9367   3.949   1.383  11.016  2.5726  0.4645 -3.4178
   7123SM  H23H 9368   3.956   1.263  10.887  1.8678 -0.4684  0.6160
   7223SM     N 9369   5.273   5.112  13.859 -0.0483 -0.4316 -0.0626
   7223SM   C15 9370   5.300   5.088  13.714 -0.7298  0.3889  0.4731
   7223SM  H15A 9371   5.306   5.176  13.653  0.7974  0.6346  0.9436
   7223SM  H15B 9372   5.216   5.033  13.673 -1.1966  0.6389  1.0704
   7223SM  H15C 9373   5.398   5.042  13.710  0.5260  2.9463 -0.5929
   7223SM   C14 9374   5.383   5.206  13.905  0.3841 -0.9462 -0.3833
   7223SM  H14A 9375   5.479   5.157  13.917  0.9326  0.2548  0.2538
   7223SM  H14B 9376   5.370   5.240  14.006  0.0392 -1.1987 -0.3395
   7223SM  H14C 9377   5.395   5.279  13.826 -1.1277 -0.4819 -0.2115
   7223SM   C13 9378   5.145   5.185  13.870 -0.7152  0.9097  0.1076
   7223SM  H13A 9379   5.075   5.118  13.821  1.7618 -2.7515  1.1487
   7223SM  H13B 9380   5.149   5.278  13.816  3.0753 -0.3120 -2.0089
   7223SM  H13C 9381   5.110   5.209  13.970 -0.6512 -1.1206  0.6602
   7223SM   C12 9382   5.267   4.982  13.938 -0.2639  0.2126 -0.5594
   7223SM  H12A 9383   5.200   4.922  13.879 -1.2389  1.1812 -0.4622
   7223SM  H12B 9384   5.221   5.008  14.031  1.4137  0.2905  0.2874
   7223SM   C11 9385   5.399   4.895  13.953  0.0452  0.5102  0.4161
   7223SM  H11A 9386   5.382   4.820  14.033 -0.1371  0.5484  0.4135
   7223SM  H11B 9387   5.480   4.960  13.992  0.6449  0.4318 -0.6590
   7223SM     P 9388   5.340   4.705  13.776 -0.4329 -0.0235 -0.0461
   7223SM   O13 9389   5.395   4.574  13.825  0.3969  0.0998 -0.1404
   7223SM   O14 9390   5.198   4.732  13.788  0.0746  0.1232  0.1087
   7223SM   O11 9391   5.370   4.705  13.620 -0.4038 -0.2805 -0.2819
   7223SM   O12 9392   5.432   4.824  13.833  0.1188 -0.0677 -0.3967
   7223SM   C1S 9393   5.491   4.753  13.569  0.3320 -0.1093  0.2667
   7223SM   H1S 9394   5.574   4.684  13.595 -0.4538 -1.9838 -1.8993
   7223SM   H1T 9395   5.512   4.859  13.596 -0.6883  0.5478 -1.3703
   7223SM    NF 9396   5.623   4.782  13.358 -0.5933  0.3980  0.3282
   7223SM   HNF 9397   5.650   4.875  13.335  0.9496  0.3103  1.6331
   7223SM   C2S 9398   5.492   4.756  13.412  0.8295  0.6452  0.0858
   7223SM   H2S 9399   5.466   4.656  13.370  2.6726  0.7580 -1.4469
   7223SM   C3S 9400   5.390   4.855  13.354 -0.5187 -0.1530 -0.1866
   7223SM   H3S 9401   5.425   4.957  13.380 -1.2098 -0.2053  1.0596
   7223SM    O3 9402   5.260   4.844  13.422  0.0661  0.1564 -0.2525
   7223SM   HO3 9403   5.274   4.785  13.495  0.7609 -0.2197 -0.6816
   7223SM   C4S 9404   5.370   4.847  13.203  0.2091 -0.0611  1.0633
   7223SM   H4S 9405   5.303   4.762  13.182  1.7628 -0.9007 -0.7118
   7223SM   C5S 9406   5.404   4.937  13.103  0.4629 -0.0526 -0.6488
   7223SM   H5S 9407   5.442   5.035  13.134 -3.3545  1.0354  1.1911
   7223SM   C6S 9408   5.352   4.933  12.959 -0.2276  0.4407  0.0926
   7223SM   H6S 9409   5.301   5.025  12.921  0.2388  1.0073  0.7994
   7223SM   H6T 9410   5.279   4.849  12.952 -0.4630  0.6777 -0.3294
   7223SM   C7S 9411   5.463   4.909  12.857  0.9490  0.3426  0.6412
   7223SM   H7S 9412   5.510   4.812  12.885 -0.2272 -0.4007  0.1382
   7223SM   H7T 9413   5.538   4.990  12.851  2.3499 -0.9951 -1.1171
   7223SM   C8S 9414   5.406   4.905  12.719 -0.9303  0.4706  0.5881
   7223SM   H8S 9415   5.341   4.993  12.700 -3.6722 -1.1425  1.9141
   7223SM   H8T 9416   5.334   4.820  12.718 -0.8683  0.4132  0.8586
   7223SM   C9S 9417   5.511   4.874  12.609 -0.1960 -0.5485  0.1089
   7223SM   H9S 9418   5.563   4.778  12.629  0.2598 -0.2292  0.5023
   7223SM   H9T 9419   5.589   4.954  12.605  0.4797 -1.0360  2.1753
   7223SM  C10S 9420   5.443   4.878  12.476 -0.1215  0.5874 -0.2469
   7223SM  H10S 9421   5.394   4.977  12.460 -0.7610  0.4431  0.7238
   7223SM  H10T 9422   5.360   4.805  12.483 -0.0040  0.3818 -0.9253
   7223SM  C11S 9423   5.531   4.838  12.362 -0.3832  0.3197 -0.6709
   7223SM  H11S 9424   5.591   4.748  12.388 -1.1181 -0.6791 -2.2683
   7223SM  H11T 9425   5.614   4.909  12.343  0.8906 -1.2122 -1.0519
   7223SM  C12S 9426   5.457   4.821  12.230 -0.6195  0.1986  1.1154
   7223SM  H12S 9427   5.405   4.915  12.203  0.0937  0.5756  1.0322
   7223SM  H12T 9428   5.385   4.736  12.221  1.4015 -1.3623 -2.8691
   7223SM  C13S 9429   5.544   4.800  12.108  0.3585  0.0177 -0.4331
   7223SM  H13S 9430   5.593   4.701  12.121  1.5878  0.5437 -0.9271
   7223SM  H13T 9431   5.625   4.875  12.113  0.2033  0.1593  0.0573
   7223SM  C14S 9432   5.475   4.794  11.973  0.5594  0.2482 -0.0882
   7223SM  H14S 9433   5.366   4.790  11.996  0.5663 -0.5111 -0.1583
   7223SM  H14T 9434   5.509   4.704  11.918  2.7419  0.8121  0.2474
   7223SM  C15S 9435   5.514   4.905  11.881 -0.1967 -0.0222 -0.3329
   7223SM  H15S 9436   5.504   4.996  11.942 -0.9563 -1.3806  1.6710
   7223SM  H15T 9437   5.449   4.912  11.791 -0.7451 -0.1096  0.0533
   7223SM  C16S 9438   5.661   4.902  11.829 -0.1586  0.3190 -0.0948
   7223SM  H16S 9439   5.683   4.800  11.791 -0.5540 -0.6341  2.1027
   7223SM  H16T 9440   5.735   4.924  11.908 -0.2358 -2.2980  0.7689
   7223SM  C17S 9441   5.678   4.999  11.719  0.2839 -0.7688  0.0895
   7223SM  H17S 9442   5.659   5.105  11.748 -0.5523 -0.5966 -1.0206
   7223SM  H17T 9443   5.598   4.966  11.649 -0.9086  0.4879  0.8101
   7223SM  C18S 9444   5.814   4.989  11.647  0.6925  0.6516 -0.3716
   7223SM  H18S 9445   5.898   4.984  11.719 -1.3060  0.5550  2.0537
   7223SM  H18T 9446   5.832   5.083  11.590 -2.8112  0.4136 -2.1162
   7223SM  H18U 9447   5.814   4.906  11.573  1.1557  0.4169 -0.1144
   7223SM   C1F 9448   5.720   4.682  13.369  0.3264  0.7159 -0.6690
   7223SM    OF 9449   5.694   4.573  13.430 -0.2211 -0.1359  0.3885
   7223SM   C2F 9450   5.852   4.707  13.312 -1.0254  0.1650  0.2830
   7223SM   H2F 9451   5.933   4.688  13.386  0.3158 -0.4481 -1.2511
   7223SM   H2G 9452   5.875   4.814  13.295  3.9316 -0.6592  0.2633
   7223SM   C3F 9453   5.883   4.612  13.191 -0.5424 -0.2622 -0.1936
   7223SM   H3F 9454   5.869   4.505  13.219  0.1016 -0.4183 -0.4517
   7223SM   H3G 9455   5.986   4.631  13.153 -0.0278  0.4642  1.4309
   7223SM   C4F 9456   5.781   4.637  13.072 -0.0675 -0.5901 -0.5150
   7223SM   H4F 9457   5.760   4.746  13.074  1.8574 -0.1704  1.9637
   7223SM   H4G 9458   5.684   4.588  13.094 -0.5441 -0.3101 -1.9099
   7223SM   C5F 9459   5.843   4.604  12.927 -0.0114 -0.0406  0.2177
   7223SM   H5F 9460   5.812   4.507  12.882 -2.2046 -0.3441  2.1945
   7223SM   H5G 9461   5.954   4.611  12.937  0.0977 -2.1711  1.0004
   7223SM   C6F 9462   5.791   4.708  12.825  0.1857 -0.6478  0.9300
   7223SM   H6F 9463   5.761   4.807  12.865 -3.2014 -0.9301 -0.6352
   7223SM   H6G 9464   5.690   4.672  12.797  0.8405 -0.5742 -1.7884
   7223SM   C7F 9465   5.880   4.728  12.698  0.2123 -0.2620  0.2630
   7223SM   H7F 9466   5.981   4.754  12.734  1.1378 -1.2305 -1.5018
   7223SM   H7G 9467   5.831   4.809  12.640 -0.0697 -1.2271 -0.9065
   7223SM   C8F 9468   5.890   4.596  12.626 -0.6724  0.1523  0.0715
   7223SM   H8F 9469   5.795   4.544  12.650  1.2647 -3.6046  0.2893
   7223SM   H8G 9470   5.959   4.527  12.678 -1.0511 -0.3456 -0.0812
   7223SM   C9F 9471   5.912   4.603  12.482  0.0835  0.7820 -0.1686
   7223SM   H9F 9472   5.824   4.652  12.436  1.2707  2.1625 -1.0379
   7223SM   H9G 9473   5.916   4.500  12.441 -0.8060  1.2324 -1.4549
   7223SM  C10F 9474   6.039   4.692  12.453  0.2818 -0.0999  0.1819
   7223SM  H10F 9475   6.115   4.663  12.529 -0.6134  3.0564  2.5392
   7223SM  H10G 9476   6.012   4.799  12.468  1.2657  0.1559  0.1672
   7223SM  C11F 9477   6.097   4.664  12.315 -0.0307  0.0202 -0.7224
   7223SM  H11F 9478   6.153   4.569  12.328  0.3865  0.4055  0.4524
   7223SM  H11G 9479   6.154   4.751  12.277  1.3318 -0.7265 -0.4457
   7223SM  C12F 9480   5.990   4.657  12.205  0.6263  0.0195  0.3296
   7223SM  H12F 9481   5.920   4.742  12.214  1.7848  1.1264 -0.7016
   7223SM  H12G 9482   5.926   4.568  12.222 -1.3377  1.3229  0.1263
   7223SM  C13F 9483   6.045   4.645  12.061 -0.9366  0.0793  0.1135
   7223SM  H13F 9484   6.113   4.557  12.056 -1.5376 -0.5601  2.1136
   7223SM  H13G 9485   6.107   4.734  12.036 -1.2011  0.1648 -0.2412
   7223SM  C14F 9486   5.946   4.624  11.945  0.2861  0.4009  0.4976
   7223SM  H14F 9487   5.905   4.719  11.904 -0.5329 -0.1179  0.0958
   7223SM  H14G 9488   5.855   4.567  11.974  0.7249 -0.4298  0.2812
   7223SM  C15F 9489   6.019   4.555  11.827  0.8106  0.4832  0.4505
   7223SM  H15F 9490   6.068   4.462  11.863  0.4255 -0.5295 -1.5199
   7223SM  H15G 9491   6.091   4.633  11.792  1.2876  0.9040  2.2715
   7223SM  C16F 9492   5.939   4.513  11.699 -0.2601 -0.6640 -0.6914
   7223SM  H16F 9493   5.876   4.601  11.676 -0.4055 -0.7276 -0.5380
   7223SM  H16G 9494   5.870   4.431  11.728 -0.5235  0.0601  0.8301
   7223SM  C17F 9495   6.025   4.484  11.582  0.3202  0.3328 -0.0292
   7223SM  H17F 9496   6.085   4.393  11.605  2.0957  0.9996 -1.7911
   7223SM  H17G 9497   6.097   4.564  11.557 -1.1197  0.6088 -3.9018
   7223SM  C18F 9498   5.940   4.468  11.459 -0.9385  0.2685 -0.1293
   7223SM  H18F 9499   5.887   4.564  11.446 -0.3168  0.4542 -1.5362
   7223SM  H18G 9500   5.865   4.389  11.477  0.9678 -1.8239 -0.8264
   7223SM  C19F 9501   6.023   4.435  11.333  0.4354 -0.3362 -0.4400
   7223SM  H19F 9502   6.083   4.342  11.338 -1.3393 -1.5499 -1.0265
   7223SM  H19G 9503   6.097   4.516  11.313  1.2075 -1.2366 -1.2890
   7223SM  C20F 9504   5.925   4.424  11.219  0.0630  0.3477  0.0492
   7223SM  H20F 9505   5.992   4.420  11.130 -0.5071 -3.5930 -0.3717
   7223SM  H20G 9506   5.860   4.514  11.212  1.4072  1.5456  2.0694
   7223SM  C21F 9507   5.830   4.297  11.215 -0.3957 -0.4129  0.0297
   7223SM  H21F 9508   5.757   4.296  11.299 -0.3544 -0.2072  0.0700
   7223SM  H21G 9509   5.889   4.206  11.238  1.0440  0.8034  1.4765
   7223SM  C22F 9510   5.754   4.278  11.092  0.3836  0.3583 -0.0367
   7223SM  H22F 9511   5.825   4.268  11.008 -0.4893  1.9745 -1.0157
   7223SM  H22G 9512   5.702   4.374  11.071 -0.3348 -0.1882 -0.7881
   7223SM  C23F 9513   5.659   4.157  11.100  0.4755  0.1892 -0.5706
   7223SM  H23F 9514   5.570   4.172  11.164 -0.3336 -1.7948 -1.1618
   7223SM  H23G 9515   5.719   4.076  11.147  1.5677  1.3216  0.0539
   7223SM  H23H 9516   5.629   4.133  10.996  1.1871 -0.6510 -0.5970
   7323SM     N 9517   4.358   1.691  13.885 -0.8246 -0.3375 -0.7215
   7323SM   C15 9518   4.231   1.686  13.973 -0.4786  0.0607  0.0179
   7323SM  H15A 9519   4.204   1.587  14.008  0.4578 -0.6370 -1.1522
   7323SM  H15B 9520   4.154   1.716  13.903 -0.0909 -0.0412 -0.4546
   7323SM  H15C 9521   4.232   1.764  14.048 -2.6047  0.5874 -0.4201
   7323SM   C14 9522   4.475   1.656  13.973  0.0517  0.2398  0.1730
   7323SM  H14A 9523   4.477   1.715  14.063  2.0528 -0.4075  0.5898
   7323SM  H14B 9524   4.572   1.675  13.929  0.2351  0.2398  0.5784
   7323SM  H14C 9525   4.463   1.554  14.004 -0.0482  0.9232  2.5356
   7323SM   C13 9526   4.349   1.605  13.765 -0.3123  0.0062 -0.3984
   7323SM  H13A 9527   4.428   1.625  13.694 -0.3637  1.6458 -0.0390
   7323SM  H13B 9528   4.257   1.617  13.710  1.3867  1.3470 -3.2091
   7323SM  H13C 9529   4.364   1.503  13.797 -1.2306 -0.6431 -1.9408
   7323SM   C12 9530   4.376   1.836  13.836 -0.0159  0.1459 -0.2236
   7323SM  H12A 9531   4.475   1.849  13.794  1.2255  1.9425  2.8849
   7323SM  H12B 9532   4.379   1.902  13.921 -2.1056 -0.7583  0.6121
   7323SM   C11 9533   4.270   1.882  13.734  0.1090 -0.3753  0.5425
   7323SM  H11A 9534   4.269   1.809  13.650  2.1321  0.0754  0.0624
   7323SM  H11B 9535   4.298   1.978  13.685  1.8552 -1.4200 -0.6282
   7323SM     P 9536   4.101   2.029  13.862  0.0042  0.2434 -0.4154
   7323SM   O13 9537   3.957   2.024  13.886  0.3306 -0.2284  0.2172
   7323SM   O14 9538   4.178   2.046  13.989  0.5400 -0.1132 -0.3485
   7323SM   O11 9539   4.124   2.154  13.770 -0.2293  0.3531  0.0845
   7323SM   O12 9540   4.138   1.900  13.780 -0.1948  0.7802  0.6021
   7323SM   C1S 9541   4.071   2.145  13.636  0.2278  1.0941 -0.1509
   7323SM   H1S 9542   3.965   2.175  13.643 -0.0001  0.8713 -2.0739
   7323SM   H1T 9543   4.078   2.043  13.593  0.8424  0.9752  0.2064
   7323SM    NF 9544   4.092   2.222  13.399 -0.0693  0.2631 -0.3329
   7323SM   HNF 9545   4.152   2.171  13.337 -0.4887 -0.2275 -0.3362
   7323SM   C2S 9546   4.139   2.244  13.534 -0.1687  0.7395 -0.3888
   7323SM   H2S 9547   4.097   2.343  13.562 -1.8735 -0.1083  0.2108
   7323SM   C3S 9548   4.289   2.245  13.547  0.1365  0.0730 -0.1112
   7323SM   H3S 9549   4.318   2.138  13.538 -1.1600 -0.3693  0.6580
   7323SM    O3 9550   4.335   2.270  13.678 -0.0134 -0.3936 -0.0362
   7323SM   HO3 9551   4.251   2.269  13.724 -0.4704  0.1802 -0.8351
   7323SM   C4S 9552   4.376   2.329  13.452  0.0546  0.6358 -0.2467
   7323SM   H4S 9553   4.348   2.435  13.447 -0.0463  0.6448  0.4269
   7323SM   C5S 9554   4.479   2.292  13.372  0.8828 -0.2353 -0.1359
   7323SM   H5S 9555   4.506   2.185  13.374  0.7112 -0.2763 -0.0657
   7323SM   C6S 9556   4.578   2.391  13.312  0.0770  0.2214  0.6769
   7323SM   H6S 9557   4.672   2.412  13.367  0.7526 -1.1010  0.0732
   7323SM   H6T 9558   4.522   2.487  13.314 -1.3422 -0.5814  0.7429
   7323SM   C7S 9559   4.620   2.344  13.174  0.7278  0.2787  0.2727
   7323SM   H7S 9560   4.673   2.248  13.192  0.7562  0.5464  1.7906
   7323SM   H7T 9561   4.696   2.407  13.123  1.1950 -0.3929  0.1191
   7323SM   C8S 9562   4.512   2.325  13.064  0.2967 -0.0053  0.0828
   7323SM   H8S 9563   4.449   2.416  13.052  1.5533  0.9001  0.1131
   7323SM   H8T 9564   4.457   2.234  13.095 -0.3824  0.3755  0.0226
   7323SM   C9S 9565   4.582   2.294  12.928 -0.6106  0.0809 -0.3313
   7323SM   H9S 9566   4.619   2.189  12.927  0.0008  0.2860 -1.6077
   7323SM   H9T 9567   4.667   2.365  12.921 -0.2488 -0.5194 -2.7152
   7323SM  C10S 9568   4.494   2.323  12.812 -0.3626  0.1615 -0.1741
   7323SM  H10S 9569   4.456   2.427  12.805  1.5368  0.8952 -0.0146
   7323SM  H10T 9570   4.406   2.255  12.826 -0.0821 -0.1551  0.0753
   7323SM  C11S 9571   4.552   2.278  12.675  0.3874  0.0792 -0.0495
   7323SM  H11S 9572   4.583   2.173  12.695 -0.3943 -0.2570 -0.5821
   7323SM  H11T 9573   4.643   2.339  12.657 -0.5502  1.0283 -1.8531
   7323SM  C12S 9574   4.460   2.291  12.556  0.4304 -0.5406 -0.3736
   7323SM  H12S 9575   4.427   2.397  12.548 -1.2839 -1.0831 -0.7613
   7323SM  H12T 9576   4.370   2.228  12.574 -0.7472  1.0163 -0.5975
   7323SM  C13S 9577   4.539   2.257  12.430 -0.1386 -0.0788 -0.1758
   7323SM  H13S 9578   4.567   2.150  12.426 -0.0393 -0.0174 -2.6783
   7323SM  H13T 9579   4.634   2.314  12.439 -0.9442  1.4646 -0.9890
   7323SM  C14S 9580   4.462   2.281  12.299  0.4236 -0.0949  0.4945
   7323SM  H14S 9581   4.436   2.390  12.297 -0.9472 -0.3808  1.2407
   7323SM  H14T 9582   4.374   2.215  12.288  1.0995 -0.6403 -2.0602
   7323SM  C15S 9583   4.535   2.246  12.166 -0.3430 -0.0202  0.0976
   7323SM  H15S 9584   4.579   2.144  12.173  1.1159  0.1767 -3.8104
   7323SM  H15T 9585   4.617   2.317  12.140  0.3094 -1.4550 -2.0166
   7323SM  C16S 9586   4.449   2.250  12.038 -0.1781 -0.1360 -0.4465
   7323SM  H16S 9587   4.403   2.351  12.035  0.1279  0.1937  2.6203
   7323SM  H16T 9588   4.369   2.178  12.066 -0.8876 -0.0167 -2.0230
   7323SM  C17S 9589   4.530   2.204  11.914 -0.0594  0.8083  0.3096
   7323SM  H17S 9590   4.461   2.176  11.832  1.2834  1.4971 -1.1105
   7323SM  H17T 9591   4.590   2.112  11.932  0.0597  0.5829 -1.1030
   7323SM  C18S 9592   4.623   2.309  11.846  0.4250  0.1584 -0.9721
   7323SM  H18S 9593   4.711   2.341  11.906 -1.3238  4.1764 -0.2416
   7323SM  H18T 9594   4.552   2.394  11.836 -0.7251 -0.7190 -0.5044
   7323SM  H18U 9595   4.660   2.282  11.745 -1.1194 -0.5098 -1.3927
   7323SM   C1F 9596   3.969   2.261  13.365 -0.2602  0.8971  0.2368
   7323SM    OF 9597   3.931   2.366  13.405 -0.3520  0.3004 -0.2794
   7323SM   C2F 9598   3.898   2.176  13.267 -0.7319  0.1631  0.2301
   7323SM   H2F 9599   3.907   2.066  13.275 -1.0475 -0.0885 -2.0343
   7323SM   H2G 9600   3.935   2.201  13.165  0.0611 -0.0612  0.4546
   7323SM   C3F 9601   3.749   2.223  13.257 -0.1562  0.5379  0.3425
   7323SM   H3F 9602   3.744   2.317  13.199  0.2888 -0.3445 -1.1805
   7323SM   H3G 9603   3.699   2.233  13.356  1.7551  0.7811  1.3337
   7323SM   C4F 9604   3.672   2.110  13.187  0.2120  0.3308 -0.0464
   7323SM   H4F 9605   3.565   2.136  13.177  0.0796 -0.8680 -3.0747
   7323SM   H4G 9606   3.681   2.015  13.245 -2.9928  0.6864  1.2034
   7323SM   C5F 9607   3.715   2.088  13.038 -0.3186 -0.5779  0.2422
   7323SM   H5F 9608   3.679   1.989  13.004  2.1256 -1.6502  0.5917
   7323SM   H5G 9609   3.826   2.083  13.027 -0.4632 -0.8364 -1.3286
   7323SM   C6F 9610   3.660   2.194  12.944 -0.0412  0.0909  0.2741
   7323SM   H6F 9611   3.701   2.296  12.959 -2.5021  1.0224  1.0941
   7323SM   H6G 9612   3.554   2.207  12.974  0.3125  3.4275  0.4855
   7323SM   C7F 9613   3.690   2.143  12.804 -0.4700 -0.4515 -0.0897
   7323SM   H7F 9614   3.662   2.036  12.791 -1.1124 -0.4240  0.9623
   7323SM   H7G 9615   3.800   2.140  12.793 -0.4654 -0.6138 -0.0162
   7323SM   C8F 9616   3.621   2.216  12.695  0.1237  0.1826  0.0971
   7323SM   H8F 9617   3.671   2.314  12.678  1.7385 -0.0111  2.9558
   7323SM   H8G 9618   3.518   2.249  12.722  0.8958  1.0266  2.2279
   7323SM   C9F 9619   3.627   2.136  12.566 -0.3475  0.3030  0.1970
   7323SM   H9F 9620   3.552   2.054  12.578  0.3474 -0.3885 -0.0584
   7323SM   H9G 9621   3.726   2.087  12.553 -0.4938  0.3867 -1.5472
   7323SM  C10F 9622   3.587   2.219  12.441 -1.1192 -0.0265 -0.4651
   7323SM  H10F 9623   3.637   2.318  12.447 -0.4708 -0.3904  4.5833
   7323SM  H10G 9624   3.476   2.221  12.436 -1.2241 -2.0470  0.2407
   7323SM  C11F 9625   3.635   2.160  12.313 -0.1616  0.2575  0.1530
   7323SM  H11F 9626   3.585   2.062  12.301  1.8080 -1.2638  3.0929
   7323SM  H11G 9627   3.743   2.135  12.311 -0.3450 -0.5014 -1.0112
   7323SM  C12F 9628   3.595   2.250  12.192  0.0541  0.3736 -0.2392
   7323SM  H12F 9629   3.643   2.347  12.219  0.2578  0.0548  0.5768
   7323SM  H12G 9630   3.486   2.264  12.176 -0.5227 -2.7750  0.3024
   7323SM  C13F 9631   3.667   2.202  12.063  0.7246 -0.4445  0.0605
   7323SM  H13F 9632   3.643   2.096  12.040 -2.3054  0.0416  0.6503
   7323SM  H13G 9633   3.778   2.213  12.062  0.7463 -0.6525 -1.7060
   7323SM  C14F 9634   3.615   2.279  11.938 -0.0719  0.0392 -0.0388
   7323SM  H14F 9635   3.641   2.387  11.938  1.5496 -0.3241 -0.6802
   7323SM  H14G 9636   3.505   2.261  11.935  0.2902 -2.2429 -1.5004
   7323SM  C15F 9637   3.682   2.222  11.811 -0.2577 -0.3375 -0.3558
   7323SM  H15F 9638   3.672   2.111  11.821 -1.7422 -0.1185  1.0561
   7323SM  H15G 9639   3.790   2.247  11.814 -0.3637  0.7149 -2.9367
   7323SM  C16F 9640   3.617   2.260  11.685 -0.5321  0.6962  0.0169
   7323SM  H16F 9641   3.631   2.369  11.671  2.8571  0.5469  1.2766
   7323SM  H16G 9642   3.508   2.245  11.671 -0.9033  1.7242  1.5971
   7323SM  C17F 9643   3.679   2.185  11.570 -0.0577 -0.2232 -0.8460
   7323SM  H17F 9644   3.670   2.075  11.574  1.0391 -0.3732 -1.9866
   7323SM  H17G 9645   3.786   2.216  11.566 -0.0241 -0.4958 -2.6853
   7323SM  C18F 9646   3.600   2.221  11.443 -0.8379 -0.5776 -0.4117
   7323SM  H18F 9647   3.490   2.219  11.459 -0.6498 -0.2608  1.0796
   7323SM  H18G 9648   3.619   2.141  11.368 -0.1557 -1.0547  0.2599
   7323SM  C19F 9649   3.637   2.355  11.375  0.0790  0.3009 -0.1549
   7323SM  H19F 9650   3.603   2.434  11.445 -1.7281 -0.9518  0.4492
   7323SM  H19G 9651   3.574   2.368  11.284 -0.4829  0.5778  0.2712
   7323SM  C20F 9652   3.784   2.356  11.335 -0.0455  0.0153 -0.1530
   7323SM  H20F 9653   3.802   2.301  11.240 -0.2183 -0.9658  0.3623
   7323SM  H20G 9654   3.849   2.298  11.404 -1.7377 -2.0557 -0.1804
   7323SM  C21F 9655   3.851   2.495  11.322  0.5705 -0.7806 -0.0862
   7323SM  H21F 9656   3.872   2.532  11.424  0.1222 -0.8302  0.0271
   7323SM  H21G 9657   3.778   2.573  11.291  2.7570  1.8997  1.1377
   7323SM  C22F 9658   3.967   2.493  11.223  0.2682  0.1102 -0.8710
   7323SM  H22F 9659   3.929   2.477  11.120  1.5434 -2.2644 -1.0344
   7323SM  H22G 9660   4.034   2.407  11.244 -0.9753 -0.7511 -0.3654
   7323SM  C23F 9661   4.046   2.623  11.227 -0.1701 -0.3546 -0.9036
   7323SM  H23F 9662   4.138   2.607  11.167  0.8810  0.1633  0.5196
   7323SM  H23G 9663   4.090   2.636  11.328  0.8638  2.4538 -1.6199
   7323SM  H23H 9664   3.992   2.711  11.186 -0.5092 -0.9684 -1.8166
   7423SM     N 9665   0.171   6.062  14.018 -0.2957 -0.1674  0.2951
   7423SM   C15 9666   0.267   6.152  13.946 -1.4556  0.7170  0.3122
   7423SM  H15A 9667   0.371   6.121  13.946 -1.0449  1.9703 -0.7710
   7423SM  H15B 9668   0.274   6.249  13.994 -2.2286  0.9204  0.0326
   7423SM  H15C 9669   0.242   6.163  13.841  1.9873  0.7241 -0.6488
   7423SM   C14 9670   0.208   6.056  14.161  0.2331 -0.2645 -1.0175
   7423SM  H14A 9671   0.141   5.984  14.207 -1.2030  1.1299 -0.8263
   7423SM  H14B 9672   0.209   6.149  14.215  0.9232 -0.2747 -1.0101
   7423SM  H14C 9673   0.307   6.013  14.170 -0.2202 -1.3563 -1.0636
   7423SM   C13 9674   0.040   6.136  14.003  0.2618 -0.3365  0.0293
   7423SM  H13A 9675   0.055   6.237  14.037 -1.6784  0.4022 -1.1005
   7423SM  H13B 9676  -0.036   6.082  14.059 -0.8372 -0.8559 -1.8623
   7423SM  H13C 9677  -0.001   6.140  13.903  0.6456 -1.5897 -0.1988
   7423SM   C12 9678   0.173   5.924  13.961 -0.6612  0.1656  0.1742
   7423SM  H12A 9679   0.099   5.870  14.019 -1.8374 -0.0099 -1.4139
   7423SM  H12B 9680   0.263   5.870  13.985 -1.7861 -1.2971  1.3669
   7423SM   C11 9681   0.144   5.901  13.813 -0.4817  0.2945 -0.2591
   7423SM  H11A 9682   0.046   5.942  13.780  1.5289  2.8552 -3.8149
   7423SM  H11B 9683   0.133   5.792  13.792  0.8419 -0.1450  1.1933
   7423SM     P 9684   0.377   5.888  13.706 -0.1458  0.2004  0.2314
   7423SM   O13 9685   0.468   5.965  13.614 -0.1431  0.0545  0.8372
   7423SM   O14 9686   0.435   5.873  13.843  0.3944  0.0265 -0.3340
   7423SM   O11 9687   0.339   5.753  13.646  0.6208  0.6920  0.6159
   7423SM   O12 9688   0.238   5.964  13.721 -0.2192  0.0002  0.0797
   7423SM   C1S 9689   0.289   5.728  13.510 -0.1008  0.0758 -0.0427
   7423SM   H1S 9690   0.231   5.817  13.475 -0.7875 -1.0889 -2.0005
   7423SM   H1T 9691   0.223   5.639  13.516  0.7261 -0.4807  1.3878
   7423SM    NF 9692   0.370   5.731  13.274 -0.0274 -0.3461 -0.3684
   7423SM   HNF 9693   0.386   5.670  13.196  0.2265  1.4313 -1.7793
   7423SM   C2S 9694   0.402   5.706  13.410  0.2749  0.1438 -0.1683
   7423SM   H2S 9695   0.483   5.777  13.437  0.5750  0.3642 -1.6115
   7423SM   C3S 9696   0.476   5.569  13.432 -0.1527 -0.5947  0.2442
   7423SM   H3S 9697   0.392   5.498  13.413  0.2922 -1.2594  0.6939
   7423SM    O3 9698   0.501   5.529  13.569 -0.1619  0.0939 -0.0943
   7423SM   HO3 9699   0.437   5.571  13.628  0.9120 -1.4603  2.3201
   7423SM   C4S 9700   0.591   5.548  13.348 -0.1872 -0.3021  0.0041
   7423SM   H4S 9701   0.673   5.613  13.384  0.2465 -1.9681  2.2939
   7423SM   C5S 9702   0.609   5.450  13.256 -0.1799 -0.4530 -0.5013
   7423SM   H5S 9703   0.530   5.378  13.231  0.3572 -1.3003  0.1976
   7423SM   C6S 9704   0.736   5.424  13.175 -0.4567  0.3317 -0.1262
   7423SM   H6S 9705   0.709   5.350  13.096  1.1498 -2.1670  1.5180
   7423SM   H6T 9706   0.808   5.364  13.235 -3.7385 -2.2642  1.5326
   7423SM   C7S 9707   0.799   5.549  13.113 -0.0851  0.3225 -0.5291
   7423SM   H7S 9708   0.821   5.614  13.201  0.3449 -0.4463 -0.0594
   7423SM   H7T 9709   0.730   5.601  13.044  0.2777 -0.3165 -1.3835
   7423SM   C8S 9710   0.922   5.524  13.028  0.1895 -0.2385 -0.8283
   7423SM   H8S 9711   1.001   5.468  13.083 -0.3810 -2.0017 -1.7096
   7423SM   H8T 9712   0.966   5.618  12.987 -0.6817  0.4706 -0.1729
   7423SM   C9S 9713   0.890   5.445  12.902 -0.1037 -0.4346 -0.4171
   7423SM   H9S 9714   0.799   5.494  12.861  0.0985 -0.2392 -0.6342
   7423SM   H9T 9715   0.863   5.340  12.927  0.7953 -0.6921 -0.4940
   7423SM  C10S 9716   0.998   5.448  12.790 -0.4714 -0.5731 -0.8658
   7423SM  H10S 9717   1.085   5.384  12.818  0.4277  0.7816 -0.4373
   7423SM  H10T 9718   1.031   5.552  12.770 -3.0786  0.5944  0.4110
   7423SM  C11S 9719   0.933   5.407  12.660 -0.4851  0.5670 -0.4127
   7423SM  H11S 9720   0.839   5.465  12.649  1.4398  3.4672 -4.3382
   7423SM  H11T 9721   0.909   5.299  12.662  4.5135 -0.7868 -0.6651
   7423SM  C12S 9722   1.027   5.423  12.538  0.0230  0.2714 -0.2907
   7423SM  H12S 9723   1.107   5.356  12.576 -0.3175 -0.0164 -0.0700
   7423SM  H12T 9724   1.075   5.524  12.536  0.3297  0.1282 -2.7578
   7423SM  C13S 9725   0.957   5.380  12.411  0.3625  0.5508  0.6023
   7423SM  H13S 9726   0.874   5.453  12.400 -0.7215 -0.9400 -1.8054
   7423SM  H13T 9727   0.919   5.276  12.414 -1.6101  0.8548 -4.6863
   7423SM  C14S 9728   1.040   5.399  12.286  0.1281 -0.0619  0.0241
   7423SM  H14S 9729   1.128   5.331  12.294 -0.4738 -0.7397  1.1754
   7423SM  H14T 9730   1.081   5.502  12.290  1.5179 -0.5799 -0.2268
   7423SM  C15S 9731   0.963   5.382  12.156 -0.2649  0.3747 -0.8070
   7423SM  H15S 9732   0.888   5.464  12.147  0.1347  1.0186  1.1600
   7423SM  H15T 9733   0.918   5.280  12.151 -1.3238  0.8431 -1.1594
   7423SM  C16S 9734   1.053   5.404  12.040  0.2570  0.6092 -0.0786
   7423SM  H16S 9735   1.141   5.336  12.043  1.9958  2.7127 -0.0238
   7423SM  H16T 9736   1.096   5.506  12.052  0.5011  0.8825 -2.7064
   7423SM  C17S 9737   0.979   5.409  11.910 -0.4292  0.4895  0.2511
   7423SM  H17S 9738   0.896   5.484  11.908 -1.0058 -0.1300  0.4981
   7423SM  H17T 9739   0.931   5.309  11.895 -0.1154  0.3789 -0.0249
   7423SM  C18S 9740   1.074   5.427  11.797  0.7946  0.3585  0.0072
   7423SM  H18S 9741   1.141   5.514  11.813  0.7555  0.1076  1.7377
   7423SM  H18T 9742   1.019   5.442  11.701 -1.8490  0.0877  1.3836
   7423SM  H18U 9743   1.137   5.335  11.795  1.0976  0.4256  2.7143
   7423SM   C1F 9744   0.322   5.849  13.232 -0.8013 -0.4069  0.2776
   7423SM    OF 9745   0.342   5.959  13.295  0.7384 -0.3824 -0.2633
   7423SM   C2F 9746   0.244   5.844  13.101 -0.0481 -0.3839 -0.4155
   7423SM   H2F 9747   0.152   5.901  13.127  1.2685  1.8823 -0.4812
   7423SM   H2G 9748   0.210   5.739  13.091  0.1193 -0.6259  1.2919
   7423SM   C3F 9749   0.329   5.906  12.985  0.2540  0.2549  0.0102
   7423SM   H3F 9750   0.425   5.854  12.966 -0.5023 -0.6381 -1.5673
   7423SM   H3G 9751   0.368   6.006  13.012  0.0981  0.0077  1.1908
   7423SM   C4F 9752   0.247   5.925  12.857 -0.2555  0.1403  0.4947
   7423SM   H4F 9753   0.176   6.009  12.872 -2.5077 -1.5668  0.0560
   7423SM   H4G 9754   0.175   5.844  12.832 -1.9872  2.2204 -1.7343
   7423SM   C5F 9755   0.340   5.942  12.732 -0.6006  0.0267 -0.4202
   7423SM   H5F 9756   0.411   5.857  12.725 -0.1154  0.5341 -2.2144
   7423SM   H5G 9757   0.407   6.025  12.761 -0.7593 -0.1354  0.4443
   7423SM   C6F 9758   0.265   5.954  12.606 -0.0338  0.1216  0.2039
   7423SM   H6F 9759   0.210   6.050  12.616 -2.0447 -1.0893  1.4532
   7423SM   H6G 9760   0.188   5.874  12.603  0.4888 -0.3502 -1.6921
   7423SM   C7F 9761   0.351   5.948  12.476  0.4005 -0.5677  0.0788
   7423SM   H7F 9762   0.384   5.842  12.474 -2.6545 -1.6985  2.2226
   7423SM   H7G 9763   0.435   6.022  12.477  0.0855 -0.1992  1.8183
   7423SM   C8F 9764   0.267   5.981  12.348 -0.0197 -0.2307 -0.6754
   7423SM   H8F 9765   0.218   6.081  12.350  1.0259  0.2852 -0.3371
   7423SM   H8G 9766   0.190   5.901  12.351 -0.4678  0.1710  2.4791
   7423SM   C9F 9767   0.344   5.971  12.217 -0.4629  0.0963  0.2341
   7423SM   H9F 9768   0.392   5.871  12.224  0.0504  0.4355  1.8520
   7423SM   H9G 9769   0.422   6.050  12.224 -0.7943  0.4463  0.0200
   7423SM  C10F 9770   0.252   5.987  12.096  0.1041  0.0535  0.2677
   7423SM  H10F 9771   0.233   6.090  12.060  2.1920 -0.5984 -3.2347
   7423SM  H10G 9772   0.153   5.940  12.115 -0.9931  1.9954 -0.3581
   7423SM  C11F 9773   0.307   5.905  11.975  0.1493  0.3688  0.7146
   7423SM  H11F 9774   0.241   5.917  11.887  0.0731 -1.9331  0.3961
   7423SM  H11G 9775   0.291   5.799  12.005 -2.2908 -0.0075 -1.5643
   7423SM  C12F 9776   0.456   5.952  11.937  0.1189  0.0767  0.5845
   7423SM  H12F 9777   0.523   5.876  11.981  0.9388 -0.1139 -0.9241
   7423SM  H12G 9778   0.485   6.044  11.991  1.7751 -0.0321 -0.0585
   7423SM  C13F 9779   0.486   5.965  11.786 -0.7228 -0.3964  0.3792
   7423SM  H13F 9780   0.591   5.995  11.763 -0.8431 -0.0243  0.3176
   7423SM  H13G 9781   0.416   6.038  11.740 -0.0575 -0.6279 -1.0778
   7423SM  C14F 9782   0.468   5.828  11.716 -0.1527 -0.0589  0.3559
   7423SM  H14F 9783   0.363   5.795  11.727 -0.2711 -0.3335 -1.3322
   7423SM  H14G 9784   0.537   5.757  11.766  1.2111 -0.1084 -1.4559
   7423SM  C15F 9785   0.506   5.825  11.566  0.6174  0.0746  0.6295
   7423SM  H15F 9786   0.613   5.844  11.546  0.0197  1.2682 -1.8671
   7423SM  H15G 9787   0.464   5.921  11.528 -0.9281 -1.2201 -1.1168
   7423SM  C16F 9788   0.458   5.710  11.481  0.0519 -0.3769  0.2808
   7423SM  H16F 9789   0.502   5.620  11.530  1.9715 -0.3065 -1.1710
   7423SM  H16G 9790   0.516   5.709  11.386 -2.0294 -1.8676 -1.0812
   7423SM  C17F 9791   0.309   5.698  11.451 -0.1666  0.0607 -0.1477
   7423SM  H17F 9792   0.252   5.681  11.545 -0.4721  0.7081 -0.2037
   7423SM  H17G 9793   0.295   5.597  11.406 -0.4166  0.3828 -0.8202
   7423SM  C18F 9794   0.252   5.813  11.358  0.5397 -0.2850  0.0549
   7423SM  H18F 9795   0.318   5.807  11.269  1.0499 -0.5974  0.4489
   7423SM  H18G 9796   0.260   5.908  11.415 -2.7348  0.0497  0.1468
   7423SM  C19F 9797   0.104   5.801  11.315 -0.3473 -0.6593  0.4438
   7423SM  H19F 9798   0.102   5.744  11.220 -1.2152  0.6677 -0.3782
   7423SM  H19G 9799   0.068   5.904  11.291  1.9047  0.4328  1.4215
   7423SM  C20F 9800   0.006   5.739  11.416 -0.4340  0.6998  0.1006
   7423SM  H20F 9801  -0.024   5.820  11.486 -0.9218 -0.1309  0.8770
   7423SM  H20G 9802   0.048   5.649  11.466 -2.5378  0.1340  0.9501
   7423SM  C21F 9803  -0.125   5.700  11.336  0.9174  0.8087  0.0457
   7423SM  H21F 9804  -0.161   5.778  11.266 -2.0680 -1.5272 -1.2801
   7423SM  H21G 9805  -0.198   5.676  11.416  2.7570 -0.9822  1.2861
   7423SM  C22F 9806  -0.106   5.575  11.252 -0.4934 -0.4377 -0.4829
   7423SM  H22F 9807  -0.047   5.600  11.162  1.9329 -1.4130  0.7520
   7423SM  H22G 9808  -0.205   5.540  11.213 -1.6760  0.8851  1.1686
   7423SM  C23F 9809  -0.045   5.458  11.317 -0.4226 -0.5523  0.8601
   7423SM  H23F 9810  -0.078   5.444  11.422  1.1925  0.6810  1.5732
   7423SM  H23G 9811   0.064   5.481  11.324 -0.6804  1.6070 -0.9772
   7423SM  H23H 9812  -0.064   5.372  11.250  0.4540  0.8078 -1.2336
   7523SM     N 9813   5.560   0.693  13.839  0.3102  0.1056 -0.3541
   7523SM   C15 9814   5.560   0.627  13.972  0.9447  0.3139  0.8218
   7523SM  H15A 9815   5.663   0.597  13.989  1.8923  1.1346 -2.5453
   7523SM  H15B 9816   5.510   0.531  13.969  1.5215  0.0176 -1.2447
   7523SM  H15C 9817   5.524   0.700  14.042 -1.3803 -0.1969  0.2405
   7523SM   C14 9818   5.425   0.759  13.835  0.1152  0.0407  0.3402
   7523SM  H14A 9819   5.395   0.789  13.935 -0.8113  0.7244 -0.1205
   7523SM  H14B 9820   5.353   0.685  13.804 -0.5348 -0.4073  2.6833
   7523SM  H14C 9821   5.427   0.850  13.777  0.1322 -0.4263 -0.3981
   7523SM   C13 9822   5.654   0.812  13.841  0.8456 -0.4024 -0.2802
   7523SM  H13A 9823   5.757   0.778  13.838  1.8713  2.3125  0.8172
   7523SM  H13B 9824   5.635   0.868  13.932  0.4068 -0.5374 -0.2854
   7523SM  H13C 9825   5.632   0.887  13.766  0.9844  1.3572  1.3602
   7523SM   C12 9826   5.576   0.599  13.724  0.2709  1.0624 -0.5224
   7523SM  H12A 9827   5.555   0.649  13.631  1.2579  0.8706 -0.8573
   7523SM  H12B 9828   5.494   0.528  13.728 -0.0021  1.2858 -1.8291
   7523SM   C11 9829   5.708   0.516  13.718 -0.1028  0.2160  0.0310
   7523SM  H11A 9830   5.695   0.435  13.643 -0.0080 -1.3251  1.6094
   7523SM  H11B 9831   5.719   0.454  13.810 -0.3678  1.0909  0.6675
   7523SM     P 9832   5.948   0.551  13.599  0.3413 -0.0156  0.0898
   7523SM   O13 9833   6.016   0.671  13.544 -0.6863 -0.1369 -0.0333
   7523SM   O14 9834   6.033   0.448  13.666  0.2807  0.2666 -0.0025
   7523SM   O11 9835   5.869   0.478  13.478  0.5814 -0.1027  0.4195
   7523SM   O12 9836   5.827   0.598  13.694  0.4140 -0.2660 -0.0086
   7523SM   C1S 9837   5.789   0.564  13.392 -0.2447  0.5604  0.2461
   7523SM   H1S 9838   5.771   0.662  13.441 -0.2568  0.2756  0.8187
   7523SM   H1T 9839   5.685   0.527  13.385  0.2622 -1.5658  2.4893
   7523SM    NF 9840   5.760   0.654  13.165 -0.0159 -0.7594 -0.1060
   7523SM   HNF 9841   5.714   0.605  13.091 -2.7660 -0.9532  1.6056
   7523SM   C2S 9842   5.848   0.572  13.247  0.1012  0.4648  0.0973
   7523SM   H2S 9843   5.951   0.614  13.247  0.0666  0.5835 -1.3542
   7523SM   C3S 9844   5.869   0.431  13.196 -0.9742  0.3319  0.3554
   7523SM   H3S 9845   5.767   0.388  13.201 -0.5875 -0.4554  2.2238
   7523SM    O3 9846   5.961   0.353  13.275  0.0278 -0.2143  0.3089
   7523SM   HO3 9847   5.956   0.391  13.363 -2.5256 -1.2316  0.7092
   7523SM   C4S 9848   5.917   0.434  13.043 -0.5504  0.1545 -0.9897
   7523SM   H4S 9849   5.828   0.444  12.978 -1.1492 -1.8585 -0.5612
   7523SM   C5S 9850   6.040   0.421  12.982  0.5558  0.7214 -0.2870
   7523SM   H5S 9851   6.130   0.408  13.044  2.3210 -1.6016 -3.0024
   7523SM   C6S 9852   6.063   0.425  12.838 -0.0790 -0.1603  0.3479
   7523SM   H6S 9853   6.103   0.327  12.805 -0.3549  0.2237 -1.2103
   7523SM   H6T 9854   6.144   0.499  12.822 -1.2817  1.1299  0.0075
   7523SM   C7S 9855   5.949   0.469  12.734  0.5830  0.6497  0.0452
   7523SM   H7S 9856   5.898   0.561  12.770 -0.3029  0.4587 -0.6835
   7523SM   H7T 9857   5.870   0.391  12.739  1.6279 -0.4828 -0.2902
   7523SM   C8S 9858   5.979   0.468  12.583 -0.2330 -1.0074  0.3207
   7523SM   H8S 9859   6.027   0.371  12.557  1.7703 -0.7598  2.6989
   7523SM   H8T 9860   6.050   0.548  12.551  1.4743 -2.4334  0.3875
   7523SM   C9S 9861   5.849   0.468  12.507  0.2783  0.1254 -0.1616
   7523SM   H9S 9862   5.803   0.569  12.508 -1.3795 -0.5655 -1.7047
   7523SM   H9T 9863   5.777   0.396  12.551  0.2733  0.2586  0.0511
   7523SM  C10S 9864   5.855   0.416  12.364 -0.7292  0.1466 -0.0111
   7523SM  H10S 9865   5.881   0.308  12.369 -2.1696 -0.1781  1.0649
   7523SM  H10T 9866   5.931   0.477  12.310 -0.8947  0.5868  0.2447
   7523SM  C11S 9867   5.730   0.436  12.278 -0.1428  0.1942 -0.0435
   7523SM  H11S 9868   5.691   0.540  12.278 -0.4975  0.0642 -0.6641
   7523SM  H11T 9869   5.659   0.362  12.321  2.6952 -2.3032  0.6748
   7523SM  C12S 9870   5.746   0.409  12.124 -0.1899 -0.4482 -0.6426
   7523SM  H12S 9871   5.784   0.305  12.112  0.4619 -0.1279 -1.4582
   7523SM  H12T 9872   5.825   0.482  12.096  0.1446  0.2563  1.8834
   7523SM  C13S 9873   5.615   0.453  12.044  0.4204 -0.0113 -0.2730
   7523SM  H13S 9874   5.593   0.559  12.069  1.6692  0.2578 -0.2633
   7523SM  H13T 9875   5.523   0.400  12.077  1.2400 -1.4394 -0.2080
   7523SM  C14S 9876   5.643   0.448  11.890 -0.2062  0.2152 -0.5455
   7523SM  H14S 9877   5.618   0.344  11.860 -2.0286  0.2890  0.5281
   7523SM  H14T 9878   5.747   0.479  11.866  0.8463 -2.0665  0.7441
   7523SM  C15S 9879   5.542   0.528  11.815  0.3282 -0.3255  0.4004
   7523SM  H15S 9880   5.550   0.618  11.879 -1.7141 -1.0382  1.7467
   7523SM  H15T 9881   5.443   0.478  11.820 -0.4694  1.0992 -0.7583
   7523SM  C16S 9882   5.576   0.566  11.670  0.2930  0.7909 -0.1957
   7523SM  H16S 9883   5.567   0.473  11.610  1.4211 -1.0182  2.2677
   7523SM  H16T 9884   5.676   0.615  11.669 -0.3517  2.1466 -0.8095
   7523SM  C17S 9885   5.474   0.665  11.608 -0.1879  0.3229 -0.6666
   7523SM  H17S 9886   5.371   0.626  11.624  0.4488 -1.3294 -0.3196
   7523SM  H17T 9887   5.485   0.665  11.498 -0.0111  1.9391 -0.6731
   7523SM  C18S 9888   5.478   0.811  11.649  0.0942 -0.4161  0.6238
   7523SM  H18S 9889   5.483   0.821  11.760 -0.7663  0.7569  0.5745
   7523SM  H18T 9890   5.387   0.859  11.608  0.5799 -1.3121 -1.6341
   7523SM  H18U 9891   5.564   0.858  11.597  0.2724  1.3355  2.3652
   7523SM   C1F 9892   5.731   0.781  13.188  0.8612 -0.0284  0.5856
   7523SM    OF 9893   5.809   0.841  13.258  0.5635 -0.2250  0.9169
   7523SM   C2F 9894   5.616   0.849  13.114 -0.6010 -0.3586  0.2371
   7523SM   H2F 9895   5.534   0.843  13.189  0.9489  0.5576  2.0760
   7523SM   H2G 9896   5.599   0.799  13.016  2.5020 -0.2806 -0.4523
   7523SM   C3F 9897   5.655   0.997  13.082 -0.6888  0.0261 -0.1950
   7523SM   H3F 9898   5.746   1.014  13.020 -0.9516  1.6765 -0.1624
   7523SM   H3G 9899   5.680   1.038  13.182 -0.3341  0.4735 -0.4629
   7523SM   C4F 9900   5.549   1.082  13.020 -0.4976  0.6267 -0.0497
   7523SM   H4F 9901   5.457   1.077  13.082 -0.1905  0.6993  0.4163
   7523SM   H4G 9902   5.524   1.039  12.921  0.8986  0.5095 -0.3713
   7523SM   C5F 9903   5.589   1.230  12.987  0.2752  0.2830 -0.8288
   7523SM   H5F 9904   5.617   1.276  13.085 -0.6344 -0.5647 -0.1502
   7523SM   H5G 9905   5.498   1.282  12.950  0.0432 -1.1742 -2.4112
   7523SM   C6F 9906   5.707   1.257  12.886  0.5004  0.3483  0.6578
   7523SM   H6F 9907   5.797   1.210  12.934  0.5732  0.0162  0.2044
   7523SM   H6G 9908   5.721   1.367  12.889 -0.4114  0.4548  1.6820
   7523SM   C7F 9909   5.677   1.208  12.741 -0.2936  0.0978  0.2091
   7523SM   H7F 9910   5.567   1.219  12.726 -0.0231  0.7071 -1.6535
   7523SM   H7G 9911   5.689   1.098  12.731 -0.7336  0.0556  0.1125
   7523SM   C8F 9912   5.759   1.300  12.647 -0.0422  0.5531  0.3469
   7523SM   H8F 9913   5.868   1.278  12.656  0.2547  1.9295  0.3059
   7523SM   H8G 9914   5.742   1.408  12.666 -1.4177  0.6211 -1.0840
   7523SM   C9F 9915   5.715   1.273  12.504 -0.0952  0.1140 -0.2591
   7523SM   H9F 9916   5.611   1.311  12.492  0.3348  1.2543 -0.4949
   7523SM   H9G 9917   5.702   1.163  12.488  0.9025  0.1154 -1.1679
   7523SM  C10F 9918   5.807   1.342  12.407  1.2351  0.2598  0.4172
   7523SM  H10F 9919   5.913   1.309  12.412  1.5067  0.6305 -1.8409
   7523SM  H10G 9920   5.815   1.449  12.438 -0.8707  0.9958 -1.2977
   7523SM  C11F 9921   5.760   1.328  12.255  1.2487 -0.3002 -0.9596
   7523SM  H11F 9922   5.677   1.401  12.241  2.4199  0.9985 -1.2757
   7523SM  H11G 9923   5.726   1.225  12.229  2.3016 -0.9085 -0.0168
   7523SM  C12F 9924   5.877   1.369  12.161  0.1613 -0.0009  0.4391
   7523SM  H12F 9925   5.966   1.304  12.179  0.1233 -0.5241 -1.1680
   7523SM  H12G 9926   5.914   1.472  12.183  0.0149 -0.2948  2.1857
   7523SM  C13F 9927   5.831   1.373  12.013 -0.1486 -0.2069 -0.4914
   7523SM  H13F 9928   5.730   1.420  12.012 -0.2289 -0.3454 -1.9951
   7523SM  H13G 9929   5.805   1.272  11.975  1.6487 -0.1871 -1.9283
   7523SM  C14F 9930   5.929   1.442  11.928 -0.2763 -0.2658  0.3978
   7523SM  H14F 9931   6.017   1.384  11.894 -1.7380 -0.8382 -2.8483
   7523SM  H14G 9932   5.979   1.527  11.977  0.5358 -1.4691  1.7144
   7523SM  C15F 9933   5.862   1.502  11.804  0.6941  0.1194  0.0318
   7523SM  H15F 9934   5.784   1.574  11.835 -1.9136 -0.7090 -3.7395
   7523SM  H15G 9935   5.807   1.416  11.759 -0.6860  1.6159 -1.2611
   7523SM  C16F 9936   5.953   1.563  11.699 -0.3592  0.0402 -0.8542
   7523SM  H16F 9937   6.021   1.481  11.667  0.0118 -0.1345  0.3477
   7523SM  H16G 9938   6.024   1.637  11.742  0.7970 -0.8742 -1.1494
   7523SM  C17F 9939   5.880   1.623  11.573 -0.3864  0.5899  0.6307
   7523SM  H17F 9940   5.816   1.706  11.608 -2.8459 -1.4655  1.2781
   7523SM  H17G 9941   5.802   1.555  11.533 -0.7986  1.2338  0.3224
   7523SM  C18F 9942   5.968   1.676  11.466 -0.7165 -0.9761 -0.1162
   7523SM  H18F 9943   6.049   1.602  11.448 -0.1010 -0.6282  1.0713
   7523SM  H18G 9944   6.021   1.768  11.499  0.3215 -2.1196  1.5853
   7523SM  C19F 9945   5.893   1.697  11.332 -0.6327  0.1242 -0.1377
   7523SM  H19F 9946   5.832   1.788  11.343 -0.7706 -0.1959  2.3663
   7523SM  H19G 9947   5.823   1.611  11.321 -0.7190  0.4072 -2.2423
   7523SM  C20F 9948   5.985   1.702  11.211  0.3122  0.0179 -0.6187
   7523SM  H20F 9949   5.921   1.717  11.121 -1.2237 -1.3616  0.1772
   7523SM  H20G 9950   6.038   1.606  11.194  1.0368  0.0239  1.3847
   7523SM  C21F 9951   6.079   1.828  11.208  0.0018  0.5666 -0.5344
   7523SM  H21F 9952   6.121   1.855  11.108  0.6164 -0.8998 -0.6903
   7523SM  H21G 9953   6.166   1.808  11.274 -0.5028  2.0272  0.6393
   7523SM  C22F 9954   6.000   1.947  11.266 -1.5227 -0.5105  0.4233
   7523SM  H22F 9955   5.991   1.938  11.376 -0.1110  1.9822  0.8287
   7523SM  H22G 9956   5.897   1.953  11.224 -2.1145 -3.6241  1.2376
   7523SM  C23F 9957   6.076   2.082  11.239 -0.2399  0.1248 -0.5459
   7523SM  H23F 9958   6.020   2.163  11.289  0.4673  0.5274 -0.3851
   7523SM  H23G 9959   6.073   2.103  11.130  0.6337  0.9611 -0.4190
   7523SM  H23H 9960   6.182   2.080  11.274  0.8318 -2.3491 -3.4304
   7623SM     N 9961   0.059   1.245  13.700  0.2379  0.3719  0.4619
   7623SM   C15 9962  -0.020   1.360  13.751  0.6522  0.0854 -0.2368
   7623SM  H15A 9963  -0.114   1.327  13.792  0.4650  0.6694 -0.1854
   7623SM  H15B 9964  -0.027   1.425  13.665  3.7598  3.3497  1.6534
   7623SM  H15C 9965   0.038   1.418  13.822  1.1675 -0.5828 -0.0949
   7623SM   C14 9966   0.190   1.302  13.656  0.4907  0.4240  0.1971
   7623SM  H14A 9967   0.236   1.357  13.737 -0.2858  1.8632 -0.3087
   7623SM  H14B 9968   0.161   1.370  13.577 -1.8769  0.6428  1.1854
   7623SM  H14C 9969   0.252   1.223  13.617  0.5549  1.9647 -3.2339
   7623SM   C13 9970   0.072   1.138  13.803 -0.3098  0.0341 -0.1308
   7623SM  H13A 9971  -0.022   1.088  13.825  0.4022 -0.2683  2.5600
   7623SM  H13B 9972   0.104   1.177  13.899  3.5459  0.9283 -1.6081
   7623SM  H13C 9973   0.137   1.063  13.762  0.0480  0.5376 -0.4923
   7623SM   C12 9974   0.005   1.180  13.574  0.0525 -0.1543  0.3597
   7623SM  H12A 9975   0.066   1.094  13.552  1.0344 -0.0438  2.3656
   7623SM  H12B 9976   0.029   1.249  13.494 -0.4482 -0.4041 -0.0125
   7623SM   C11 9977  -0.139   1.133  13.565  0.6020  0.6898 -0.6997
   7623SM  H11A 9978  -0.153   1.101  13.459 -0.8235  1.0160 -0.6326
   7623SM  H11B 9979  -0.209   1.218  13.582  2.2364  2.2396 -1.3804
   7623SM     P 9980  -0.159   0.873  13.608  0.0188 -0.1407  0.4672
   7623SM   O13 9981  -0.113   0.794  13.721 -0.5923  0.2367 -0.3956
   7623SM   O14 9982  -0.291   0.839  13.546 -0.2866  0.5973 -0.1834
   7623SM   O11 9983  -0.047   0.871  13.493  0.2101  0.6355 -0.0279
   7623SM   O12 9984  -0.159   1.023  13.653 -0.2744 -0.0427  0.8647
   7623SM   C1S 9985  -0.101   0.863  13.355  0.2156  1.0132  0.0379
   7623SM   H1S 9986  -0.178   0.940  13.335  1.1211  1.5450 -1.5596
   7623SM   H1T 9987  -0.152   0.769  13.327  1.8251  0.0855  0.0956
   7623SM    NF 9988  -0.032   0.908  13.124  0.3403  1.3383  0.0389
   7623SM   HNF 9989  -0.035   0.828  13.065 -2.0404  0.1629  1.5763
   7623SM   C2S 9990   0.020   0.888  13.258  0.6099  0.1702  0.1737
   7623SM   H2S 9991   0.073   0.981  13.288  0.9409  0.0432 -0.0114
   7623SM   C3S 9992   0.118   0.774  13.281 -0.6240 -0.2913 -0.0893
   7623SM   H3S 9993   0.075   0.672  13.276  0.2427 -1.0270  4.0960
   7623SM    O3 9994   0.182   0.779  13.411 -0.0660 -0.1642  0.9513
   7623SM   HO3 9995   0.110   0.814  13.463 -1.0366 -1.3959  0.4858
   7623SM   C4S 9996   0.229   0.769  13.175 -0.1934 -0.7835  0.2301
   7623SM   H4S 9997   0.290   0.858  13.154  1.8115 -2.0564  0.4171
   7623SM   C5S 9998   0.268   0.660  13.109 -0.2572  0.1931  0.3044
   7623SM   H5S 9999   0.222   0.561  13.122 -0.9254  0.2963 -1.0413
   7623SM   C6S10000   0.371   0.662  13.001 -0.1125 -0.0652  0.9002
   7623SM   H6S10001   0.446   0.585  13.028 -1.3604 -1.7111 -0.1001
   7623SM   H6T10002   0.415   0.763  12.988 -0.3458  0.1746  1.9218
   7623SM   C7S10003   0.307   0.630  12.861 -0.4199 -0.2775  0.3953
   7623SM   H7S10004   0.227   0.705  12.843  1.7563  1.5429 -2.7719
   7623SM   H7T10005   0.248   0.537  12.878  0.0585  0.0073  4.6498
   7623SM   C8S10006   0.421   0.617  12.752  0.1333 -0.3760 -0.3082
   7623SM   H8S10007   0.493   0.534  12.771  0.9117  0.0608 -1.2545
   7623SM   H8T10008   0.482   0.710  12.754  0.0733 -0.3069  2.2760
   7623SM   C9S10009   0.347   0.614  12.613 -0.4771  0.7038  0.5083
   7623SM   H9S10010   0.263   0.688  12.616 -1.8611 -0.7005 -1.1838
   7623SM   H9T10011   0.316   0.512  12.582  2.6489 -0.3422  0.4612
   7623SM  C10S10012   0.443   0.660  12.502 -0.2154  0.2458 -0.1570
   7623SM  H10S10013   0.532   0.598  12.530 -2.4995 -2.2048  2.2607
   7623SM  H10T10014   0.474   0.767  12.504  2.3537 -0.4302  0.3414
   7623SM  C11S10015   0.401   0.628  12.361 -0.1059 -0.0095 -0.1172
   7623SM  H11S10016   0.311   0.688  12.335  0.0795 -0.3083 -1.5474
   7623SM  H11T10017   0.357   0.526  12.356 -0.1621  0.0384 -0.6589
   7623SM  C12S10018   0.506   0.641  12.262  0.5115  0.3708  0.4449
   7623SM  H12S10019   0.591   0.580  12.300 -1.3183 -2.1402  0.7174
   7623SM  H12T10020   0.537   0.747  12.249  2.5434 -0.1193  0.8960
   7623SM  C13S10021   0.477   0.604  12.117 -0.1891 -0.6127  0.2725
   7623SM  H13S10022   0.393   0.668  12.084 -0.6485 -0.3821  1.8141
   7623SM  H13T10023   0.454   0.496  12.107  0.2885 -0.8042  1.0627
   7623SM  C14S10024   0.599   0.640  12.029  0.2663  0.2275 -0.1862
   7623SM  H14S10025   0.691   0.582  12.054  0.9759  1.1255 -0.6234
   7623SM  H14T10026   0.634   0.740  12.062 -1.6630  0.7851  0.2687
   7623SM  C15S10027   0.548   0.634  11.882  0.1818 -0.0222 -0.8596
   7623SM  H15S10028   0.455   0.692  11.871 -0.0765  0.4823  2.6731
   7623SM  H15T10029   0.510   0.531  11.865 -0.6346  0.2909 -0.9763
   7623SM  C16S10030   0.658   0.669  11.781  0.5502  0.3540 -0.2044
   7623SM  H16S10031   0.624   0.634  11.681 -2.7606 -3.6282  1.9999
   7623SM  H16T10032   0.750   0.608  11.789 -0.8819 -1.8714  0.2690
   7623SM  C17S10033   0.684   0.815  11.790 -0.0939 -0.2847 -0.8187
   7623SM  H17S10034   0.700   0.844  11.896  0.7755  1.3047 -1.3437
   7623SM  H17T10035   0.597   0.879  11.763  0.2099  0.9568  0.9444
   7623SM  C18S10036   0.803   0.857  11.700  0.3200 -0.2746 -0.1858
   7623SM  H18S10037   0.833   0.962  11.722  0.4546 -0.6377  1.5066
   7623SM  H18T10038   0.775   0.841  11.594  1.1660 -0.3482 -0.4053
   7623SM  H18U10039   0.880   0.779  11.722  0.7588 -0.3725 -1.9250
   7623SM   C1F10040  -0.088   1.020  13.085  0.5103  0.2283 -0.0292
   7623SM    OF10041  -0.110   1.110  13.159  0.2522  0.4706 -0.2393
   7623SM   C2F10042  -0.133   1.028  12.934  0.1290 -0.1539 -0.1235
   7623SM   H2F10043  -0.177   0.929  12.909  0.5920 -0.6797  1.0402
   7623SM   H2G10044  -0.046   1.038  12.866 -0.7525  1.0341 -1.1234
   7623SM   C3F10045  -0.229   1.143  12.894  0.2087 -0.0883 -0.5760
   7623SM   H3F10046  -0.173   1.238  12.906  0.6325 -0.4626  0.5369
   7623SM   H3G10047  -0.312   1.149  12.967 -0.1582  3.1951 -1.1034
   7623SM   C4F10048  -0.285   1.130  12.752  0.5236  0.9111 -0.0994
   7623SM   H4F10049  -0.331   1.225  12.717  1.3754  0.3737 -2.9079
   7623SM   H4G10050  -0.351   1.042  12.767  2.4083 -0.5771 -0.1606
   7623SM   C5F10051  -0.187   1.093  12.647  0.3299 -0.1039  0.0642
   7623SM   H5F10052  -0.134   0.995  12.654  0.8519  0.0508 -1.2982
   7623SM   H5G10053  -0.107   1.169  12.661  0.9644 -0.8250  0.4993
   7623SM   C6F10054  -0.253   1.107  12.512  0.1216  0.1270  0.1574
   7623SM   H6F10055  -0.321   1.195  12.513 -1.5925 -1.1561  0.9852
   7623SM   H6G10056  -0.322   1.021  12.505  1.3727 -0.9218  0.1594
   7623SM   C7F10057  -0.156   1.109  12.390  0.1942 -0.1132  0.0223
   7623SM   H7F10058  -0.113   1.007  12.381  1.6704  0.6193 -2.1493
   7623SM   H7G10059  -0.081   1.188  12.412 -0.6036  0.2097  1.7666
   7623SM   C8F10060  -0.217   1.147  12.256  0.5557 -0.1361 -0.5214
   7623SM   H8F10061  -0.140   1.149  12.176  2.1030  1.4520  0.9186
   7623SM   H8G10062  -0.256   1.251  12.246  0.8406  0.1420  1.0630
   7623SM   C9F10063  -0.341   1.063  12.214  0.3866  0.3862 -0.7994
   7623SM   H9F10064  -0.417   1.083  12.293  1.4352 -0.6444  0.5204
   7623SM   H9G10065  -0.320   0.954  12.225 -2.1602 -0.3326 -2.3093
   7623SM  C10F10066  -0.389   1.082  12.072 -0.3398 -0.7106  0.4835
   7623SM  H10F10067  -0.324   1.011  12.017 -1.0500 -1.3102  0.4022
   7623SM  H10G10068  -0.380   1.183  12.028 -2.3984 -1.0675 -0.9064
   7623SM  C11F10069  -0.534   1.043  12.047 -0.8318 -0.6396  0.4957
   7623SM  H11F10070  -0.605   1.111  12.099 -0.4448  0.1360  0.0149
   7623SM  H11G10071  -0.550   0.942  12.091  2.0093 -0.8323  1.3050
   7623SM  C12F10072  -0.574   1.043  11.900 -0.6681 -0.1053  0.6975
   7623SM  H12F10073  -0.515   1.128  11.860  0.5724 -0.8142  0.9843
   7623SM  H12G10074  -0.681   1.072  11.890 -0.6747 -0.0582  0.9171
   7623SM  C13F10075  -0.541   0.914  11.818  0.5938 -0.3576 -0.5697
   7623SM  H13F10076  -0.595   0.831  11.868 -0.9067 -0.1636 -1.7558
   7623SM  H13G10077  -0.433   0.890  11.826  0.7014  0.5516  1.0658
   7623SM  C14F10078  -0.589   0.930  11.672 -0.0789  0.9439 -0.5044
   7623SM  H14F10079  -0.530   1.009  11.621 -0.9763  1.7441 -0.3361
   7623SM  H14G10080  -0.695   0.963  11.673  0.2845  2.1942  0.9122
   7623SM  C15F10081  -0.563   0.800  11.595  0.8939  0.2848  0.2541
   7623SM  H15F10082  -0.482   0.738  11.638  0.5084 -0.2369  0.2296
   7623SM  H15G10083  -0.536   0.819  11.489  0.0275  1.6160  0.2387
   7623SM  C16F10084  -0.694   0.715  11.587 -0.0930 -0.2671 -0.4064
   7623SM  H16F10085  -0.785   0.775  11.565  0.6893  0.5070 -1.7052
   7623SM  H16G10086  -0.715   0.690  11.693 -1.9025 -0.9878 -0.8996
   7623SM  C17F10087  -0.682   0.591  11.504  0.7221 -0.0465 -0.0070
   7623SM  H17F10088  -0.596   0.529  11.538 -0.0083 -0.0863  1.8994
   7623SM  H17G10089  -0.673   0.620  11.398 -2.1898  0.6810 -0.1214
   7623SM  C18F10090  -0.810   0.508  11.522  0.0650  0.4209  0.2694
   7623SM  H18F10091  -0.896   0.577  11.508 -0.7129 -0.3080  1.3063
   7623SM  H18G10092  -0.795   0.471  11.626  1.1068  1.0066  0.3446
   7623SM  C19F10093  -0.831   0.393  11.419 -0.2969 -0.3254 -0.7490
   7623SM  H19F10094  -0.799   0.432  11.321 -0.4812 -0.4605 -0.8643
   7623SM  H19G10095  -0.935   0.358  11.399 -0.3149 -2.0871  1.8646
   7623SM  C20F10096  -0.752   0.265  11.462  0.8323  0.3193 -0.1200
   7623SM  H20F10097  -0.797   0.233  11.559  0.0035 -0.3751 -0.7130
   7623SM  H20G10098  -0.647   0.298  11.477 -0.2167  3.7201  0.6359
   7623SM  C21F10099  -0.751   0.150  11.356  0.1990  0.1510  0.0415
   7623SM  H21F10100  -0.707   0.057  11.397 -0.0275 -0.5180 -1.1751
   7623SM  H21G10101  -0.693   0.194  11.272 -1.4675  0.5430 -0.9448
   7623SM  C22F10102  -0.894   0.118  11.304  0.0058  0.1987 -0.6493
   7623SM  H22F10103  -0.926   0.205  11.243  0.0796 -0.5551 -1.7900
   7623SM  H22G10104  -0.973   0.113  11.382 -3.3382  1.2328 -3.7179
   7623SM  C23F10105  -0.908  -0.012  11.222 -0.1283 -0.3363  0.2303
   7623SM  H23F10106  -0.913  -0.104  11.285 -3.3609 -0.0291  0.6100
   7623SM  H23G10107  -0.829  -0.023  11.145  0.5675 -0.1640  0.9140
   7623SM  H23H10108  -1.005  -0.018  11.168 -0.6381 -0.3671  1.1297
   7723SM     N10109   6.331   3.127  13.858  0.0787  0.0925  0.3583
   7723SM   C1510110   6.218   3.023  13.859 -0.5208  0.6930  0.0823
   7723SM  H15A10111   6.236   2.941  13.927 -1.9113 -0.1179 -0.4957
   7723SM  H15B10112   6.215   2.978  13.761  2.3764  0.5517 -0.0252
   7723SM  H15C10113   6.129   3.078  13.885 -1.1643 -0.3822  0.2193
   7723SM   C1410114   6.464   3.063  13.820 -0.1860 -0.3693 -0.4923
   7723SM  H14A10115   6.501   2.995  13.895 -0.4657 -0.1048 -0.1145
   7723SM  H14B10116   6.534   3.143  13.800  1.4454 -1.5960  0.1161
   7723SM  H14C10117   6.452   3.010  13.727  0.1662 -0.5411 -0.4420
   7723SM   C1310118   6.297   3.240  13.763  0.0530 -0.1750  0.2628
   7723SM  H13A10119   6.270   3.196  13.669  1.4832  1.5689 -1.0438
   7723SM  H13B10120   6.381   3.305  13.744 -0.3634  0.7441  1.4111
   7723SM  H13C10121   6.205   3.288  13.794 -1.2721 -2.2529 -0.2541
   7723SM   C1210122   6.351   3.195  13.993  0.1879  0.7796 -0.5676
   7723SM  H12A10123   6.438   3.258  13.990  0.8699 -0.1506 -0.7960
   7723SM  H12B10124   6.376   3.123  14.070  0.2514 -0.1789 -1.4563
   7723SM   C1110125   6.232   3.278  14.040 -0.2919  0.4337  0.0826
   7723SM  H11A10126   6.240   3.284  14.151 -1.9620 -0.8004  0.2913
   7723SM  H11B10127   6.138   3.223  14.022 -0.3931 -0.5567  3.0454
   7723SM     P10128   6.336   3.513  14.014  0.3831 -0.3343 -0.0523
   7723SM   O1310129   6.270   3.642  14.037  0.3721 -0.3183  0.1819
   7723SM   O1410130   6.415   3.459  14.128 -0.3028 -0.1063  0.0092
   7723SM   O1110131   6.423   3.514  13.875  0.1582  0.0472  0.3126
   7723SM   O1210132   6.220   3.408  13.988  0.0665  0.4528 -0.1744
   7723SM   C1S10133   6.373   3.599  13.769 -0.5369  0.1370  0.1724
   7723SM   H1S10134   6.342   3.699  13.807  0.8380  0.0047  1.7803
   7723SM   H1T10135   6.278   3.549  13.741 -0.7523  0.1894  0.7979
   7723SM    NF10136   6.402   3.716  13.561 -0.2232  0.0952  0.0539
   7723SM   HNF10137   6.358   3.689  13.476  0.3160  2.1305 -0.9405
   7723SM   C2S10138   6.457   3.608  13.640 -0.8996 -0.5804  0.2250
   7723SM   H2S10139   6.562   3.634  13.664 -0.2414 -1.7385 -1.2177
   7723SM   C3S10140   6.465   3.480  13.565 -0.4690  0.3785  0.1318
   7723SM   H3S10141   6.364   3.442  13.539 -0.7679  2.0981 -1.4069
   7723SM    O310142   6.537   3.380  13.640  0.0817 -0.0318  0.3764
   7723SM   HO310143   6.543   3.420  13.727  0.5955  0.7344  0.0079
   7723SM   C4S10144   6.534   3.490  13.426  1.2820  0.1068  0.8600
   7723SM   H4S10145   6.470   3.454  13.345  0.9947 -0.1589  1.2014
   7723SM   C5S10146   6.654   3.542  13.396 -0.0039  0.3448 -0.6134
   7723SM   H5S10147   6.715   3.584  13.477 -1.8927 -0.2062  1.1686
   7723SM   C6S10148   6.712   3.543  13.256 -0.0646  0.2696  0.3776
   7723SM   H6S10149   6.790   3.464  13.252 -0.3481  0.0011 -3.3610
   7723SM   H6T10150   6.765   3.639  13.239 -0.1346  0.3491  0.6047
   7723SM   C7S10151   6.611   3.514  13.141  0.2510 -0.4453 -0.0626
   7723SM   H7S10152   6.542   3.432  13.171  1.2404 -1.3409 -0.1890
   7723SM   H7T10153   6.662   3.471  13.052  0.9706  1.1321 -0.4556
   7723SM   C8S10154   6.521   3.627  13.111  0.3427  0.4619  0.5163
   7723SM   H8S10155   6.452   3.642  13.197 -0.6956 -1.3852  0.0479
   7723SM   H8T10156   6.457   3.603  13.024  0.9221 -2.0967  0.7334
   7723SM   C9S10157   6.592   3.765  13.087 -0.0202  0.4775  0.3576
   7723SM   H9S10158   6.644   3.788  13.183 -0.5202 -0.3928  0.8509
   7723SM   H9T10159   6.521   3.848  13.069  0.6114  1.3760  1.7870
   7723SM  C10S10160   6.695   3.761  12.972  0.0289 -0.5291 -0.3492
   7723SM  H10S10161   6.777   3.692  13.003  1.7455  1.6500  0.1888
   7723SM  H10T10162   6.738   3.862  12.958 -0.0086 -0.5624 -0.7045
   7723SM  C11S10163   6.630   3.705  12.846  0.0630  0.0526  0.6120
   7723SM  H11S10164   6.547   3.775  12.821  1.3194  1.3495 -0.0402
   7723SM  H11T10165   6.586   3.605  12.867 -0.6946  0.0615 -0.8157
   7723SM  C12S10166   6.729   3.696  12.737  0.9732  0.1517  0.3774
   7723SM  H12S10167   6.685   3.632  12.658  1.5000 -0.6323  0.7024
   7723SM  H12T10168   6.822   3.649  12.778  1.8091  1.0687 -0.4085
   7723SM  C13S10169   6.753   3.831  12.671  0.1964  0.3894 -0.2641
   7723SM  H13S10170   6.805   3.901  12.740  1.4278  0.2143 -0.9881
   7723SM  H13T10171   6.649   3.867  12.655 -0.0179 -0.2383 -0.3079
   7723SM  C14S10172   6.830   3.820  12.538  0.5572  0.4491  0.0699
   7723SM  H14S10173   6.932   3.779  12.557 -0.0286 -0.3800  1.6545
   7723SM  H14T10174   6.819   3.923  12.498 -0.5223  0.6137  0.7550
   7723SM  C15S10175   6.757   3.733  12.431  0.1979 -0.1779 -0.1296
   7723SM  H15S10176   6.650   3.765  12.425 -0.8748 -3.2981  0.6689
   7723SM  H15T10177   6.760   3.625  12.454  1.3070 -0.1966 -0.3055
   7723SM  C16S10178   6.839   3.733  12.295  0.1402  0.1503 -0.0452
   7723SM  H16S10179   6.821   3.830  12.244 -1.0598 -0.5309 -0.9720
   7723SM  H16T10180   6.790   3.665  12.222 -1.9585  1.9185 -0.4112
   7723SM  C17S10181   6.986   3.694  12.303  0.4847 -0.5954  0.6000
   7723SM  H17S10182   6.989   3.602  12.366  0.0822  0.1341  1.7143
   7723SM  H17T10183   7.033   3.773  12.366  0.0511  0.2372 -0.1126
   7723SM  C18S10184   7.045   3.683  12.159 -0.5079  0.1119 -0.1784
   7723SM  H18S10185   6.976   3.633  12.088  0.5707 -0.9544 -0.5135
   7723SM  H18T10186   7.132   3.614  12.165 -1.2172 -0.8118 -0.4231
   7723SM  H18U10187   7.082   3.781  12.122  1.5187 -1.1092 -1.6004
   7723SM   C1F10188   6.391   3.847  13.597  0.5718 -0.5302  0.8263
   7723SM    OF10189   6.463   3.889  13.682 -0.2638 -0.2874 -0.2386
   7723SM   C2F10190   6.282   3.930  13.531 -0.5946  0.1548  0.4706
   7723SM   H2F10191   6.272   4.030  13.580 -2.3565  0.4782 -0.4469
   7723SM   H2G10192   6.185   3.883  13.560 -0.0761 -1.1585  0.1329
   7723SM   C3F10193   6.299   3.978  13.392 -0.6024  0.2584 -0.1197
   7723SM   H3F10194   6.209   4.024  13.346 -0.7112  0.0678 -0.0969
   7723SM   H3G10195   6.318   3.891  13.326  0.1149  1.7099 -1.9368
   7723SM   C4F10196   6.424   4.072  13.370  0.6149 -0.2181 -0.4424
   7723SM   H4F10197   6.516   4.034  13.420 -0.8639 -0.0672  2.6360
   7723SM   H4G10198   6.389   4.165  13.421 -3.3328 -0.6140 -2.0994
   7723SM   C5F10199   6.444   4.100  13.220 -0.2210  0.2240  1.0336
   7723SM   H5F10200   6.380   4.185  13.189  1.1065  0.3715 -1.5887
   7723SM   H5G10201   6.407   4.014  13.161  0.3850  0.8894 -0.3474
   7723SM   C6F10202   6.593   4.109  13.193  0.1223  0.2530 -0.3539
   7723SM   H6F10203   6.643   4.013  13.216 -0.5254  0.8870  4.8271
   7723SM   H6G10204   6.633   4.192  13.255  0.8107  0.0908 -0.5765
   7723SM   C7F10205   6.644   4.152  13.049  0.3655 -0.1497  0.4159
   7723SM   H7F10206   6.630   4.062  12.984 -0.9266 -1.9939  3.0595
   7723SM   H7G10207   6.754   4.170  13.054  0.3037  2.8445 -3.6868
   7723SM   C8F10208   6.578   4.273  12.983  0.2851 -0.1840 -0.1179
   7723SM   H8F10209   6.593   4.366  13.042 -1.9025  0.9519 -1.2338
   7723SM   H8G10210   6.469   4.249  12.984  0.4967 -1.3859 -2.0125
   7723SM   C9F10211   6.636   4.295  12.840  0.5226  0.1191 -0.4633
   7723SM   H9F10212   6.746   4.309  12.846  0.4587  0.3686  0.2616
   7723SM   H9G10213   6.602   4.386  12.785  1.0015  1.4015  1.2796
   7723SM  C10F10214   6.612   4.175  12.740 -0.0859  0.1355 -0.1058
   7723SM  H10F10215   6.526   4.118  12.782  0.2697 -0.7824 -0.5765
   7723SM  H10G10216   6.690   4.097  12.753 -0.0030  0.1695 -0.4026
   7723SM  C11F10217   6.606   4.219  12.594  0.4033 -0.3327  0.0520
   7723SM  H11F10218   6.706   4.259  12.567  0.5583 -0.2975  0.6629
   7723SM  H11G10219   6.536   4.304  12.586 -0.1800 -0.8559 -0.5236
   7723SM  C12F10220   6.574   4.106  12.490  0.0282  0.7406 -0.5118
   7723SM  H12F10221   6.468   4.085  12.518  0.4875 -1.9059 -0.4707
   7723SM  H12G10222   6.633   4.014  12.509 -0.2111  0.6067 -0.4094
   7723SM  C13F10223   6.575   4.151  12.348 -0.5365 -0.1083  0.9303
   7723SM  H13F10224   6.682   4.174  12.328 -1.0914  2.1631  0.1858
   7723SM  H13G10225   6.515   4.245  12.337 -0.6519 -0.3099 -0.3899
   7723SM  C14F10226   6.518   4.049  12.250  0.3877  0.1511  0.4511
   7723SM  H14F10227   6.413   4.031  12.280 -0.0123  1.3468 -0.1827
   7723SM  H14G10228   6.573   3.955  12.273 -0.9953 -0.3154  2.0628
   7723SM  C15F10229   6.542   4.083  12.099 -0.6135  0.0957 -0.4130
   7723SM  H15F10230   6.650   4.095  12.078 -0.8291  0.1112 -1.5832
   7723SM  H15G10231   6.509   4.187  12.081  1.2494  0.6578 -0.7404
   7723SM  C16F10232   6.496   3.982  11.993  0.0431 -0.3547 -0.7000
   7723SM  H16F10233   6.552   3.888  12.015 -1.3834 -1.1615 -0.3679
   7723SM  H16G10234   6.532   4.013  11.893  2.3841 -0.0345  0.1726
   7723SM  C17F10235   6.345   3.961  11.986 -0.4997  0.9116 -0.1627
   7723SM  H17F10236   6.290   4.057  11.992 -1.2924  0.3843  2.9285
   7723SM  H17G10237   6.311   3.907  12.077  1.9433  1.6599  1.2694
   7723SM  C18F10238   6.301   3.894  11.855 -0.2188 -0.2794 -0.4350
   7723SM  H18F10239   6.201   3.848  11.867 -0.3239  0.4612  2.0390
   7723SM  H18G10240   6.366   3.806  11.834  0.3032  0.3554 -1.5406
   7723SM  C19F10241   6.298   3.980  11.731 -0.0527  1.0660  1.0509
   7723SM  H19F10242   6.399   4.024  11.713 -0.0970 -0.2023 -3.6115
   7723SM  H19G10243   6.240   4.074  11.745  0.8646  2.1014 -1.5321
   7723SM  C20F10244   6.252   3.907  11.600 -0.0150  0.5438 -0.0068
   7723SM  H20F10245   6.147   3.874  11.614 -0.6079  2.2805 -0.0810
   7723SM  H20G10246   6.318   3.818  11.595  0.1312  0.4683  2.2013
   7723SM  C21F10247   6.257   4.001  11.482 -0.1184 -0.8062  0.2270
   7723SM  H21F10248   6.357   4.049  11.475 -0.6378  0.6830  2.1179
   7723SM  H21G10249   6.194   4.089  11.507 -0.8558 -0.7063 -1.7312
   7723SM  C22F10250   6.210   3.948  11.350  0.0637  0.5329  1.4273
   7723SM  H22F10251   6.110   3.902  11.359 -1.2662  2.4991 -1.5509
   7723SM  H22G10252   6.275   3.859  11.330 -0.7195 -0.2211  2.1748
   7723SM  C23F10253   6.216   4.034  11.221 -0.6233  0.1039 -0.2535
   7723SM  H23F10254   6.321   4.060  11.193 -1.3182  1.2922 -1.9681
   7723SM  H23G10255   6.160   4.126  11.249 -1.1296  0.0524 -1.0476
   7723SM  H23H10256   6.171   3.981  11.134 -0.0267  1.0918 -1.2023
   7823SM     N10257   0.299   1.840  13.796  0.1822  0.5010 -0.1439
   7823SM   C1510258   0.259   1.711  13.729  0.0696  0.8990  0.3087
   7823SM  H15A10259   0.295   1.704  13.627  0.9196  1.5119  0.5556
   7823SM  H15B10260   0.152   1.706  13.722  0.0309 -1.2102  1.6956
   7823SM  H15C10261   0.297   1.624  13.780 -1.8132 -0.8302 -1.0814
   7823SM   C1410262   0.229   1.950  13.729  0.2726  0.3006  0.2598
   7823SM  H14A10263   0.251   2.046  13.773  0.3972  0.4632 -0.1473
   7823SM  H14B10264   0.123   1.941  13.710  0.5974  0.0806 -1.6824
   7823SM  H14C10265   0.262   1.940  13.626  2.2016  0.0391  0.8604
   7823SM   C1310266   0.227   1.836  13.927 -0.0406 -0.8981 -0.5112
   7823SM  H13A10267   0.230   1.936  13.967 -2.4085 -0.1693 -1.9238
   7823SM  H13B10268   0.262   1.767  14.003 -1.0574  0.3585  1.1579
   7823SM  H13C10269   0.121   1.817  13.916  0.0702 -2.0698  0.2736
   7823SM   C1210270   0.446   1.862  13.814 -0.4172 -0.4298  0.0743
   7823SM  H12A10271   0.472   1.779  13.878 -1.1977  0.0367  1.0344
   7823SM  H12B10272   0.452   1.956  13.868 -3.1208 -1.1008  1.7494
   7823SM   C1110273   0.545   1.877  13.693 -0.1913  0.9144 -0.3775
   7823SM  H11A10274   0.646   1.902  13.733 -0.1695 -0.0502  0.2167
   7823SM  H11B10275   0.519   1.962  13.626  1.3080  0.0910 -2.1057
   7823SM     P10276   0.611   1.626  13.657 -0.3047  0.2462 -0.2892
   7823SM   O1310277   0.760   1.643  13.660 -0.0488 -0.0937 -0.2106
   7823SM   O1410278   0.549   1.581  13.783 -0.1228  0.3823  0.7113
   7823SM   O1110279   0.581   1.517  13.546  0.1704 -0.0580 -0.4156
   7823SM   O1210280   0.539   1.760  13.608 -0.5404 -0.0593  0.4574
   7823SM   C1S10281   0.493   1.531  13.436  0.3950 -0.6950 -0.2261
   7823SM   H1S10282   0.422   1.615  13.451  2.2569  0.9347 -0.0907
   7823SM   H1T10283   0.438   1.435  13.426  3.6784 -2.7165 -0.6097
   7823SM    NF10284   0.470   1.563  13.200 -0.1887  0.3195 -0.2965
   7823SM   HNF10285   0.459   1.485  13.139  1.2432 -0.8022  0.7782
   7823SM   C2S10286   0.566   1.548  13.301 -0.0223 -0.2346 -0.0033
   7823SM   H2S10287   0.628   1.640  13.308  1.7015 -1.4158  1.0788
   7823SM   C3S10288   0.663   1.428  13.278  0.2439  0.1070 -0.5263
   7823SM   H3S10289   0.596   1.340  13.274  0.6216 -0.2694  0.8392
   7823SM    O310290   0.750   1.396  13.387 -0.3059  0.1240  0.1106
   7823SM   HO310291   0.703   1.430  13.463  0.0146 -2.6020  1.6578
   7823SM   C4S10292   0.749   1.429  13.148 -0.0264 -0.5197  0.1339
   7823SM   H4S10293   0.727   1.351  13.074 -2.4537  0.4209 -0.2143
   7823SM   C5S10294   0.851   1.512  13.134  0.2962  0.0337  0.3364
   7823SM   H5S10295   0.870   1.589  13.210 -0.5713 -0.7753  1.3940
   7823SM   C6S10296   0.927   1.520  13.006  0.0419  0.8645 -0.1490
   7823SM   H6S10297   1.029   1.479  13.020 -0.0373  1.0640  1.1334
   7823SM   H6T10298   0.948   1.625  12.975  0.7637  0.4417 -1.1377
   7823SM   C7S10299   0.880   1.437  12.888 -0.8215 -0.0967  0.0849
   7823SM   H7S10300   0.785   1.479  12.847 -0.8894  0.1884  0.5276
   7823SM   H7T10301   0.868   1.328  12.908 -1.3713  0.1967  1.4403
   7823SM   C8S10302   0.983   1.449  12.777 -0.2731 -0.2921 -0.9178
   7823SM   H8S10303   1.072   1.396  12.816 -0.3277 -1.0423 -1.7759
   7823SM   H8T10304   1.002   1.557  12.757  0.0264 -0.3077 -0.7182
   7823SM   C9S10305   0.927   1.380  12.650 -0.4184  0.1064 -0.6489
   7823SM   H9S10306   0.825   1.419  12.630 -1.3899 -1.1437  1.5863
   7823SM   H9T10307   0.914   1.272  12.673  2.5735 -0.1299  0.3456
   7823SM  C10S10308   1.024   1.381  12.531  0.0559 -0.1111  0.1975
   7823SM  H10S10309   1.123   1.339  12.556  0.5298 -0.4994 -2.0734
   7823SM  H10T10310   1.042   1.488  12.509 -0.4483 -0.0467  0.0868
   7823SM  C11S10311   0.970   1.315  12.407  0.6330  0.4267  0.0121
   7823SM  H11S10312   0.873   1.364  12.384  0.6059  0.9548  1.2213
   7823SM  H11T10313   0.948   1.208  12.425  1.6460  0.1560 -0.2582
   7823SM  C12S10314   1.063   1.341  12.286 -0.4162 -0.0491 -0.2086
   7823SM  H12S10315   1.167   1.312  12.310  0.1635  2.1141  0.0287
   7823SM  H12T10316   1.069   1.448  12.259 -0.3043 -0.0287 -0.1048
   7823SM  C13S10317   1.017   1.267  12.158  0.6035  1.2633 -0.6224
   7823SM  H13S10318   0.908   1.282  12.168 -0.2414 -3.8648  0.5136
   7823SM  H13T10319   1.025   1.157  12.167  1.0634  1.2569 -1.0389
   7823SM  C14S10320   1.078   1.320  12.037  0.2765  0.9323 -0.3770
   7823SM  H14S10321   1.177   1.271  12.032  0.0710  0.1220  2.1422
   7823SM  H14T10322   1.103   1.428  12.034  1.5442  0.6331 -2.7919
   7823SM  C15S10323   0.992   1.276  11.911 -0.3196  0.5899  0.2283
   7823SM  H15S10324   0.888   1.311  11.925 -0.0758  1.5965 -0.3861
   7823SM  H15T10325   0.992   1.165  11.908 -1.2430  0.5438  1.2737
   7823SM  C16S10326   1.040   1.319  11.776 -0.3166 -0.2652  0.3347
   7823SM  H16S10327   1.018   1.241  11.700 -0.3625 -0.7481  0.8364
   7823SM  H16T10328   1.151   1.322  11.772 -0.3499  0.7310 -0.1213
   7823SM  C17S10329   0.974   1.452  11.729 -0.4687 -0.3602  0.2532
   7823SM  H17S10330   1.024   1.537  11.779 -1.1673  1.0788 -1.3757
   7823SM  H17T10331   0.864   1.455  11.743 -0.6151  0.0161 -0.8898
   7823SM  C18S10332   0.996   1.483  11.578  0.2505  0.7211  0.1928
   7823SM  H18S10333   0.939   1.574  11.551 -2.0492 -0.6264  0.2145
   7823SM  H18T10334   0.946   1.413  11.507  1.0750 -0.1725  0.4688
   7823SM  H18U10335   1.104   1.504  11.561  0.2549  2.5042  1.9905
   7823SM   C1F10336   0.391   1.664  13.183 -0.5331  0.2148  0.1949
   7823SM    OF10337   0.423   1.777  13.228  0.6475 -0.0308 -0.0321
   7823SM   C2F10338   0.274   1.649  13.095  0.2044  0.9201 -0.0861
   7823SM   H2F10339   0.196   1.717  13.136 -0.4462  0.1469 -0.0367
   7823SM   H2G10340   0.229   1.548  13.100  3.4045 -0.9142 -3.5754
   7823SM   C3F10341   0.300   1.692  12.944 -0.4716 -0.1048 -1.0179
   7823SM   H3F10342   0.350   1.791  12.953 -0.7926 -0.0565  0.2778
   7823SM   H3G10343   0.208   1.700  12.883  0.7437  0.2868 -2.9015
   7823SM   C4F10344   0.394   1.598  12.857  0.6369 -0.0389  0.4965
   7823SM   H4F10345   0.361   1.495  12.879  1.0425 -0.2269  0.2292
   7823SM   H4G10346   0.497   1.616  12.897  0.1787 -0.0552  1.7403
   7823SM   C5F10347   0.381   1.635  12.705  0.2101 -0.6434  0.1012
   7823SM   H5F10348   0.412   1.738  12.679  0.6553 -1.2909 -2.1338
   7823SM   H5G10349   0.273   1.635  12.680 -0.5637 -0.6940  3.0205
   7823SM   C6F10350   0.462   1.535  12.621  0.2792 -0.2942  0.2834
   7823SM   H6F10351   0.407   1.438  12.615 -0.5494  0.1059  1.1461
   7823SM   H6G10352   0.565   1.510  12.655  0.8260 -1.0112 -1.7609
   7823SM   C7F10353   0.488   1.573  12.473  0.2361 -0.2879  0.1186
   7823SM   H7F10354   0.534   1.674  12.484  1.5364 -0.9446  0.9361
   7823SM   H7G10355   0.389   1.588  12.426  1.3046  1.9661 -1.6377
   7823SM   C8F10356   0.577   1.486  12.382  0.1148  0.6077 -0.7322
   7823SM   H8F10357   0.524   1.391  12.358  0.4481  0.2009  0.1027
   7823SM   H8G10358   0.663   1.459  12.447  0.4993 -1.6473 -2.0459
   7823SM   C9F10359   0.622   1.576  12.268 -0.4944  0.1167 -0.2996
   7823SM   H9F10360   0.703   1.529  12.207  0.9508  0.7749  1.0427
   7823SM   H9G10361   0.662   1.674  12.303 -1.7766  1.3000 -1.9725
   7823SM  C10F10362   0.519   1.610  12.158 -0.0971  0.0180 -0.1139
   7823SM  H10F10363   0.433   1.665  12.203 -1.5948  0.1259 -2.8890
   7823SM  H10G10364   0.486   1.512  12.120 -0.9832  0.4136 -0.3779
   7823SM  C11F10365   0.581   1.697  12.050  0.0876  0.0183 -0.2388
   7823SM  H11F10366   0.686   1.662  12.034 -0.3631 -1.2860 -0.5039
   7823SM  H11G10367   0.595   1.795  12.100  2.6932 -0.6848  0.5846
   7823SM  C12F10368   0.492   1.700  11.925  0.0620  0.2317 -0.4569
   7823SM  H12F10369   0.401   1.762  11.940 -0.3510 -0.2652 -0.8806
   7823SM  H12G10370   0.468   1.594  11.901 -1.5669  0.1619  1.3003
   7823SM  C13F10371   0.556   1.757  11.801 -0.4158  0.5166 -0.1436
   7823SM  H13F10372   0.664   1.731  11.797 -0.5308  0.1529 -0.9675
   7823SM  H13G10373   0.556   1.868  11.806  1.4109  0.5150  3.2936
   7823SM  C14F10374   0.493   1.712  11.671 -0.1010  0.3508  0.4713
   7823SM  H14F10375   0.393   1.761  11.669 -0.1348  0.2669 -0.0034
   7823SM  H14G10376   0.468   1.603  11.669 -0.2950  0.3838  0.9670
   7823SM  C15F10377   0.582   1.754  11.545  0.2284 -0.0668 -1.0795
   7823SM  H15F10378   0.536   1.727  11.448 -0.9277  0.1728 -0.6220
   7823SM  H15G10379   0.665   1.680  11.550 -0.4890 -0.8165  1.7961
   7823SM  C16F10380   0.633   1.896  11.540 -0.4576  0.4031  0.1620
   7823SM  H16F10381   0.699   1.911  11.629  1.8433  0.7801 -1.4981
   7823SM  H16G10382   0.544   1.962  11.543 -2.3366 -2.0366  1.6771
   7823SM  C17F10383   0.717   1.928  11.409  0.6490 -0.2783 -0.1625
   7823SM  H17F10384   0.642   1.900  11.332 -0.1777 -1.2580  0.9619
   7823SM  H17G10385   0.803   1.858  11.410  1.1677  0.3494  1.3561
   7823SM  C18F10386   0.753   2.070  11.383 -0.0949 -0.2840 -1.0070
   7823SM  H18F10387   0.819   2.114  11.461 -2.4436 -0.7743  1.4131
   7823SM  H18G10388   0.672   2.145  11.368 -0.2631 -0.1541  0.3953
   7823SM  C19F10389   0.830   2.079  11.247  0.0988 -0.3455  0.0883
   7823SM  H19F10390   0.759   2.055  11.165 -0.2959 -1.8789  0.8573
   7823SM  H19G10391   0.913   2.006  11.240 -0.9436 -1.6008  0.4977
   7823SM  C20F10392   0.889   2.216  11.214  0.5719  0.0336 -0.1318
   7823SM  H20F10393   0.933   2.255  11.309 -2.4455 -2.6734  2.6362
   7823SM  H20G10394   0.797   2.275  11.196  2.4457  2.6955 -1.5903
   7823SM  C21F10395   0.995   2.214  11.103 -0.4607 -0.2071  0.3933
   7823SM  H21F10396   0.949   2.196  11.003 -0.3051 -0.1699  0.3141
   7823SM  H21G10397   1.070   2.135  11.124 -0.5839  0.0363  1.8162
   7823SM  C22F10398   1.073   2.348  11.083  0.9057  0.2526 -0.5583
   7823SM  H22F10399   1.100   2.387  11.184 -1.8693  0.4194  0.1893
   7823SM  H22G10400   1.007   2.417  11.027  0.4502 -0.2302 -0.6253
   7823SM  C23F10401   1.200   2.330  10.985 -0.6038  0.1402 -0.5000
   7823SM  H23F10402   1.262   2.422  10.988 -0.1398 -0.1934  0.4707
   7823SM  H23G10403   1.160   2.313  10.882  0.7517  0.3357 -1.0714
   7823SM  H23H10404   1.264   2.243  11.010  0.4178  1.4083  1.5320
   7923SM     N10405   5.100   1.764  14.174  0.1855 -0.1017  0.2366
   7923SM   C1510406   4.962   1.740  14.119 -0.6055 -0.4825 -0.2713
   7923SM  H15A10407   4.905   1.832  14.118  3.7758  2.5711  0.4765
   7923SM  H15B10408   4.908   1.674  14.185  0.1865  0.9591  1.9019
   7923SM  H15C10409   4.959   1.685  14.026 -0.8016 -0.4667 -0.2750
   7923SM   C1410410   5.172   1.863  14.089 -0.3862  0.5148  0.3038
   7923SM  H14A10411   5.179   1.835  13.985 -1.8268 -0.5794  0.4644
   7923SM  H14B10412   5.269   1.871  14.136 -1.0281 -0.1024  1.7955
   7923SM  H14C10413   5.108   1.950  14.087 -0.2213  0.7139  2.0814
   7923SM   C1310414   5.080   1.830  14.312 -0.0320  0.1140  0.9482
   7923SM  H13A10415   5.169   1.846  14.370  0.2702  2.1734  0.0012
   7923SM  H13B10416   5.002   1.790  14.375 -1.9801  2.2506  0.0515
   7923SM  H13C10417   5.049   1.933  14.296  1.5077  0.2184 -2.1009
   7923SM   C1210418   5.173   1.635  14.194  0.1982  0.3913  0.6062
   7923SM  H12A10419   5.166   1.584  14.099 -1.8975 -1.0852  1.4587
   7923SM  H12B10420   5.118   1.586  14.273  2.0206  0.3620  1.9251
   7923SM   C1110421   5.319   1.649  14.232  0.5650  0.2947  0.4419
   7923SM  H11A10422   5.327   1.563  14.302 -1.1149 -0.7157 -0.5374
   7923SM  H11B10423   5.332   1.746  14.284  3.2179  0.4044 -0.3098
   7923SM     P10424   5.520   1.738  14.089 -0.1066 -1.0209 -0.2716
   7923SM   O1310425   5.512   1.845  14.195 -0.6422 -0.1505 -0.4539
   7923SM   O1410426   5.650   1.673  14.061 -0.2236  0.3664 -0.3948
   7923SM   O1110427   5.471   1.800  13.949 -0.9891  0.6204 -0.3993
   7923SM   O1210428   5.409   1.633  14.121 -0.1638 -0.1606  0.7404
   7923SM   C1S10429   5.416   1.724  13.843 -0.0318  0.0191 -0.3654
   7923SM   H1S10430   5.319   1.681  13.875 -0.9424  2.0770 -0.2222
   7923SM   H1T10431   5.485   1.642  13.815  0.1399 -0.2084  0.6910
   7923SM    NF10432   5.322   1.726  13.615 -0.0803  0.3040 -0.0289
   7923SM   HNF10433   5.383   1.694  13.542 -0.7530 -1.6363  0.1828
   7923SM   C2S10434   5.384   1.810  13.721 -0.0303 -0.4221 -0.2762
   7923SM   H2S10435   5.307   1.884  13.752  1.5115  1.1957 -0.0803
   7923SM   C3S10436   5.509   1.893  13.679 -0.3125  0.0618  0.0931
   7923SM   H3S10437   5.593   1.822  13.663  0.3401  0.9800 -0.6770
   7923SM    O310438   5.563   1.985  13.768 -0.6074  0.0685  0.4547
   7923SM   HO310439   5.551   1.939  13.852 -2.4028  1.8436  1.2753
   7923SM   C4S10440   5.485   1.965  13.552  0.1534  0.3252  0.8540
   7923SM   H4S10441   5.382   1.999  13.539 -0.1825 -1.1633 -0.9557
   7923SM   C5S10442   5.577   1.983  13.456 -0.2194  0.4889 -0.3190
   7923SM   H5S10443   5.677   1.938  13.466  0.0287  0.8673 -1.0662
   7923SM   C6S10444   5.549   2.057  13.328 -0.3971 -0.3401  0.8024
   7923SM   H6S10445   5.441   2.082  13.324 -0.3336 -0.2041 -1.4126
   7923SM   H6T10446   5.573   1.994  13.239  1.3437  0.4439  0.6818
   7923SM   C7S10447   5.616   2.197  13.318  0.0980  0.4056  0.7684
   7923SM   H7S10448   5.726   2.190  13.306 -0.1518 -2.0123 -1.0462
   7923SM   H7T10449   5.588   2.263  13.402 -0.9410  1.0117 -0.0248
   7923SM   C8S10450   5.562   2.280  13.193 -0.2334 -0.0013  0.1472
   7923SM   H8S10451   5.451   2.278  13.199 -0.1736  0.0044  1.6418
   7923SM   H8T10452   5.594   2.230  13.099 -0.5469 -1.3898  0.7525
   7923SM   C9S10453   5.627   2.419  13.193  0.0579  0.2623 -0.6322
   7923SM   H9S10454   5.737   2.406  13.180  0.1552  0.7317 -0.2850
   7923SM   H9T10455   5.612   2.474  13.288 -1.9139  0.5529 -1.0650
   7923SM  C10S10456   5.557   2.508  13.091 -0.1556  0.2798  0.7751
   7923SM  H10S10457   5.596   2.611  13.109 -0.8838  0.5081  1.0931
   7923SM  H10T10458   5.447   2.497  13.101 -0.3239 -0.2700 -1.2585
   7923SM  C11S10459   5.589   2.470  12.944 -0.2162 -0.3838 -0.0080
   7923SM  H11S10460   5.550   2.371  12.911  0.5739 -0.6607 -0.1166
   7923SM  H11T10461   5.699   2.470  12.933  0.3208  1.2988  3.7542
   7923SM  C12S10462   5.538   2.582  12.847  0.5645  0.9247 -0.8986
   7923SM  H12S10463   5.571   2.680  12.887 -0.0833  0.9858 -0.4899
   7923SM  H12T10464   5.427   2.578  12.839  0.4018 -2.6178  0.9911
   7923SM  C13S10465   5.598   2.562  12.707 -0.0247 -0.2207  0.4701
   7923SM  H13S10466   5.581   2.457  12.675  1.7267 -0.2223 -0.5655
   7923SM  H13T10467   5.707   2.575  12.721 -0.0710 -0.3857  1.0008
   7923SM  C14S10468   5.545   2.658  12.607  0.3115  0.1984 -0.3199
   7923SM  H14S10469   5.560   2.765  12.635  1.9003  1.0247 -3.7229
   7923SM  H14T10470   5.436   2.635  12.598 -0.6467  3.9640 -0.3880
   7923SM  C15S10471   5.616   2.632  12.479 -0.7123  0.1292  0.5345
   7923SM  H15S10472   5.589   2.528  12.452 -0.3323 -0.7739  3.3101
   7923SM  H15T10473   5.727   2.634  12.481 -0.6842  0.1361 -0.4791
   7923SM  C16S10474   5.575   2.732  12.365 -0.4570 -0.1258  0.5422
   7923SM  H16S10475   5.624   2.828  12.392  0.0555 -0.0286 -0.6613
   7923SM  H16T10476   5.466   2.748  12.346 -0.0123  1.4850 -0.8868
   7923SM  C17S10477   5.631   2.682  12.228  0.5736  0.0420 -0.2024
   7923SM  H17S10478   5.605   2.574  12.226 -1.0785  0.3949  0.4728
   7923SM  H17T10479   5.740   2.705  12.225  0.2427  1.7016 -0.5284
   7923SM  C18S10480   5.567   2.748  12.106 -0.0387  0.6412  0.0466
   7923SM  H18S10481   5.516   2.840  12.143  0.0460  1.1342 -1.0166
   7923SM  H18T10482   5.490   2.681  12.063 -0.5127  1.0106  0.3135
   7923SM  H18U10483   5.651   2.786  12.044  2.2044  0.2371  2.6275
   7923SM   C1F10484   5.198   1.678  13.626  0.0346 -0.6331  0.1787
   7923SM    OF10485   5.129   1.713  13.723 -0.0208  0.1698 -0.1469
   7923SM   C2F10486   5.147   1.587  13.528  0.0430 -0.1697  0.4376
   7923SM   H2F10487   5.133   1.481  13.557 -1.9726  0.1148  0.6647
   7923SM   H2G10488   5.216   1.583  13.441 -0.0271  1.2820  0.2914
   7923SM   C3F10489   5.016   1.636  13.474 -0.0672  0.6351  0.4228
   7923SM   H3F10490   5.022   1.746  13.461  0.9519  0.5511  0.0287
   7923SM   H3G10491   4.928   1.622  13.540  0.0272  2.6564  1.0447
   7923SM   C4F10492   4.993   1.572  13.339  0.0627  0.0764  0.2815
   7923SM   H4F10493   4.997   1.461  13.348  0.8045  0.2232  2.1879
   7923SM   H4G10494   5.082   1.600  13.278 -0.6738 -0.7065 -1.2225
   7923SM   C5F10495   4.882   1.635  13.258  0.5162 -0.3702  0.1403
   7923SM   H5F10496   4.903   1.744  13.253  1.7749 -0.5734  0.5107
   7923SM   H5G10497   4.786   1.605  13.305 -0.4857  0.9385 -1.0144
   7923SM   C6F10498   4.878   1.578  13.111  1.2333 -0.3082 -0.5163
   7923SM   H6F10499   4.775   1.547  13.086  0.2125  1.7823  0.8036
   7923SM   H6G10500   4.949   1.494  13.095  0.6336 -0.8014 -0.5869
   7923SM   C7F10501   4.908   1.688  13.013  0.1214  0.3698 -0.0556
   7923SM   H7F10502   4.928   1.653  12.910 -0.8317  1.6510 -0.7170
   7923SM   H7G10503   5.001   1.743  13.038 -0.6506  1.4682  0.5030
   7923SM   C8F10504   4.788   1.786  12.994 -0.2831 -0.3079  0.2966
   7923SM   H8F10505   4.769   1.830  13.094 -0.4579 -1.2681  0.6894
   7923SM   H8G10506   4.699   1.731  12.959 -0.4246  0.2973 -0.3199
   7923SM   C9F10507   4.811   1.904  12.901 -0.4117 -0.2616  0.5595
   7923SM   H9F10508   4.896   1.968  12.932  0.2846  0.2708 -2.1491
   7923SM   H9G10509   4.717   1.963  12.905 -1.5306 -1.8884 -0.5667
   7923SM  C10F10510   4.836   1.873  12.746  0.3319  0.2992 -0.1425
   7923SM  H10F10511   4.783   1.778  12.723  2.5115 -0.7599 -1.0990
   7923SM  H10G10512   4.946   1.862  12.734  0.3696 -1.9982  1.4836
   7923SM  C11F10513   4.787   1.986  12.652  0.2433  0.8315 -0.5726
   7923SM  H11F10514   4.834   2.080  12.688  1.0037 -0.2469  1.3852
   7923SM  H11G10515   4.678   1.998  12.666  0.6091  3.4790  0.6149
   7923SM  C12F10516   4.822   1.974  12.504  0.3637 -0.1084 -0.2210
   7923SM  H12F10517   4.761   2.057  12.461 -0.4853 -0.8684 -0.5099
   7923SM  H12G10518   4.773   1.886  12.458  2.0416 -0.2954 -1.7702
   7923SM  C13F10519   4.966   1.977  12.465 -1.1123 -0.0155  0.7556
   7923SM  H13F10520   5.025   1.901  12.520 -0.3945  2.3083  3.4362
   7923SM  H13G10521   5.008   2.077  12.486  0.8989 -0.2277 -1.7391
   7923SM  C14F10522   4.974   1.978  12.311  0.1122 -0.1510  0.2244
   7923SM  H14F10523   4.938   1.879  12.278 -0.8519 -0.1585  1.2597
   7923SM  H14G10524   5.079   1.988  12.276  0.4530 -2.4089  0.4762
   7923SM  C15F10525   4.896   2.086  12.239  0.8681 -0.2726  0.2363
   7923SM  H15F10526   4.908   2.191  12.275  1.4257  0.4912 -2.0111
   7923SM  H15G10527   4.788   2.062  12.253  1.6155 -3.9861  0.6212
   7923SM  C16F10528   4.933   2.099  12.088  0.1080 -0.4248 -0.2895
   7923SM  H16F10529   5.036   2.139  12.077  1.1655 -2.5551  1.1504
   7923SM  H16G10530   4.862   2.176  12.051 -1.7115 -2.1085 -0.4803
   7923SM  C17F10531   4.914   1.971  12.004 -0.3670 -0.5846  0.1561
   7923SM  H17F10532   4.811   1.931  11.994 -1.1353  0.6073  2.5151
   7923SM  H17G10533   4.984   1.895  12.045  0.6986  1.0933  1.6024
   7923SM  C18F10534   4.974   1.986  11.866 -0.5390  0.2110 -1.3521
   7923SM  H18F10535   5.012   1.889  11.828  3.5528  1.4051 -0.7978
   7923SM  H18G10536   5.062   2.053  11.874 -1.1872  0.8238  1.8127
   7923SM  C19F10537   4.896   2.074  11.775  0.2744 -0.1566  0.1081
   7923SM  H19F10538   4.894   2.180  11.807  0.9651  0.2179 -0.9960
   7923SM  H19G10539   4.791   2.038  11.781 -0.2328  1.1231 -0.7142
   7923SM  C20F10540   4.930   2.056  11.629 -0.2275  0.4324  0.6452
   7923SM  H20F10541   4.970   1.953  11.618 -0.0841  0.4431  1.0697
   7923SM  H20G10542   5.014   2.127  11.615 -0.1082  0.0093 -1.0761
   7923SM  C21F10543   4.823   2.078  11.523  0.1942  0.3368 -0.2486
   7923SM  H21F10544   4.803   2.188  11.525 -1.2294  0.1063 -0.2962
   7923SM  H21G10545   4.724   2.034  11.549  1.2248 -2.5707 -0.8829
   7923SM  C22F10546   4.867   2.035  11.378  0.8455  0.4059  0.2957
   7923SM  H22F10547   4.963   2.084  11.353  0.0778  2.0407  0.4300
   7923SM  H22G10548   4.795   2.066  11.300  0.0434  1.3132  1.3618
   7923SM  C23F10549   4.890   1.888  11.362  0.0331  0.3901 -0.1461
   7923SM  H23F10550   4.978   1.856  11.422  1.1323 -0.5057 -2.1503
   7923SM  H23G10551   4.900   1.857  11.256 -0.9074 -0.7489  0.0689
   7923SM  H23H10552   4.793   1.842  11.392 -0.5742  1.1596 -0.9130
   8023SM     N10553   6.393   2.374  13.967 -0.2792 -0.5474 -0.6816
   8023SM   C1510554   6.284   2.271  13.968 -0.8291 -0.5957 -0.5309
   8023SM  H15A10555   6.185   2.312  13.951 -0.8442 -0.1314  0.5518
   8023SM  H15B10556   6.273   2.225  14.066 -0.7091  1.8172  0.6928
   8023SM  H15C10557   6.306   2.189  13.902 -1.0035 -2.0250  1.1221
   8023SM   C1410558   6.357   2.502  14.040  0.2896 -0.8095  0.5452
   8023SM  H14A10559   6.348   2.489  14.147 -0.2105 -2.3086  0.3448
   8023SM  H14B10560   6.267   2.543  13.998  1.2244 -0.1856 -0.9484
   8023SM  H14C10561   6.431   2.576  14.011 -0.4113 -0.3231 -0.0224
   8023SM   C1310562   6.514   2.315  14.032  0.1037  0.0880  0.1298
   8023SM  H13A10563   6.548   2.219  13.996 -0.4702  0.1574 -0.6287
   8023SM  H13B10564   6.495   2.308  14.138  0.9566 -2.8623  0.1769
   8023SM  H13C10565   6.592   2.390  14.026  0.4232 -0.1672  0.9594
   8023SM   C1210566   6.429   2.420  13.822 -0.2952 -0.3112 -0.0401
   8023SM  H12A10567   6.527   2.465  13.826 -0.4412 -0.0122  0.1960
   8023SM  H12B10568   6.359   2.496  13.792  1.5089  0.6936 -1.9513
   8023SM   C1110569   6.436   2.317  13.705 -0.5561 -0.2898  0.0528
   8023SM  H11A10570   6.473   2.364  13.612 -0.9531  1.8007  0.8972
   8023SM  H11B10571   6.329   2.293  13.691 -0.7808  0.7308 -0.0913
   8023SM     P10572   6.491   2.064  13.684 -0.0441  0.7347 -0.2433
   8023SM   O1310573   6.613   1.975  13.688  0.0536  0.0840 -0.3123
   8023SM   O1410574   6.377   2.015  13.763 -0.0895  0.2442 -0.2229
   8023SM   O1110575   6.447   2.094  13.535 -0.1753  0.6650  0.0382
   8023SM   O1210576   6.528   2.205  13.728  0.5368  0.0870 -0.0370
   8023SM   C1S10577   6.543   2.130  13.438 -0.0134 -0.3416  0.7164
   8023SM   H1S10578   6.635   2.067  13.440 -0.2639 -0.8525 -1.3416
   8023SM   H1T10579   6.573   2.235  13.459 -0.1246 -0.0984 -0.2859
   8023SM    NF10580   6.594   2.166  13.204 -0.1699  0.1392 -0.0975
   8023SM   HNF10581   6.570   2.245  13.149  1.6557 -0.6268 -2.1441
   8023SM   C2S10582   6.487   2.112  13.288 -0.2423  0.5451 -0.0306
   8023SM   H2S10583   6.476   2.002  13.277  0.9713  0.5400 -1.7139
   8023SM   C3S10584   6.352   2.177  13.261  0.0576 -0.1542 -0.6703
   8023SM   H3S10585   6.365   2.287  13.259  0.4374 -0.1268  1.2722
   8023SM    O310586   6.251   2.155  13.362  0.1325  0.3933  0.3393
   8023SM   HO310587   6.301   2.097  13.420  0.2326 -0.3377 -0.4705
   8023SM   C4S10588   6.313   2.133  13.124 -0.5697  0.5976 -0.7461
   8023SM   H4S10589   6.368   2.186  13.045 -2.7840  4.2015 -0.1036
   8023SM   C5S10590   6.229   2.039  13.090 -0.0323 -0.4218 -0.0968
   8023SM   H5S10591   6.166   1.993  13.167  0.0723 -1.8497 -0.8142
   8023SM   C6S10592   6.191   1.993  12.949 -0.0968  0.0124  0.1744
   8023SM   H6S10593   6.084   2.011  12.922 -0.2321 -0.1123  0.6037
   8023SM   H6T10594   6.190   1.882  12.951  1.7450 -0.1299  4.5490
   8023SM   C7S10595   6.273   2.066  12.838 -0.4048  0.8398  0.1841
   8023SM   H7S10596   6.376   2.028  12.824 -0.7510  0.4769 -1.5921
   8023SM   H7T10597   6.278   2.174  12.865 -0.6233  0.7761  0.4869
   8023SM   C8S10598   6.212   2.046  12.700  0.0368  1.2008 -0.1663
   8023SM   H8S10599   6.108   2.083  12.691  0.0718  0.9214 -2.0089
   8023SM   H8T10600   6.218   1.936  12.690 -0.0160  1.3181 -1.5988
   8023SM   C9S10601   6.298   2.103  12.591  0.5138 -0.2150 -0.1529
   8023SM   H9S10602   6.405   2.083  12.613 -0.0016 -3.8540 -0.3429
   8023SM   H9T10603   6.283   2.213  12.578 -0.3418 -0.3639 -0.4812
   8023SM  C10S10604   6.256   2.045  12.452  0.3703 -0.1114 -0.6686
   8023SM  H10S10605   6.150   2.074  12.431  0.5843  0.5626 -0.8260
   8023SM  H10T10606   6.244   1.935  12.462  1.1106 -0.2656 -1.4022
   8023SM  C11S10607   6.342   2.084  12.330 -0.1000 -0.1188 -0.1163
   8023SM  H11S10608   6.432   2.019  12.329 -1.9920 -3.0942 -3.6102
   8023SM  H11T10609   6.365   2.193  12.325  0.9873 -0.3153  0.4412
   8023SM  C12S10610   6.272   2.056  12.192 -0.1393 -0.1377  0.1730
   8023SM  H12S10611   6.175   2.106  12.173  0.5756  0.8360 -1.0950
   8023SM  H12T10612   6.255   1.947  12.205  0.3922  0.1056  3.7386
   8023SM  C13S10613   6.353   2.094  12.069 -0.2507 -0.2349 -0.5292
   8023SM  H13S10614   6.447   2.037  12.054  1.2067  1.2731  2.0521
   8023SM  H13T10615   6.383   2.200  12.080  0.1646 -0.1929 -1.8676
   8023SM  C14S10616   6.272   2.098  11.938  0.6400 -0.3639 -0.1236
   8023SM  H14S10617   6.190   2.172  11.950  0.0118 -1.1936  0.7885
   8023SM  H14T10618   6.217   2.003  11.922  0.0263 -0.6102  2.9174
   8023SM  C15S10619   6.366   2.126  11.814  0.1595  0.7578 -0.5785
   8023SM  H15S10620   6.431   2.037  11.805  0.3283  0.7246  0.7297
   8023SM  H15T10621   6.433   2.209  11.846 -0.7541  0.9901  0.8547
   8023SM  C16S10622   6.302   2.149  11.675 -0.2071  0.2202 -0.3172
   8023SM  H16S10623   6.224   2.072  11.654  0.8683 -0.5140 -1.7407
   8023SM  H16T10624   6.384   2.125  11.604 -0.0198  1.4016 -0.5235
   8023SM  C17S10625   6.243   2.288  11.644 -0.2231 -0.2261  0.0820
   8023SM  H17S10626   6.324   2.363  11.658  0.4897 -0.3804 -2.6639
   8023SM  H17T10627   6.165   2.305  11.721  1.1407  1.5206  1.1584
   8023SM  C18S10628   6.181   2.297  11.499 -0.2254  0.3416 -0.7727
   8023SM  H18S10629   6.102   2.218  11.502 -1.0234  1.1442 -0.0688
   8023SM  H18T10630   6.244   2.287  11.408  0.2629  0.1696 -0.4168
   8023SM  H18U10631   6.142   2.399  11.479 -0.9514  0.3111  0.3601
   8023SM   C1F10632   6.715   2.105  13.187 -0.1054  0.3310  0.4460
   8023SM    OF10633   6.736   1.994  13.232 -0.2361  0.6394 -0.3547
   8023SM   C2F10634   6.809   2.178  13.106 -0.0939  0.6138  0.2235
   8023SM   H2F10635   6.888   2.214  13.174  0.0737  0.6459  0.0134
   8023SM   H2G10636   6.748   2.256  13.056  0.2335 -0.8877 -2.7719
   8023SM   C3F10637   6.871   2.098  12.989 -0.0013  0.4058  0.2921
   8023SM   H3F10638   6.935   2.013  13.022 -0.9366 -1.7996 -3.0029
   8023SM   H3G10639   6.946   2.167  12.944  1.9928 -0.5508  1.9443
   8023SM   C4F10640   6.766   2.050  12.876 -0.2963 -0.3229 -0.0560
   8023SM   H4F10641   6.688   2.129  12.872  1.7126  1.7343 -1.0688
   8023SM   H4G10642   6.718   1.956  12.910 -1.6614  0.0531 -0.8679
   8023SM   C5F10643   6.834   2.033  12.740  0.2848 -0.3524 -0.2632
   8023SM   H5F10644   6.915   1.959  12.758  0.8569  0.0659 -1.0850
   8023SM   H5G10645   6.881   2.131  12.718 -1.0917  0.4424  0.2326
   8023SM   C6F10646   6.738   1.995  12.626  0.1039 -0.1781  0.0636
   8023SM   H6F10647   6.651   2.064  12.620  0.1421 -0.0236  1.0978
   8023SM   H6G10648   6.691   1.898  12.652 -2.2431  0.6391 -0.9105
   8023SM   C7F10649   6.823   1.986  12.498  0.9794  0.3535  0.6063
   8023SM   H7F10650   6.898   1.907  12.524 -0.5454 -1.4162 -0.1285
   8023SM   H7G10651   6.864   2.088  12.486  0.7307  0.3710 -0.2051
   8023SM   C8F10652   6.731   1.935  12.388  0.9262 -0.1212  1.3038
   8023SM   H8F10653   6.639   1.995  12.377  1.5695  0.6218 -0.3336
   8023SM   H8G10654   6.703   1.830  12.414  0.5753 -1.4520 -3.4522
   8023SM   C9F10655   6.805   1.945  12.246 -0.1444  0.9873 -0.1588
   8023SM   H9F10656   6.873   1.857  12.244 -1.9690 -0.4951 -0.9673
   8023SM   H9G10657   6.866   2.037  12.247  1.8442 -0.2439 -1.9072
   8023SM  C10F10658   6.711   1.932  12.125  0.3458 -0.1197  0.0840
   8023SM  H10F10659   6.654   2.026  12.110  1.8392  0.7073 -0.6142
   8023SM  H10G10660   6.639   1.851  12.150  0.3922  0.1193  1.0302
   8023SM  C11F10661   6.775   1.898  11.994  0.1471 -0.3289 -0.1928
   8023SM  H11F10662   6.722   1.811  11.949 -0.7099 -0.4761  1.0551
   8023SM  H11G10663   6.883   1.873  12.005  0.1491 -1.4432 -2.1741
   8023SM  C12F10664   6.773   2.017  11.889  0.2629  0.4242 -0.2611
   8023SM  H12F10665   6.821   2.105  11.938 -1.2781  0.8085  0.6018
   8023SM  H12G10666   6.669   2.035  11.856  0.7338 -0.6647 -2.5780
   8023SM  C13F10667   6.857   1.980  11.765  0.0190 -0.0372 -0.6655
   8023SM  H13F10668   6.805   1.892  11.722 -2.6996  1.4218 -0.5814
   8023SM  H13G10669   6.959   1.956  11.802  0.4750  0.9129 -1.2806
   8023SM  C14F10670   6.867   2.095  11.660 -0.0857  0.4738 -0.0838
   8023SM  H14F10671   6.889   2.194  11.705 -2.3670  0.9536  0.1234
   8023SM  H14G10672   6.762   2.112  11.627 -1.1643  0.6431  3.0768
   8023SM  C15F10673   6.979   2.063  11.564  0.2303  0.2209 -0.0024
   8023SM  H15F10674   6.988   1.956  11.536  0.7747  0.0136  0.9048
   8023SM  H15G10675   7.076   2.084  11.613  0.8779 -1.8975 -0.2703
   8023SM  C16F10676   6.977   2.161  11.449 -0.1440 -0.2644  0.4253
   8023SM  H16F10677   6.954   2.265  11.481  2.3227  0.6531 -0.4933
   8023SM  H16G10678   6.892   2.144  11.380 -0.4546  2.2243  0.1032
   8023SM  C17F10679   7.098   2.149  11.363 -0.1072 -0.1685  0.2568
   8023SM  H17F10680   7.099   2.039  11.348 -0.5668 -0.0853 -0.3851
   8023SM  H17G10681   7.187   2.184  11.420  1.6621 -1.0527 -1.8223
   8023SM  C18F10682   7.085   2.235  11.236  0.6392 -0.2744 -0.7602
   8023SM  H18F10683   7.081   2.340  11.270  0.4485 -0.6891  0.5552
   8023SM  H18G10684   6.986   2.212  11.190  0.6101 -1.5258 -0.1417
   8023SM  C19F10685   7.204   2.229  11.157 -0.7979 -0.3069  1.0451
   8023SM  H19F10686   7.237   2.123  11.149 -2.6349 -0.8111 -1.0459
   8023SM  H19G10687   7.290   2.280  11.206 -0.2074 -2.2249  2.1185
   8023SM  C20F10688   7.187   2.308  11.024 -0.4776  0.0744  0.8402
   8023SM  H20F10689   7.165   2.416  11.040 -0.2952  0.7504 -2.7043
   8023SM  H20G10690   7.105   2.276  10.956 -0.9082 -0.1233  1.4467
   8023SM  C21F10691   7.317   2.290  10.939 -0.1674  0.2513  0.1130
   8023SM  H21F10692   7.329   2.181  10.919  1.2923  0.6868 -1.6102
   8023SM  H21G10693   7.396   2.340  10.999  0.6771  0.5918 -1.2443
   8023SM  C22F10694   7.305   2.344  10.797  0.1598 -0.2771  0.3479
   8023SM  H22F10695   7.292   2.454  10.801  0.2869 -0.2842  1.2573
   8023SM  H22G10696   7.212   2.307  10.749 -0.0074  1.4219 -0.7297
   8023SM  C23F10697   7.427   2.295  10.708 -0.3870  0.4342  0.1618
   8023SM  H23F10698   7.404   2.188  10.690 -0.4775 -0.1111  3.0866
   8023SM  H23G10699   7.525   2.301  10.761 -0.2934  0.3308  0.0031
   8023SM  H23H10700   7.434   2.348  10.610  0.6985  2.0272  1.0547
   8123SM     N10701   3.477   5.286   8.425 -0.2108  0.0317 -0.1519
   8123SM   C1510702   3.553   5.264   8.301 -0.4143 -0.2200  0.0957
   8123SM  H15A10703   3.491   5.217   8.226 -0.1324  0.7739 -0.7695
   8123SM  H15B10704   3.649   5.216   8.317  1.4738  2.2024 -2.8968
   8123SM  H15C10705   3.579   5.356   8.252  1.4387 -0.2272  0.9873
   8123SM   C1410706   3.532   5.404   8.495 -0.0641 -0.6126  0.4203
   8123SM  H14A10707   3.534   5.486   8.425 -0.0333 -0.1804  0.9263
   8123SM  H14B10708   3.630   5.389   8.537  0.1364 -0.1411  0.1247
   8123SM  H14C10709   3.465   5.432   8.575  1.2111  1.9574  0.6845
   8123SM   C1310710   3.333   5.332   8.386  0.0862 -0.4343  0.0001
   8123SM  H13A10711   3.347   5.415   8.318  2.9290 -1.4754 -0.8247
   8123SM  H13B10712   3.283   5.374   8.472  0.3574 -0.5181  0.2006
   8123SM  H13C10713   3.279   5.247   8.345 -1.1328  0.0708  0.5254
   8123SM   C1210714   3.479   5.163   8.517 -0.0762  0.4118 -0.8479
   8123SM  H12A10715   3.454   5.075   8.460 -2.6337 -1.4853  2.7973
   8123SM  H12B10716   3.401   5.161   8.591  1.5884  0.3623  0.9893
   8123SM   C1110717   3.617   5.122   8.582 -0.2146  0.4636  0.8863
   8123SM  H11A10718   3.610   5.036   8.652  1.4343  0.4721  1.0985
   8123SM  H11B10719   3.652   5.206   8.646  2.4633  2.2054 -2.5280
   8123SM     P10720   3.863   5.148   8.509  0.8020 -0.0786  0.0020
   8123SM   O1310721   3.948   5.077   8.608  0.0935 -0.2490 -0.4635
   8123SM   O1410722   3.927   5.176   8.379  0.0088 -0.5229 -0.0463
   8123SM   O1110723   3.836   5.296   8.562 -0.3656 -0.4777  0.6972
   8123SM   O1210724   3.719   5.096   8.487 -0.0968 -0.5773  0.1710
   8123SM   C1S10725   3.931   5.407   8.547  0.0783  0.1820 -0.4581
   8123SM   H1S10726   3.903   5.474   8.463  1.0003 -0.5110 -1.3262
   8123SM   H1T10727   4.033   5.364   8.535 -0.2288 -0.9166  0.6217
   8123SM    NF10728   4.036   5.611   8.642  0.3860  0.1266 -0.3543
   8123SM   HNF10729   4.118   5.613   8.698 -0.5888 -2.2965  1.3192
   8123SM   C2S10730   3.938   5.505   8.670  0.7965  0.0482  0.3771
   8123SM   H2S10731   3.841   5.558   8.666  0.4645 -0.5564  0.3893
   8123SM   C3S10732   3.933   5.430   8.807 -1.0325 -0.0635  0.7991
   8123SM   H3S10733   4.034   5.383   8.800 -1.5186 -0.8485 -2.3497
   8123SM    O310734   3.847   5.322   8.815  0.3665 -0.2278 -0.2545
   8123SM   HO310735   3.802   5.334   8.731 -0.0921 -0.1134  0.0045
   8123SM   C4S10736   3.922   5.526   8.921  0.2484  0.4177  0.0092
   8123SM   H4S10737   3.846   5.603   8.900  0.0331  0.5003  1.0514
   8123SM   C5S10738   3.982   5.526   9.041  0.0365  0.1145  0.4950
   8123SM   H5S10739   4.069   5.458   9.048 -1.1748 -1.4555  1.0279
   8123SM   C6S10740   3.948   5.618   9.147  0.2610  0.0042 -0.7479
   8123SM   H6S10741   3.885   5.703   9.113  0.3836 -0.5585 -2.4545
   8123SM   H6T10742   4.041   5.668   9.182 -0.2768 -0.2993  1.2249
   8123SM   C7S10743   3.885   5.541   9.268  0.2311 -0.4601 -0.7839
   8123SM   H7S10744   3.948   5.453   9.293  3.2477  2.3111  2.4000
   8123SM   H7T10745   3.785   5.508   9.232  0.4325 -1.1720 -0.7186
   8123SM   C8S10746   3.875   5.628   9.394 -0.0828  0.7534  0.1370
   8123SM   H8S10747   3.798   5.708   9.388 -1.0084 -0.0579  0.9425
   8123SM   H8T10748   3.975   5.671   9.415  1.0943 -1.4224 -0.7351
   8123SM   C9S10749   3.842   5.540   9.527  0.6360  0.6783 -0.5147
   8123SM   H9S10750   3.901   5.446   9.530  0.5805  0.6457 -0.4067
   8123SM   H9T10751   3.736   5.507   9.516  1.2491 -2.2864  1.2895
   8123SM  C10S10752   3.861   5.613   9.658  0.2007 -0.2830  0.3090
   8123SM  H10S10753   3.813   5.713   9.652 -0.3881 -0.6147 -0.9169
   8123SM  H10T10754   3.969   5.630   9.673  0.2130 -1.4375  1.6914
   8123SM  C11S10755   3.814   5.539   9.778 -0.6613  0.7578  0.1757
   8123SM  H11S10756   3.868   5.442   9.774  0.6701  1.5014 -0.2951
   8123SM  H11T10757   3.705   5.519   9.778 -0.4733 -0.3195 -0.2325
   8123SM  C12S10758   3.856   5.609   9.904 -0.2909  0.4863 -0.1603
   8123SM  H12S10759   3.816   5.712   9.910  0.3087  0.6552  1.7365
   8123SM  H12T10760   3.965   5.631   9.912 -0.1497  0.9869 -2.7336
   8123SM  C13S10761   3.818   5.537  10.027 -0.5836  0.6773  0.0055
   8123SM  H13S10762   3.850   5.432  10.010 -2.2848  0.2492 -0.7642
   8123SM  H13T10763   3.707   5.530  10.018 -0.6159  0.9133  0.1987
   8123SM  C14S10764   3.856   5.596  10.156 -0.4637 -0.2994 -0.0110
   8123SM  H14S10765   3.804   5.694  10.165 -1.4965 -1.0107  3.7408
   8123SM  H14T10766   3.962   5.627  10.169 -0.5723  0.0948 -0.0346
   8123SM  C15S10767   3.827   5.504  10.265  0.4385 -0.0580 -0.1925
   8123SM  H15S10768   3.891   5.415  10.245  1.5022  1.1771 -2.8024
   8123SM  H15T10769   3.718   5.483  10.270  0.3805  0.3689  0.5129
   8123SM  C16S10770   3.868   5.551  10.408  0.2208 -0.0636 -0.3369
   8123SM  H16S10771   3.793   5.625  10.444 -0.0824 -0.4662 -0.1210
   8123SM  H16T10772   3.961   5.610  10.395 -0.2577  1.2306  1.6609
   8123SM  C17S10773   3.874   5.435  10.509 -0.9168 -0.2610 -0.4992
   8123SM  H17S10774   3.964   5.371  10.494 -0.2451  0.6188 -0.3330
   8123SM  H17T10775   3.784   5.375  10.483 -1.5929  0.9840 -1.1008
   8123SM  C18S10776   3.884   5.476  10.656  0.3116 -0.7475  0.1224
   8123SM  H18S10777   3.845   5.580  10.666  0.7600 -0.5593 -0.0881
   8123SM  H18T10778   3.992   5.490  10.673  0.3350  0.1882 -0.7164
   8123SM  H18U10779   3.829   5.407  10.725 -0.0166 -1.9110 -1.2471
   8123SM   C1F10780   4.026   5.707   8.548 -0.4155  0.2973 -0.8792
   8123SM    OF10781   3.926   5.706   8.475  0.2348 -0.5562  0.2963
   8123SM   C2F10782   4.140   5.810   8.538  0.2409  0.5656 -0.4060
   8123SM   H2F10783   4.184   5.790   8.438  0.3834 -1.9000  0.0853
   8123SM   H2G10784   4.206   5.793   8.626 -0.0089 -0.0970 -0.3452
   8123SM   C3F10785   4.096   5.958   8.544 -0.1967 -0.3006 -0.4639
   8123SM   H3F10786   4.019   5.964   8.464  0.8785 -1.4335 -1.6390
   8123SM   H3G10787   4.170   6.028   8.500  0.7393 -0.3948  0.9180
   8123SM   C4F10788   4.054   6.009   8.682 -0.3925  0.2360  0.2446
   8123SM   H4F10789   3.987   5.940   8.738 -0.5373 -0.2981 -0.5712
   8123SM   H4G10790   3.980   6.091   8.665  0.6088  0.8067 -1.5811
   8123SM   C5F10791   4.183   6.058   8.762  0.5288 -0.3376 -0.0623
   8123SM   H5F10792   4.246   6.128   8.703 -1.5451  1.0321 -0.7397
   8123SM   H5G10793   4.247   5.976   8.801  2.6264  0.8763 -0.7792
   8123SM   C6F10794   4.137   6.124   8.894  0.5177 -0.6698 -0.5444
   8123SM   H6F10795   4.071   6.208   8.863 -1.1382 -0.5357  2.9153
   8123SM   H6G10796   4.224   6.168   8.946 -0.0857  0.1910 -0.2455
   8123SM   C7F10797   4.064   6.031   8.991 -0.1754  0.2318 -0.2986
   8123SM   H7F10798   4.112   5.932   8.974 -1.6771 -0.6447  0.3595
   8123SM   H7G10799   3.954   6.032   8.977 -0.0469 -0.6701 -1.5111
   8123SM   C8F10800   4.081   6.073   9.140  0.1464 -0.1484 -0.2772
   8123SM   H8F10801   4.033   6.173   9.136  1.5702  0.5218 -2.3757
   8123SM   H8G10802   4.187   6.100   9.161  0.0220 -0.2850  0.5362
   8123SM   C9F10803   4.014   5.995   9.252 -0.7323  0.1287  0.4644
   8123SM   H9F10804   4.023   5.889   9.219 -0.9103  0.4442 -0.6374
   8123SM   H9G10805   3.911   6.036   9.252 -0.8066 -0.0292  1.7516
   8123SM  C10F10806   4.090   6.030   9.379 -0.1064 -0.2059 -0.0235
   8123SM  H10F10807   4.096   6.141   9.377  0.2984 -0.1899  1.2076
   8123SM  H10G10808   4.193   5.987   9.383 -0.9314 -2.1921  1.0986
   8123SM  C11F10809   4.003   5.985   9.497  0.0251  0.6195 -0.7028
   8123SM  H11F10810   4.005   5.874   9.503  0.2467  0.6949  2.4182
   8123SM  H11G10811   3.897   6.017   9.484  0.0535  0.2457 -1.9574
   8123SM  C12F10812   4.049   6.037   9.638  0.6788  0.0520 -0.2914
   8123SM  H12F10813   4.045   6.147   9.644 -0.4036 -0.0523  1.3389
   8123SM  H12G10814   4.154   6.009   9.663 -0.3707 -1.7535  2.4900
   8123SM  C13F10815   3.969   5.982   9.761  0.1510 -0.0430  0.1903
   8123SM  H13F10816   4.001   5.876   9.771 -2.3362 -0.8587  0.3017
   8123SM  H13G10817   3.859   5.989   9.744  0.2214 -1.9938 -1.4554
   8123SM  C14F10818   4.003   6.053   9.896 -0.7583 -0.5283  0.2367
   8123SM  H14F10819   3.974   6.160   9.891 -0.7120 -0.3552  2.5615
   8123SM  H14G10820   4.114   6.047   9.898 -0.7564 -0.2964  1.3134
   8123SM  C15F10821   3.951   5.975  10.023 -0.0923  0.0181 -0.2761
   8123SM  H15F10822   3.978   5.868  10.016  1.5090  0.4081 -0.6725
   8123SM  H15G10823   3.841   5.991  10.031  0.4128  5.0370 -0.2087
   8123SM  C16F10824   4.023   6.034  10.150  0.0993  0.0941 -0.7012
   8123SM  H16F10825   4.011   6.144  10.140 -0.5318  0.1954  0.9621
   8123SM  H16G10826   4.132   6.011  10.150 -0.3064 -2.0453 -0.4879
   8123SM  C17F10827   3.969   5.974  10.278 -0.5058  0.0906 -0.2451
   8123SM  H17F10828   3.988   5.864  10.274 -0.0843  0.1403  0.4351
   8123SM  H17G10829   3.859   5.989  10.277 -0.4958  0.1956  0.3506
   8123SM  C18F10830   4.032   6.036  10.397 -0.0731  0.2554 -0.1597
   8123SM  H18F10831   3.999   6.142  10.385 -2.2294 -0.4362 -0.8815
   8123SM  H18G10832   4.142   6.032  10.407 -0.2598  0.1029  2.4648
   8123SM  C19F10833   3.984   5.986  10.535  0.2353 -0.9985  0.8832
   8123SM  H19F10834   4.018   5.880  10.536 -0.7327 -1.3514 -0.5067
   8123SM  H19G10835   3.873   5.984  10.537  0.1602  0.8066  0.3100
   8123SM  C20F10836   4.033   6.069  10.645  0.4559 -0.2263 -0.1329
   8123SM  H20F10837   4.144   6.062  10.633  0.4982 -1.0066  0.6054
   8123SM  H20G10838   3.999   6.023  10.740  0.0231  0.6601  0.1527
   8123SM  C21F10839   3.986   6.214  10.652 -0.2210  0.0957 -0.5198
   8123SM  H21F10840   3.879   6.214  10.622 -0.3248 -1.3909 -0.2112
   8123SM  H21G10841   4.041   6.268  10.572 -1.2606  2.1302  0.0722
   8123SM  C22F10842   4.020   6.285  10.785 -0.7697 -0.1926  0.1159
   8123SM  H22F10843   4.106   6.237  10.838 -0.4462 -0.1140 -0.3330
   8123SM  H22G10844   3.934   6.290  10.855  0.3922 -0.6798  1.6552
   8123SM  C23F10845   4.065   6.432  10.759  0.2069 -0.7963 -1.0799
   8123SM  H23F10846   4.077   6.489  10.853  1.0112 -0.2576 -1.5019
   8123SM  H23G10847   3.993   6.480  10.689  0.1056 -1.6316 -1.5672
   8123SM  H23H10848   4.165   6.433  10.712  0.2058  1.3054 -1.1252
   8223SM     N10849   3.281   6.601   8.061 -0.5100 -0.6165  0.4193
   8223SM   C1510850   3.173   6.599   7.962 -0.3254  0.4395 -0.0048
   8223SM  H15A10851   3.087   6.547   8.000 -0.1551 -0.5235 -0.8993
   8223SM  H15B10852   3.208   6.553   7.870 -0.3690  0.0099  0.1958
   8223SM  H15C10853   3.135   6.698   7.941 -0.8745  0.8942  2.7819
   8223SM   C1410854   3.412   6.646   8.000 -0.4232  0.5740  0.8367
   8223SM  H14A10855   3.413   6.745   7.956  0.3348  1.3305  2.4574
   8223SM  H14B10856   3.444   6.575   7.925  1.9151  0.8560  1.4803
   8223SM  H14C10857   3.496   6.640   8.069 -1.0393 -1.0782  1.4882
   8223SM   C1310858   3.251   6.705   8.158  0.0439  0.3071  0.0019
   8223SM  H13A10859   3.224   6.798   8.111  0.3503  1.4249  1.9192
   8223SM  H13B10860   3.341   6.706   8.218  1.0657 -0.3709 -1.4579
   8223SM  H13C10861   3.169   6.673   8.221  0.0570 -1.1103 -0.6749
   8223SM   C1210862   3.300   6.466   8.124 -0.4782 -0.1620 -0.6325
   8223SM  H12A10863   3.316   6.392   8.046  2.7722 -0.7682  0.4460
   8223SM  H12B10864   3.216   6.439   8.186 -0.2084  0.7042  0.1182
   8223SM   C1110865   3.421   6.446   8.216  0.0859 -0.2718 -0.0230
   8223SM  H11A10866   3.403   6.352   8.273 -0.3713 -0.4883 -0.5226
   8223SM  H11B10867   3.423   6.531   8.288 -1.5033 -0.1794 -0.0501
   8223SM     P10868   3.686   6.464   8.222 -0.0468  0.0580 -0.0631
   8223SM   O1310869   3.770   6.342   8.210 -0.3562  0.4680 -0.3624
   8223SM   O1410870   3.750   6.584   8.162  0.4391 -0.2971 -0.0624
   8223SM   O1110871   3.653   6.495   8.378  0.1531 -0.2669 -0.7298
   8223SM   O1210872   3.547   6.436   8.146  0.4910 -0.7844  0.0042
   8223SM   C1S10873   3.630   6.385   8.464  0.4317  0.1446  0.1766
   8223SM   H1S10874   3.619   6.285   8.418 -1.1657  0.8616 -1.0988
   8223SM   H1T10875   3.539   6.397   8.526 -0.0801 -1.9984 -0.0668
   8223SM    NF10876   3.725   6.259   8.657 -0.2618 -0.4791 -0.1470
   8223SM   HNF10877   3.697   6.277   8.751 -0.9961 -1.1685 -0.2154
   8223SM   C2S10878   3.745   6.372   8.573  0.2868 -0.5884 -0.3200
   8223SM   H2S10879   3.837   6.359   8.511  1.2366  1.7101  0.4891
   8223SM   C3S10880   3.770   6.509   8.654 -0.2684  0.1783  0.1385
   8223SM   H3S10881   3.673   6.528   8.705  0.3838  1.1149  1.1070
   8223SM    O310882   3.780   6.625   8.576  0.0332 -0.0659  0.2662
   8223SM   HO310883   3.753   6.593   8.490  1.9755 -0.7086 -0.1592
   8223SM   C4S10884   3.881   6.506   8.759 -0.3051  0.6803  0.2554
   8223SM   H4S10885   3.838   6.493   8.859  0.2859 -0.1490  0.4144
   8223SM   C5S10886   4.019   6.525   8.756  0.0461  0.4660  0.3885
   8223SM   H5S10887   4.068   6.539   8.658 -1.0344 -0.2372 -0.2761
   8223SM   C6S10888   4.108   6.535   8.877  0.2814  0.7139  0.1039
   8223SM   H6S10889   4.134   6.643   8.881  1.5850  0.4164  0.0546
   8223SM   H6T10890   4.197   6.469   8.870 -1.6835 -2.2551  0.9443
   8223SM   C7S10891   4.044   6.495   9.015  0.0805 -0.0585  0.9748
   8223SM   H7S10892   3.973   6.409   9.009 -0.0766  0.1094  0.3891
   8223SM   H7T10893   3.995   6.591   9.043  0.6827  1.0980 -1.6124
   8223SM   C8S10894   4.143   6.460   9.124 -0.1447 -0.6117 -0.9904
   8223SM   H8S10895   4.234   6.523   9.122  1.4418 -2.6332  1.4705
   8223SM   H8T10896   4.186   6.360   9.103 -0.6844 -1.2931  0.9199
   8223SM   C9S10897   4.074   6.449   9.258  0.2962 -0.0186 -0.2477
   8223SM   H9S10898   4.001   6.366   9.248 -1.8647  1.3051  2.7928
   8223SM   H9T10899   4.016   6.541   9.278 -1.2396 -0.8810 -0.5351
   8223SM  C10S10900   4.177   6.424   9.363  0.1257  0.4436 -0.7196
   8223SM  H10S10901   4.252   6.505   9.365  1.7320 -0.9716 -1.7183
   8223SM  H10T10902   4.231   6.328   9.356  2.0615  1.4471 -0.1638
   8223SM  C11S10903   4.101   6.419   9.499 -0.2269 -0.0597 -0.4750
   8223SM  H11S10904   4.031   6.333   9.506 -0.3191 -0.0684 -1.4071
   8223SM  H11T10905   4.025   6.501   9.499  0.4490  0.5752 -0.7674
   8223SM  C12S10906   4.180   6.451   9.628  1.1433 -0.2208 -0.6725
   8223SM  H12S10907   4.224   6.552   9.612 -0.5465  0.7943  0.7518
   8223SM  H12T10908   4.260   6.379   9.657  1.0425  0.9095  2.9135
   8223SM  C13S10909   4.076   6.475   9.742  0.1971 -0.2042 -0.5407
   8223SM  H13S10910   4.015   6.385   9.765  3.0366 -2.3479 -0.7129
   8223SM  H13T10911   4.026   6.570   9.714 -1.4393 -0.8947 -0.0544
   8223SM  C14S10912   4.146   6.499   9.872 -0.6612  0.6366 -0.1391
   8223SM  H14S10913   4.227   6.574   9.857 -0.3116  0.4742  0.8339
   8223SM  H14T10914   4.204   6.408   9.900 -0.4518 -0.0402 -2.5346
   8223SM  C15S10915   4.051   6.530   9.990  0.3910  0.1076  0.3209
   8223SM  H15S10916   3.998   6.434  10.005  0.7030 -0.2402 -0.7216
   8223SM  H15T10917   3.982   6.610   9.955  1.7488  1.4114  0.4883
   8223SM  C16S10918   4.118   6.586  10.121 -0.3841 -0.0120 -0.1369
   8223SM  H16S10919   4.137   6.695  10.111 -1.2097  0.3695  1.8648
   8223SM  H16T10920   4.213   6.530  10.134  0.7770  2.1932  1.6962
   8223SM  C17S10921   4.029   6.575  10.246  0.0784 -0.0069  0.1196
   8223SM  H17S10922   3.997   6.471  10.267 -0.7026  0.0636 -0.6406
   8223SM  H17T10923   3.932   6.614  10.208  0.1984 -2.9467 -3.8308
   8223SM  C18S10924   4.084   6.640  10.375 -0.6160  0.4696 -0.9853
   8223SM  H18S10925   4.185   6.595  10.386 -1.8046 -2.7876 -2.0963
   8223SM  H18T10926   4.027   6.611  10.465 -0.9344  0.2803 -1.2442
   8223SM  H18U10927   4.097   6.750  10.372 -0.1607  0.4125 -1.2263
   8223SM   C1F10928   3.723   6.134   8.624  0.3390 -0.1493  0.0431
   8223SM    OF10929   3.764   6.098   8.514 -0.5956  0.1013  0.6724
   8223SM   C2F10930   3.659   6.037   8.720  0.3851  0.4375 -0.3474
   8223SM   H2F10931   3.549   6.041   8.705  0.0150  0.4414  1.9835
   8223SM   H2G10932   3.690   6.070   8.822  3.5568 -0.4590 -0.9102
   8223SM   C3F10933   3.686   5.890   8.699 -0.0174 -0.2873 -0.3093
   8223SM   H3F10934   3.797   5.878   8.696  0.0520  0.3076 -0.2500
   8223SM   H3G10935   3.649   5.853   8.601 -1.3139  0.9838 -0.3213
   8223SM   C4F10936   3.634   5.802   8.817  0.9104  0.0990 -0.5435
   8223SM   H4F10937   3.687   5.705   8.827  0.9300  0.1300 -0.3576
   8223SM   H4G10938   3.529   5.776   8.790  0.4346  0.0277  1.2404
   8223SM   C5F10939   3.644   5.866   8.954 -0.2706  0.0307 -1.0048
   8223SM   H5F10940   3.589   5.963   8.957 -1.0611 -0.3827 -1.7303
   8223SM   H5G10941   3.749   5.899   8.970 -0.3743 -0.8065  2.1599
   8223SM   C6F10942   3.590   5.777   9.061  0.5127 -0.7398 -0.4132
   8223SM   H6F10943   3.644   5.680   9.057  3.0674  0.6193 -0.9038
   8223SM   H6G10944   3.481   5.759   9.047  0.1695  0.3204  0.6726
   8223SM   C7F10945   3.591   5.851   9.195 -0.3025 -0.0712  0.7977
   8223SM   H7F10946   3.527   5.940   9.182  0.2844  0.0104 -2.5152
   8223SM   H7G10947   3.694   5.883   9.220  0.4543 -1.8222  0.0823
   8223SM   C8F10948   3.540   5.769   9.316 -0.0037 -0.5639  0.1758
   8223SM   H8F10949   3.586   5.668   9.316 -1.1908 -1.1950 -2.9234
   8223SM   H8G10950   3.433   5.738   9.315 -0.5980  1.3542 -0.4594
   8223SM   C9F10951   3.563   5.860   9.440 -0.1547  0.1232 -0.4200
   8223SM   H9F10952   3.492   5.945   9.429 -0.3009  0.0248 -0.2246
   8223SM   H9G10953   3.664   5.906   9.439  0.5800 -1.3282  1.5141
   8223SM  C10F10954   3.549   5.780   9.572 -0.1594 -0.6274 -0.6757
   8223SM  H10F10955   3.636   5.711   9.569 -1.0667 -1.8570  0.4554
   8223SM  H10G10956   3.452   5.731   9.554 -2.5034  2.9426  1.0761
   8223SM  C11F10957   3.537   5.866   9.696 -0.1311 -0.3159  0.6728
   8223SM  H11F10958   3.459   5.945   9.688 -0.7951 -1.1267 -2.0867
   8223SM  H11G10959   3.638   5.912   9.702 -0.7101  1.2323 -0.6679
   8223SM  C12F10960   3.512   5.786   9.821  0.3705  0.8151 -0.2954
   8223SM  H12F10961   3.600   5.720   9.834 -1.6620 -1.9643  0.0767
   8223SM  H12G10962   3.414   5.738   9.800 -0.1976  2.6069 -2.0879
   8223SM  C13F10963   3.499   5.874   9.948 -0.5256  0.3035  0.9262
   8223SM  H13F10964   3.423   5.953   9.930 -1.1986 -0.5702 -0.1821
   8223SM  H13G10965   3.589   5.935   9.970 -0.1665 -0.8485  2.9550
   8223SM  C14F10966   3.450   5.809  10.081 -0.0055 -0.5927  0.3806
   8223SM  H14F10967   3.523   5.734  10.118 -1.3519 -0.8419  2.7641
   8223SM  H14G10968   3.351   5.761  10.063 -0.1990 -0.0309 -0.0574
   8223SM  C15F10969   3.446   5.910  10.196 -0.2665  0.4101  1.1244
   8223SM  H15F10970   3.350   5.967  10.195  0.7588  2.2706  2.6430
   8223SM  H15G10971   3.532   5.980  10.193  0.0218  0.0235 -0.4402
   8223SM  C16F10972   3.464   5.834  10.325  0.1840 -0.4186  0.5319
   8223SM  H16F10973   3.562   5.781  10.325 -0.0394 -0.8572 -0.5014
   8223SM  H16G10974   3.390   5.751  10.327  2.8269 -2.9211  0.7445
   8223SM  C17F10975   3.448   5.907  10.464 -0.2217 -0.7096  0.5399
   8223SM  H17F10976   3.338   5.913  10.482 -0.4264 -1.5578 -0.3498
   8223SM  H17G10977   3.500   6.005  10.453 -1.7078 -0.0641 -1.2915
   8223SM  C18F10978   3.524   5.835  10.574  0.7225 -0.2180  0.1738
   8223SM  H18F10979   3.631   5.816  10.555  0.9420 -0.8850  1.8503
   8223SM  H18G10980   3.479   5.734  10.585  0.5736 -0.0359  1.4957
   8223SM  C19F10981   3.496   5.899  10.713 -0.5587 -0.6927  0.0297
   8223SM  H19F10982   3.533   5.817  10.778 -3.2290 -1.5995  0.5232
   8223SM  H19G10983   3.393   5.933  10.736 -0.2982  1.6407 -1.8658
   8223SM  C20F10984   3.576   6.029  10.730  0.3368  0.2260  0.0446
   8223SM  H20F10985   3.537   6.106  10.660 -0.4894 -0.6740 -0.4959
   8223SM  H20G10986   3.682   6.007  10.704  0.5501  1.5887 -0.3267
   8223SM  C21F10987   3.562   6.094  10.872  0.1029 -0.0952 -0.5817
   8223SM  H21F10988   3.630   6.182  10.862 -2.8106  2.4028  0.1666
   8223SM  H21G10989   3.596   6.021  10.949  0.3647  0.9844  0.3570
   8223SM  C22F10990   3.421   6.148  10.905  0.0023 -0.7683  0.1043
   8223SM  H22F10991   3.351   6.062  10.919 -3.0212  1.7589  1.7946
   8223SM  H22G10992   3.387   6.203  10.814  4.3749  1.1624 -0.6076
   8223SM  C23F10993   3.414   6.216  11.039  0.2234  0.2460  0.0019
   8223SM  H23F10994   3.450   6.139  11.111  2.8940  1.2820 -0.1274
   8223SM  H23G10995   3.311   6.246  11.070  0.3053 -0.7001  1.3027
   8223SM  H23H10996   3.480   6.305  11.031  0.9758 -0.3963 -1.1575
   8323SM     N10997   4.278   5.019   8.420  0.1521  0.3025 -0.2539
   8323SM   C1510998   4.241   5.020   8.565 -0.6310 -0.3415 -0.0126
   8323SM  H15A10999   4.134   5.028   8.575 -0.5426  1.8460 -0.3282
   8323SM  H15B11000   4.288   5.093   8.630  0.5567 -0.4344 -0.7427
   8323SM  H15C11001   4.280   4.930   8.610  0.9775  1.2278  1.9861
   8323SM   C1411002   4.423   4.986   8.404 -0.3180  0.6256 -0.6183
   8323SM  H14A11003   4.479   5.074   8.429 -0.7447  0.7476 -0.0710
   8323SM  H14B11004   4.444   4.957   8.302 -0.1161  1.3043 -0.7719
   8323SM  H14C11005   4.448   4.905   8.471  0.0069  0.2585 -1.1742
   8323SM   C1311006   4.211   4.901   8.352  0.1499  0.4494 -0.0316
   8323SM  H13A11007   4.228   4.807   8.403 -0.0083  2.0387  3.2479
   8323SM  H13B11008   4.246   4.887   8.251  0.0303  0.8406 -0.1279
   8323SM  H13C11009   4.104   4.913   8.348  0.2107  0.6759 -2.5705
   8323SM   C1211010   4.246   5.150   8.348 -0.1000  0.1373  0.1930
   8323SM  H12A11011   4.139   5.160   8.339 -0.1862 -0.1170  0.8677
   8323SM  H12B11012   4.282   5.136   8.246  2.2143  1.7632  0.7067
   8323SM   C1111013   4.311   5.273   8.411  0.7575  0.0113 -0.2022
   8323SM  H11A11014   4.259   5.297   8.506  0.2862  1.2677 -0.7587
   8323SM  H11B11015   4.288   5.355   8.340 -0.5716 -0.1723 -0.0114
   8323SM     P11016   4.552   5.363   8.462 -0.4989  0.5375  0.3438
   8323SM   O1311017   4.676   5.289   8.496 -0.6031  0.2934  0.3182
   8323SM   O1411018   4.563   5.468   8.359  0.4621 -0.1566  0.1390
   8323SM   O1111019   4.501   5.429   8.601  0.1375  0.7291 -0.2950
   8323SM   O1211020   4.449   5.266   8.420  0.0904 -0.0814  0.1084
   8323SM   C1S11021   4.506   5.351   8.717 -0.2458  0.1755 -0.0303
   8323SM   H1S11022   4.600   5.293   8.723  0.1736  0.5122 -2.3581
   8323SM   H1T11023   4.426   5.273   8.716  1.3583 -1.5512  1.0860
   8323SM    NF11024   4.509   5.328   8.959 -0.6561  0.0634  0.6447
   8323SM   HNF11025   4.435   5.270   8.991  0.0854 -1.3139 -0.0293
   8323SM   C2S11026   4.483   5.427   8.847  0.2931  0.1543  0.7639
   8323SM   H2S11027   4.546   5.517   8.863 -0.6454  1.1022 -0.6937
   8323SM   C3S11028   4.337   5.482   8.859  0.4881  0.0217 -0.3767
   8323SM   H3S11029   4.271   5.393   8.855  0.9264 -0.4987  2.0602
   8323SM    O311030   4.295   5.570   8.754 -0.8543  0.1809 -0.1861
   8323SM   HO311031   4.371   5.567   8.696 -0.6680 -0.0561  0.0687
   8323SM   C4S11032   4.310   5.549   8.992  0.2702 -0.0333  0.0952
   8323SM   H4S11033   4.303   5.476   9.074  0.7220  0.0859  0.2435
   8323SM   C5S11034   4.314   5.682   9.015  0.3480 -0.1836 -0.7545
   8323SM   H5S11035   4.346   5.746   8.932  1.3996 -1.2780 -1.2211
   8323SM   C6S11036   4.301   5.750   9.153  0.5147 -0.0983  0.5370
   8323SM   H6S11037   4.195   5.773   9.177 -0.3787 -1.2248 -1.9995
   8323SM   H6T11038   4.357   5.845   9.160 -1.7472  1.4811 -1.2304
   8323SM   C7S11039   4.366   5.679   9.280 -0.1595 -0.7266 -0.3485
   8323SM   H7S11040   4.476   5.688   9.275 -0.0361  1.8322  3.4659
   8323SM   H7T11041   4.319   5.578   9.287 -1.5425 -0.1540 -0.9237
   8323SM   C8S11042   4.318   5.744   9.415 -0.1904  0.5357  0.2505
   8323SM   H8S11043   4.211   5.772   9.409  0.0039  1.0921 -0.8013
   8323SM   H8T11044   4.360   5.842   9.447  0.8684 -0.9251  3.7488
   8323SM   C9S11045   4.337   5.645   9.528  0.3593  0.1542 -0.0329
   8323SM   H9S11046   4.444   5.626   9.550  0.0854 -0.5172  0.7965
   8323SM   H9T11047   4.289   5.550   9.495  0.9482 -0.2943  0.3779
   8323SM  C10S11048   4.270   5.707   9.649  0.8903 -0.6877  0.3235
   8323SM  H10S11049   4.160   5.695   9.639  1.1181 -3.1937  0.3226
   8323SM  H10T11050   4.301   5.813   9.667 -1.6922  0.0789  0.6732
   8323SM  C11S11051   4.293   5.632   9.773 -0.7185  0.4414  0.4061
   8323SM  H11S11052   4.396   5.595   9.791 -1.0742  0.3859  2.6398
   8323SM  H11T11053   4.226   5.544   9.762 -1.5469  1.0255  0.6983
   8323SM  C12S11054   4.246   5.699   9.899  0.0025 -0.2908 -0.1675
   8323SM  H12S11055   4.140   5.732   9.890  0.3767  0.6780 -1.3114
   8323SM  H12T11056   4.303   5.794   9.911 -2.9070  1.6330 -0.6077
   8323SM  C13S11057   4.255   5.604  10.013  0.6716 -0.2456 -0.6424
   8323SM  H13S11058   4.354   5.554  10.017  1.3629  1.1793  1.7720
   8323SM  H13T11059   4.170   5.532  10.016 -0.5347  1.1144 -0.8888
   8323SM  C14S11060   4.255   5.684  10.147  0.9223  0.3741  0.4285
   8323SM  H14S11061   4.167   5.753  10.146 -0.6917 -1.5741  0.0682
   8323SM  H14T11062   4.343   5.751  10.154  0.7220  0.8891 -1.3681
   8323SM  C15S11063   4.244   5.591  10.271  0.8130  0.0115  0.7900
   8323SM  H15S11064   4.322   5.512  10.266 -1.0480 -1.8541 -0.5490
   8323SM  H15T11065   4.148   5.534  10.265 -1.0250  2.9656  0.1105
   8323SM  C16S11066   4.250   5.677  10.393 -0.0816  0.2786 -0.3127
   8323SM  H16S11067   4.156   5.736  10.403 -1.2937 -1.5218 -0.5056
   8323SM  H16T11068   4.335   5.747  10.403  1.0406 -1.2472  1.5117
   8323SM  C17S11069   4.254   5.589  10.521 -0.9848  0.4219 -0.9257
   8323SM  H17S11070   4.344   5.525  10.511 -0.5572  0.9099 -0.2523
   8323SM  H17T11071   4.166   5.521  10.514 -0.1609 -0.5226 -2.6484
   8323SM  C18S11072   4.261   5.670  10.652 -0.4089  0.6956  0.0641
   8323SM  H18S11073   4.173   5.736  10.663 -2.2277 -1.5829 -0.0412
   8323SM  H18T11074   4.348   5.738  10.640 -0.6162  0.7382 -1.3206
   8323SM  H18U11075   4.264   5.599  10.737  0.9737  0.7469  0.0798
   8323SM   C1F11076   4.628   5.306   9.010  0.1086  0.3304  0.3501
   8323SM    OF11077   4.734   5.344   8.954  0.0470 -0.1003  0.5334
   8323SM   C2F11078   4.626   5.218   9.128 -0.4529 -0.1319  0.1671
   8323SM   H2F11079   4.619   5.112   9.092 -2.8111 -0.3673  1.1368
   8323SM   H2G11080   4.531   5.238   9.183  0.3404 -1.5671  2.1735
   8323SM   C3F11081   4.747   5.249   9.226  0.0830  0.7375  0.3587
   8323SM   H3F11082   4.710   5.340   9.278 -0.3740  0.8555 -0.1669
   8323SM   H3G11083   4.846   5.277   9.184  0.6262  0.5480  1.4893
   8323SM   C4F11084   4.784   5.138   9.328  0.8781  0.1249  0.4606
   8323SM   H4F11085   4.810   5.045   9.273  2.6439  1.9492 -1.9940
   8323SM   H4G11086   4.691   5.111   9.384 -0.3942  0.9096 -1.1911
   8323SM   C5F11087   4.895   5.172   9.430  0.2154 -0.2757  0.3422
   8323SM   H5F11088   4.991   5.188   9.376  0.4072  0.8179  0.9840
   8323SM   H5G11089   4.913   5.088   9.500 -0.6208 -0.5653  0.2159
   8323SM   C6F11090   4.869   5.298   9.515 -0.0675  0.1260  0.7692
   8323SM   H6F11091   4.842   5.382   9.448  0.8573 -0.3317 -0.2061
   8323SM   H6G11092   4.966   5.333   9.556 -0.4647  2.2360  0.0154
   8323SM   C7F11093   4.767   5.282   9.632 -0.0618 -0.2696  0.2081
   8323SM   H7F11094   4.675   5.228   9.600  0.7802 -1.4276 -0.3581
   8323SM   H7G11095   4.748   5.381   9.678 -0.4504 -0.3704  0.2677
   8323SM   C8F11096   4.821   5.193   9.745  0.3424  0.4146  0.0039
   8323SM   H8F11097   4.929   5.214   9.758  0.3779 -1.3074  3.5814
   8323SM   H8G11098   4.808   5.087   9.716  1.1727  0.1454  0.5850
   8323SM   C9F11099   4.755   5.223   9.878  0.1055 -0.1647  0.0019
   8323SM   H9F11100   4.646   5.206   9.862 -0.6551  2.6633  1.3647
   8323SM   H9G11101   4.770   5.331   9.902  0.2313 -0.1737 -0.0382
   8323SM  C10F11102   4.804   5.129   9.989  1.0669  0.1656  1.0658
   8323SM  H10F11103   4.914   5.114   9.988  0.9965 -0.4434 -0.8203
   8323SM  H10G11104   4.759   5.030   9.965  0.5746  0.1500  2.0032
   8323SM  C11F11105   4.756   5.172  10.125 -0.1494  0.1679 -0.0314
   8323SM  H11F11106   4.796   5.100  10.200  1.7362  2.4131  1.2378
   8323SM  H11G11107   4.646   5.157  10.131 -0.0755 -0.4263 -0.1373
   8323SM  C12F11108   4.774   5.314  10.175  0.0220  0.5252 -0.1913
   8323SM  H12F11109   4.735   5.389  10.104 -2.8313 -1.3756 -0.7763
   8323SM  H12G11110   4.882   5.323  10.203 -0.5315  0.5560  2.1518
   8323SM  C13F11111   4.696   5.328  10.310  0.5880  0.1551 -0.6644
   8323SM  H13F11112   4.587   5.322  10.291  0.4337  2.0170 -0.5353
   8323SM  H13G11113   4.713   5.428  10.355  1.0054 -1.1788  2.3725
   8323SM  C14F11114   4.738   5.236  10.423 -0.9412  0.0682 -0.4900
   8323SM  H14F11115   4.848   5.246  10.423 -1.0235  1.0768  0.0131
   8323SM  H14G11116   4.701   5.132  10.407 -1.7143  0.2910 -0.1787
   8323SM  C15F11117   4.692   5.281  10.556  0.8391 -0.3907 -0.3822
   8323SM  H15F11118   4.723   5.388  10.559  2.2481 -0.8066  0.7223
   8323SM  H15G11119   4.742   5.223  10.636  1.8057  1.4949  0.4431
   8323SM  C16F11120   4.539   5.280  10.576 -0.1178  0.2519 -1.0412
   8323SM  H16F11121   4.514   5.172  10.580 -0.3215  0.3021 -0.9492
   8323SM  H16G11122   4.484   5.327  10.492  0.5260 -1.6062 -2.5726
   8323SM  C17F11123   4.492   5.344  10.712  0.0455  0.0736  0.4693
   8323SM  H17F11124   4.381   5.338  10.724 -0.3972  1.3581 -2.2260
   8323SM  H17G11125   4.527   5.449  10.704 -3.2816  1.3152  0.2895
   8323SM  C18F11126   4.568   5.265  10.824  0.4443  0.9003 -0.6290
   8323SM  H18F11127   4.676   5.283  10.805  0.8361 -1.4404 -0.9685
   8323SM  H18G11128   4.556   5.155  10.826  1.7326  0.7398  0.9707
   8323SM  C19F11129   4.532   5.302  10.973 -0.4979  0.1270 -0.0018
   8323SM  H19F11130   4.421   5.307  10.983 -0.5169 -1.0126  0.4526
   8323SM  H19G11131   4.568   5.405  10.994  0.7191 -0.4444  0.7765
   8323SM  C20F11132   4.585   5.208  11.084 -0.1828 -0.8814 -0.1680
   8323SM  H20F11133   4.547   5.106  11.061  0.0544 -1.5829  2.2786
   8323SM  H20G11134   4.549   5.245  11.182  0.2243 -0.9730  0.0150
   8323SM  C21F11135   4.733   5.202  11.097 -0.2116 -0.1376 -0.4877
   8323SM  H21F11136   4.775   5.303  11.118  1.9682 -0.7332 -1.6255
   8323SM  H21G11137   4.772   5.158  11.002 -0.0350 -3.4940  0.9990
   8323SM  C22F11138   4.791   5.108  11.201  0.1106 -0.6826 -0.1145
   8323SM  H22F11139   4.768   5.135  11.307 -2.6829 -2.2152 -0.2547
   8323SM  H22G11140   4.901   5.128  11.198 -0.4774  3.2439 -0.7240
   8323SM  C23F11141   4.772   4.966  11.168 -0.4525  0.7224 -0.2271
   8323SM  H23F11142   4.670   4.937  11.200 -0.0083 -1.7995 -0.9017
   8323SM  H23G11143   4.843   4.901  11.224 -1.3582  0.2706  0.4194
   8323SM  H23H11144   4.779   4.954  11.058  0.2121  0.8454 -0.1997
   8423SM     N11145   4.316   3.390   7.992 -0.1868 -0.4589 -0.6452
   8423SM   C1511146   4.353   3.444   7.860  0.2534 -0.0926  0.2574
   8423SM  H15A11147   4.272   3.447   7.787  0.5586 -0.5723 -0.1057
   8423SM  H15B11148   4.434   3.383   7.823  1.2482 -1.0523  3.7045
   8423SM  H15C11149   4.399   3.542   7.864 -1.0078  0.6580 -1.6516
   8423SM   C1411150   4.218   3.481   8.060 -0.2131  0.4637  0.2217
   8423SM  H14A11151   4.261   3.578   8.080  0.5780 -0.2750  2.3879
   8423SM  H14B11152   4.184   3.435   8.152  0.9622  0.8818  0.8982
   8423SM  H14C11153   4.130   3.502   8.001 -0.4243  0.8579  0.6633
   8423SM   C1311154   4.262   3.253   7.971  0.1531  0.1716 -0.2869
   8423SM  H13A11155   4.166   3.257   7.921  0.6981  1.6436 -1.2401
   8423SM  H13B11156   4.245   3.215   8.071  0.1179  0.2067 -0.2796
   8423SM  H13C11157   4.333   3.192   7.918  0.7418 -0.0918  0.7606
   8423SM   C1211158   4.448   3.380   8.071  0.5364  0.0004  0.5299
   8423SM  H12A11159   4.495   3.477   8.074  1.0424 -0.2573  0.8932
   8423SM  H12B11160   4.516   3.312   8.023  0.9935 -0.2219  1.4758
   8423SM   C1111161   4.450   3.339   8.221 -0.5243  0.5064  0.8138
   8423SM  H11A11162   4.553   3.340   8.262 -0.6474 -1.3586  1.2799
   8423SM  H11B11163   4.427   3.230   8.229 -0.0729  0.5192  2.7163
   8423SM     P11164   4.420   3.547   8.384  0.4431  0.1494 -0.4812
   8423SM   O1311165   4.546   3.602   8.320  0.6143 -0.0673 -0.3317
   8423SM   O1411166   4.304   3.641   8.400  0.3544  0.1872 -0.0147
   8423SM   O1111167   4.450   3.506   8.536  0.3600  0.3328  0.2423
   8423SM   O1211168   4.367   3.418   8.306  0.0126 -0.0588 -0.2315
   8423SM   C1S11169   4.369   3.396   8.584 -0.7344  0.0729  0.6075
   8423SM   H1S11170   4.404   3.298   8.547 -1.8082  0.2479 -0.9748
   8423SM   H1T11171   4.266   3.395   8.543  0.7207  1.6920 -3.6890
   8423SM    NF11172   4.261   3.282   8.783 -0.1288 -0.2922 -0.4439
   8423SM   HNF11173   4.170   3.308   8.813  0.6025  1.5194  0.3724
   8423SM   C2S11174   4.354   3.385   8.742 -0.2366  0.0767 -0.1180
   8423SM   H2S11175   4.457   3.358   8.772 -0.0063 -1.7445 -2.2300
   8423SM   C3S11176   4.333   3.530   8.808  0.6725  0.4898 -0.2165
   8423SM   H3S11177   4.232   3.569   8.781  0.2436 -0.1648  0.3996
   8423SM    O311178   4.411   3.632   8.755 -0.0071 -0.3141 -0.4865
   8423SM   HO311179   4.434   3.586   8.674  0.0426 -1.6835  0.2772
   8423SM   C4S11180   4.329   3.527   8.967 -0.2150 -0.0261  0.1550
   8423SM   H4S11181   4.245   3.471   9.011  0.2223  0.2453  1.3748
   8423SM   C5S11182   4.431   3.577   9.046  0.5580 -0.5726  0.1587
   8423SM   H5S11183   4.514   3.625   8.991 -0.4583 -0.0582 -0.9541
   8423SM   C6S11184   4.443   3.594   9.192  0.6253 -0.0121  0.0599
   8423SM   H6S11185   4.401   3.694   9.214 -1.8221 -0.9771  0.0980
   8423SM   H6T11186   4.548   3.580   9.225  0.0119 -2.1844  1.3422
   8423SM   C7S11187   4.350   3.505   9.273 -0.4417 -0.2937 -0.1482
   8423SM   H7S11188   4.373   3.398   9.255  2.8176  0.2542  0.1815
   8423SM   H7T11189   4.243   3.527   9.251 -1.3211 -3.6254  0.2902
   8423SM   C8S11190   4.358   3.545   9.418 -0.2111 -0.5265  0.6773
   8423SM   H8S11191   4.330   3.651   9.434 -0.2036 -0.1746 -1.3873
   8423SM   H8T11192   4.466   3.547   9.445 -0.5533 -1.0924  2.1638
   8423SM   C9S11193   4.282   3.450   9.514 -0.5655 -1.2701  0.0868
   8423SM   H9S11194   4.322   3.346   9.503  2.3448 -0.1538 -0.9730
   8423SM   H9T11195   4.178   3.461   9.477 -0.2658 -0.3102 -0.5013
   8423SM  C10S11196   4.285   3.505   9.659  0.0310  0.1544  0.0996
   8423SM  H10S11197   4.247   3.610   9.661  0.2964  0.2523  1.9517
   8423SM  H10T11198   4.394   3.498   9.678  0.3969  2.6065 -0.7962
   8423SM  C11S11199   4.205   3.420   9.761 -0.1321 -1.0801 -0.2930
   8423SM  H11S11200   4.235   3.314   9.754  0.0175 -0.9351 -2.5138
   8423SM  H11T11201   4.097   3.422   9.734 -0.3310 -0.0188  0.5034
   8423SM  C12S11202   4.225   3.470   9.909 -0.0754 -0.0312  0.1804
   8423SM  H12S11203   4.164   3.398   9.966 -0.7265  0.3347 -0.0480
   8423SM  H12T11204   4.193   3.576   9.919  0.5584 -0.0192  2.5830
   8423SM  C13S11205   4.371   3.452   9.967  0.1611  0.2827  0.1533
   8423SM  H13S11206   4.442   3.521   9.917  0.8490 -0.6444 -0.1883
   8423SM  H13T11207   4.410   3.351   9.939 -2.6072 -1.3871  1.8354
   8423SM  C14S11208   4.386   3.465  10.118 -0.0391  1.2432 -0.5811
   8423SM  H14S11209   4.394   3.574  10.141 -2.0502  1.5505 -1.1984
   8423SM  H14T11210   4.491   3.447  10.150 -0.5239  2.1093  1.6825
   8423SM  C15S11211   4.293   3.379  10.212 -0.1061 -0.2989 -0.6858
   8423SM  H15S11212   4.309   3.270  10.198  3.1876 -0.1529  1.0328
   8423SM  H15T11213   4.187   3.407  10.193  0.1074  0.8927 -0.2639
   8423SM  C16S11214   4.326   3.419  10.363 -0.4415 -0.5333  0.0995
   8423SM  H16S11215   4.326   3.531  10.367  1.5698 -0.4029 -1.8116
   8423SM  H16T11216   4.427   3.385  10.391 -0.0320  0.5773  0.0234
   8423SM  C17S11217   4.212   3.376  10.454 -0.3976 -0.3942  0.6503
   8423SM  H17S11218   4.156   3.286  10.418 -3.6254  1.4929  0.5205
   8423SM  H17T11219   4.138   3.459  10.449  0.7787  0.5927 -1.0785
   8423SM  C18S11220   4.252   3.362  10.596  0.0084  0.2346 -0.2637
   8423SM  H18S11221   4.154   3.336  10.641 -1.3691 -0.8019 -3.5784
   8423SM  H18T11222   4.299   3.453  10.641 -1.0661 -0.0022  1.4369
   8423SM  H18U11223   4.320   3.275  10.601  0.0134  0.0436 -2.6866
   8423SM   C1F11224   4.289   3.151   8.778  0.2807  1.0516 -0.7619
   8423SM    OF11225   4.398   3.110   8.741 -0.3972  0.1161 -0.2520
   8423SM   C2F11226   4.185   3.055   8.826 -0.3446 -0.4372 -0.7488
   8423SM   H2F11227   4.172   2.975   8.750  2.2912 -0.6850 -1.0275
   8423SM   H2G11228   4.091   3.110   8.848  0.2510  0.9114 -1.4564
   8423SM   C3F11229   4.227   2.981   8.954 -0.1654  0.1892 -0.1930
   8423SM   H3F11230   4.317   2.917   8.945 -2.6601 -3.6391 -0.4291
   8423SM   H3G11231   4.154   2.900   8.976 -1.5759  0.9717 -1.7829
   8423SM   C4F11232   4.242   3.069   9.081 -0.0951 -0.2667 -0.2035
   8423SM   H4F11233   4.141   3.113   9.094 -0.4420 -1.2466  0.5573
   8423SM   H4G11234   4.311   3.154   9.063 -0.0878 -0.2366 -0.0371
   8423SM   C5F11235   4.294   2.994   9.203 -0.5577  0.4621  0.3949
   8423SM   H5F11236   4.396   2.956   9.183 -0.3201  1.0150  0.5455
   8423SM   H5G11237   4.237   2.903   9.231  0.9222 -0.4704  0.4603
   8423SM   C6F11238   4.326   3.077   9.328 -0.1182 -0.1285  0.0918
   8423SM   H6F11239   4.237   3.140   9.348  0.7363  1.8624 -2.0620
   8423SM   H6G11240   4.416   3.139   9.308  0.8759 -0.5996  2.6002
   8423SM   C7F11241   4.357   2.991   9.450 -0.1119 -0.7366  0.6317
   8423SM   H7F11242   4.449   2.929   9.445 -0.3875 -1.0794 -1.7506
   8423SM   H7G11243   4.273   2.919   9.464 -0.6500 -0.4662 -0.9469
   8423SM   C8F11244   4.343   3.064   9.585  0.0101  0.0727  0.6200
   8423SM   H8F11245   4.254   3.130   9.587  0.5317  0.7945  0.2746
   8423SM   H8G11246   4.429   3.131   9.604 -0.3630 -0.0136  2.8601
   8423SM   C9F11247   4.331   2.968   9.705  0.2969 -0.4612  0.2217
   8423SM   H9F11248   4.434   2.927   9.712 -0.4906 -2.6578 -0.2878
   8423SM   H9G11249   4.260   2.884   9.690  1.1755 -1.1625 -0.0987
   8423SM  C10F11250   4.327   3.044   9.839 -0.6790  0.5924 -0.5927
   8423SM  H10F11251   4.225   3.088   9.833 -1.7109 -1.6560 -0.4492
   8423SM  H10G11252   4.405   3.124   9.837  0.5933 -0.6173 -0.9900
   8423SM  C11F11253   4.347   2.960   9.961  0.1539 -0.4510  0.4143
   8423SM  H11F11254   4.450   2.918   9.956  0.0197 -0.6201 -2.0330
   8423SM  H11G11255   4.272   2.879   9.957 -0.7199  0.3319  0.7141
   8423SM  C12F11256   4.324   3.031  10.094 -0.6486  0.1089  0.4989
   8423SM  H12F11257   4.215   3.053  10.097 -0.4565  1.3297 -0.5206
   8423SM  H12G11258   4.384   3.123  10.104  1.3381 -0.9235 -1.2409
   8423SM  C13F11259   4.349   2.934  10.214  0.2679 -0.0834  0.6660
   8423SM  H13F11260   4.458   2.924  10.233  0.5573 -0.8823 -1.1758
   8423SM  H13G11261   4.315   2.831  10.191  2.3109 -0.5821 -0.3928
   8423SM  C14F11262   4.288   2.985  10.347 -0.0556 -0.2465 -0.6737
   8423SM  H14F11263   4.178   2.998  10.336 -0.2370 -0.5413  0.7138
   8423SM  H14G11264   4.322   3.088  10.373  1.8795 -0.2189 -2.9085
   8423SM  C15F11265   4.312   2.894  10.469  1.1254 -0.5180 -0.6202
   8423SM  H15F11266   4.419   2.869  10.476  1.4681  1.2291  1.9351
   8423SM  H15G11267   4.260   2.796  10.464  1.1991 -0.8043  2.3680
   8423SM  C16F11268   4.262   2.959  10.603  0.2113 -0.1147 -0.1929
   8423SM  H16F11269   4.157   2.985  10.581 -0.6242 -3.4868 -0.8842
   8423SM  H16G11270   4.318   3.053  10.623  0.6608  0.3816 -3.3103
   8423SM  C17F11271   4.254   2.864  10.727  0.0251  0.1068 -0.0932
   8423SM  H17F11272   4.348   2.806  10.739 -1.2184 -1.7333  1.0737
   8423SM  H17G11273   4.179   2.786  10.706  1.2196 -2.4963  4.2340
   8423SM  C18F11274   4.236   2.943  10.858  0.7582  0.8275 -0.2433
   8423SM  H18F11275   4.147   3.010  10.850 -1.0359 -1.3300  0.7172
   8423SM  H18G11276   4.319   3.012  10.886 -0.6352  1.6812  2.1664
   8423SM  C19F11277   4.207   2.845  10.973  0.4359  0.5019  0.3550
   8423SM  H19F11278   4.291   2.772  10.980  1.3350  1.4069 -0.6591
   8423SM  H19G11279   4.121   2.783  10.940  1.5675 -0.2022 -1.4852
   8423SM  C20F11280   4.190   2.917  11.117 -0.2275  0.4590  0.2689
   8423SM  H20F11281   4.276   2.987  11.126 -0.9182  1.5723 -1.2854
   8423SM  H20G11282   4.195   2.839  11.195 -0.1852  0.8336  0.6447
   8423SM  C21F11283   4.064   3.011  11.136 -0.1835 -0.2003  0.0454
   8423SM  H21F11284   3.964   2.965  11.120 -1.2130  1.9034  0.0637
   8423SM  H21G11285   4.069   3.091  11.059 -0.5121 -1.9245 -1.8440
   8423SM  C22F11286   4.077   3.085  11.275 -0.7204 -0.0296 -0.2761
   8423SM  H22F11287   4.032   3.186  11.259 -0.7047  0.5961  2.8985
   8423SM  H22G11288   4.181   3.107  11.306 -0.9351  0.4836  0.1165
   8423SM  C23F11289   3.998   3.003  11.377 -0.1897  0.2846 -0.2545
   8423SM  H23F11290   3.993   3.047  11.479 -0.3580 -2.8068  1.1852
   8423SM  H23G11291   4.057   2.908  11.378  0.4548  0.4827 -3.9222
   8423SM  H23H11292   3.893   2.978  11.349 -0.2411  2.0905 -1.9051
   8523SM     N11293   6.442   4.911   8.331 -0.0374 -0.7193 -0.5809
   8523SM   C1511294   6.450   4.808   8.210  0.0588  0.3225 -0.4416
   8523SM  H15A11295   6.488   4.851   8.119 -0.9542 -2.0000 -2.0614
   8523SM  H15B11296   6.348   4.775   8.195 -0.0752 -0.2693  1.4807
   8523SM  H15C11297   6.516   4.723   8.224  1.4006  1.0430 -2.0299
   8523SM   C1411298   6.582   4.941   8.355 -0.3247  0.3502  1.3816
   8523SM  H14A11299   6.630   4.846   8.376 -2.0330 -1.8208 -3.1221
   8523SM  H14B11300   6.594   5.007   8.440 -1.6777  3.0400 -0.3770
   8523SM  H14C11301   6.627   4.996   8.273 -1.9702  1.1652  0.9815
   8523SM   C1311302   6.369   5.029   8.295 -0.2542 -0.0077 -0.1276
   8523SM  H13A11303   6.264   5.003   8.296 -0.6917  1.6295  0.5378
   8523SM  H13B11304   6.395   5.078   8.202 -1.2147 -0.3750 -0.5997
   8523SM  H13C11305   6.380   5.102   8.374 -0.4108 -1.7947  1.5935
   8523SM   C1211306   6.385   4.849   8.456  0.3496 -0.3281 -0.4093
   8523SM  H12A11307   6.391   4.917   8.540  2.0546  0.4385 -1.0950
   8523SM  H12B11308   6.449   4.774   8.499  0.8484  0.8230  0.9380
   8523SM   C1111309   6.236   4.796   8.448 -0.7281 -0.1328 -0.3424
   8523SM  H11A11310   6.226   4.739   8.543  0.8972  1.0369  0.5802
   8523SM  H11B11311   6.235   4.714   8.372  1.3588  0.4283 -1.0418
   8523SM     P11312   6.082   4.972   8.544  0.3737  0.3414  0.4550
   8523SM   O1311313   6.067   5.114   8.518  0.8279 -0.0455 -0.0300
   8523SM   O1411314   5.963   4.901   8.586  0.4978  0.0231  0.2140
   8523SM   O1111315   6.184   4.951   8.665 -0.3547  0.0441 -0.2682
   8523SM   O1211316   6.145   4.896   8.421  0.6959  0.0092  0.2229
   8523SM   C1S11317   6.179   5.028   8.780 -0.1481  0.3567 -0.1647
   8523SM   H1S11318   6.083   5.083   8.779  0.5825  1.7178  1.0500
   8523SM   H1T11319   6.267   5.095   8.782 -1.0070  1.5492  2.2985
   8523SM    NF11320   6.175   5.023   9.030 -0.3199 -0.6832  0.0247
   8523SM   HNF11321   6.260   5.040   9.079  0.6949 -0.1595 -1.8355
   8523SM   C2S11322   6.194   4.938   8.908  0.9787  0.1494  0.4138
   8523SM   H2S11323   6.113   4.862   8.902 -0.0233  1.2211 -0.0300
   8523SM   C3S11324   6.323   4.854   8.908  0.0358  1.1760 -0.1484
   8523SM   H3S11325   6.404   4.921   8.944  0.4054  0.6776 -0.0511
   8523SM    O311326   6.366   4.808   8.779  0.9599 -0.2867 -0.1761
   8523SM   HO311327   6.293   4.832   8.722  2.1654 -0.6390 -1.9392
   8523SM   C4S11328   6.324   4.755   9.028  0.3232  0.2796  0.4624
   8523SM   H4S11329   6.328   4.809   9.124  0.3201 -0.7404  1.0507
   8523SM   C5S11330   6.318   4.618   9.026  0.1667  0.6695  0.5503
   8523SM   H5S11331   6.307   4.565   8.930 -0.1424 -2.6115  2.2432
   8523SM   C6S11332   6.303   4.531   9.153 -0.9707  0.6638  0.2320
   8523SM   H6S11333   6.401   4.510   9.201 -0.8369 -0.2537 -0.4278
   8523SM   H6T11334   6.257   4.434   9.126 -0.1628  0.5281 -0.7118
   8523SM   C7S11335   6.223   4.605   9.258  0.1915  0.5857  0.6059
   8523SM   H7S11336   6.128   4.644   9.215 -0.2934 -0.0988  1.0374
   8523SM   H7T11337   6.281   4.691   9.298  1.2981  0.6409 -1.0330
   8523SM   C8S11338   6.191   4.506   9.365 -0.1186  0.3867 -0.2157
   8523SM   H8S11339   6.282   4.465   9.412  1.1545  0.6234 -2.3293
   8523SM   H8T11340   6.127   4.426   9.321  1.0019  0.0939 -1.3789
   8523SM   C9S11341   6.116   4.571   9.485 -0.0627  0.1013  0.5740
   8523SM   H9S11342   6.010   4.590   9.456 -0.9100 -1.4817  2.4663
   8523SM   H9T11343   6.157   4.671   9.513 -1.5795  0.6253  1.0139
   8523SM  C10S11344   6.125   4.483   9.607  0.4657 -0.2709 -0.5441
   8523SM  H10S11345   6.229   4.487   9.645  0.2304 -1.9052  0.3191
   8523SM  H10T11346   6.101   4.377   9.587 -1.2882 -0.0149  0.0816
   8523SM  C11S11347   6.036   4.528   9.730  0.1621 -0.1832 -0.2052
   8523SM  H11S11348   5.938   4.476   9.738  0.4681 -0.8011 -0.4784
   8523SM  H11T11349   6.007   4.634   9.710  0.0544  0.2425  1.9242
   8523SM  C12S11350   6.103   4.527   9.870  0.0459  0.3554 -0.2630
   8523SM  H12S11351   6.185   4.602   9.873 -0.4178  0.8846  3.1429
   8523SM  H12T11352   6.142   4.424   9.883 -0.0939  0.4578  1.0962
   8523SM  C13S11353   6.009   4.546   9.994 -0.1083 -0.7442  0.7092
   8523SM  H13S11354   5.924   4.477   9.983 -2.4593  1.8157  1.6868
   8523SM  H13T11355   5.972   4.651   9.998  0.8008 -0.3647 -0.3031
   8523SM  C14S11356   6.076   4.518  10.125  0.1492  0.1910 -0.2121
   8523SM  H14S11357   6.163   4.587  10.140  1.3807 -0.8941 -1.9405
   8523SM  H14T11358   6.121   4.417  10.132 -2.9395 -1.2281  0.5103
   8523SM  C15S11359   5.976   4.529  10.234 -0.0037  0.2630 -0.4276
   8523SM  H15S11360   5.876   4.490  10.204 -0.2999  0.3851  0.3815
   8523SM  H15T11361   5.962   4.636  10.260  1.2760  0.3479 -0.0548
   8523SM  C16S11362   6.022   4.465  10.370  0.4703 -0.5273 -0.5408
   8523SM  H16S11363   6.118   4.512  10.402  0.4127 -0.1665 -0.8984
   8523SM  H16T11364   6.048   4.357  10.366 -2.2341 -1.2818  0.4637
   8523SM  C17S11365   5.917   4.474  10.487 -0.1902 -0.0239 -0.1912
   8523SM  H17S11366   5.819   4.443  10.446 -0.7619  1.4476 -0.0156
   8523SM  H17T11367   5.901   4.581  10.515  1.9308 -0.7490  4.8963
   8523SM  C18S11368   5.951   4.400  10.616  0.2990  0.0845  0.0432
   8523SM  H18S11369   5.971   4.294  10.590 -1.1196  0.2642 -2.0693
   8523SM  H18T11370   5.873   4.400  10.696  1.1532  1.3673  0.9222
   8523SM  H18U11371   6.042   4.442  10.663  0.7524  0.6898 -1.3475
   8523SM   C1F11372   6.054   5.042   9.094 -0.6284  0.0883  0.4601
   8523SM    OF11373   5.952   4.989   9.053  0.3524  0.1606 -0.1024
   8523SM   C2F11374   6.059   5.136   9.211  0.4214  0.3000  0.1727
   8523SM   H2F11375   6.027   5.237   9.177 -0.5654 -1.4080 -4.7401
   8523SM   H2G11376   6.164   5.147   9.245  0.2065 -1.5351  1.5565
   8523SM   C3F11377   5.964   5.082   9.321 -0.2194  0.1883  0.3068
   8523SM   H3F11378   6.001   4.981   9.347 -0.3801 -0.4754 -1.8076
   8523SM   H3G11379   5.863   5.058   9.282 -0.2390  0.0705  0.4304
   8523SM   C4F11380   5.944   5.173   9.440 -0.9210 -0.1927 -0.4955
   8523SM   H4F11381   5.894   5.266   9.407 -0.6756  0.4768  0.9521
   8523SM   H4G11382   6.048   5.195   9.473 -0.1577 -0.0027 -2.8825
   8523SM   C5F11383   5.859   5.116   9.551 -0.2864 -0.3199 -0.7199
   8523SM   H5F11384   5.865   5.008   9.576  1.3721  0.1506  1.2397
   8523SM   H5G11385   5.757   5.132   9.511 -0.6825  1.2679  0.7932
   8523SM   C6F11386   5.872   5.213   9.675 -0.0742  0.4041 -0.0109
   8523SM   H6F11387   5.856   5.320   9.648  0.4076  0.5570  0.2860
   8523SM   H6G11388   5.978   5.203   9.708 -0.7030  0.7431  2.2204
   8523SM   C7F11389   5.776   5.167   9.786  0.2631  0.1986  0.1738
   8523SM   H7F11390   5.795   5.058   9.796  0.2347  0.0155 -1.4568
   8523SM   H7G11391   5.671   5.179   9.750  0.8357  0.1081 -1.5936
   8523SM   C8F11392   5.811   5.230   9.921 -0.5394  0.1768 -0.3692
   8523SM   H8F11393   5.796   5.339   9.907 -0.1701  0.2568 -0.1701
   8523SM   H8G11394   5.917   5.202   9.939 -0.9330 -0.5616  0.9367
   8523SM   C9F11395   5.720   5.169  10.033 -0.6214  0.2833 -0.1403
   8523SM   H9F11396   5.745   5.061  10.025 -0.1932  0.3734 -0.0286
   8523SM   H9G11397   5.610   5.177  10.015 -0.4607 -2.0478 -2.8761
   8523SM  C10F11398   5.740   5.228  10.170 -0.0379 -0.1279  0.3690
   8523SM  H10F11399   5.712   5.335  10.160  1.9879  0.4225  0.0045
   8523SM  H10G11400   5.850   5.237  10.190  0.2218 -1.2661 -0.4982
   8523SM  C11F11401   5.669   5.144  10.283 -0.3231 -0.1592 -0.0592
   8523SM  H11F11402   5.722   5.049  10.303 -1.1580 -0.6867 -0.2958
   8523SM  H11G11403   5.569   5.111  10.245  0.4628 -1.3841 -1.1314
   8523SM  C12F11404   5.661   5.224  10.414 -0.2545 -0.5662 -0.4774
   8523SM  H12F11405   5.617   5.319  10.379 -0.2188 -0.2713  0.2578
   8523SM  H12G11406   5.762   5.249  10.454 -0.5353  3.3920 -1.8369
   8523SM  C13F11407   5.574   5.172  10.530 -0.7011  0.1744 -0.1703
   8523SM  H13F11408   5.619   5.075  10.560  2.1308  1.6390  0.8090
   8523SM  H13G11409   5.474   5.155  10.487 -1.8366  1.7370  1.6815
   8523SM  C14F11410   5.547   5.266  10.650  0.3798 -0.5689 -0.2505
   8523SM  H14F11411   5.496   5.355  10.606  1.5640  0.0992 -0.3111
   8523SM  H14G11412   5.645   5.304  10.687  0.7050 -0.5701 -1.0720
   8523SM  C15F11413   5.455   5.213  10.763  0.0938 -0.7519 -0.3205
   8523SM  H15F11414   5.501   5.115  10.786 -0.9840 -0.7411  2.0959
   8523SM  H15G11415   5.355   5.182  10.726  0.6750 -3.5478  0.2571
   8523SM  C16F11416   5.446   5.297  10.893 -0.4936  0.9043  0.8377
   8523SM  H16F11417   5.372   5.380  10.888 -3.0370 -1.3075 -1.5139
   8523SM  H16G11418   5.540   5.354  10.909  0.3770 -0.2563 -0.0428
   8523SM  C17F11419   5.410   5.218  11.023 -0.0619 -0.9356 -0.1683
   8523SM  H17F11420   5.304   5.183  11.024  0.2918 -2.0961 -1.1419
   8523SM  H17G11421   5.418   5.300  11.098 -0.1024  0.5744 -1.7460
   8523SM  C18F11422   5.509   5.099  11.042  0.2511  0.1370 -0.5028
   8523SM  H18F11423   5.613   5.132  11.019  0.2339  1.1925  0.8431
   8523SM  H18G11424   5.483   5.022  10.966 -1.5234 -0.2613  0.4689
   8523SM  C19F11425   5.496   5.040  11.184  0.1637  0.2939 -0.5548
   8523SM  H19F11426   5.388   5.014  11.194 -0.3572  2.1861 -0.8917
   8523SM  H19G11427   5.513   5.127  11.250  0.4138  1.3801 -2.0105
   8523SM  C20F11428   5.590   4.920  11.222  0.3712 -0.9841 -0.3689
   8523SM  H20F11429   5.688   4.971  11.226 -0.1630  0.0855 -0.5823
   8523SM  H20G11430   5.596   4.841  11.144 -0.8717  0.3820 -1.8959
   8523SM  C21F11431   5.545   4.866  11.360  0.2302 -0.1769  0.2776
   8523SM  H21F11432   5.434   4.860  11.371  0.3344 -1.3408  0.8593
   8523SM  H21G11433   5.553   4.951  11.431 -2.9865  0.3556  0.1529
   8523SM  C22F11434   5.613   4.739  11.396 -0.2654  0.1600 -0.0173
   8523SM  H22F11435   5.579   4.713  11.499  3.6870 -1.2892  1.0765
   8523SM  H22G11436   5.722   4.759  11.396 -0.7250  4.2479  4.0099
   8523SM  C23F11437   5.579   4.610  11.316 -0.2824  0.3569 -0.1675
   8523SM  H23F11438   5.618   4.528  11.380 -0.2874  0.0478 -0.5632
   8523SM  H23G11439   5.621   4.604  11.214  1.4286 -1.2955  0.5759
   8523SM  H23H11440   5.468   4.606  11.319 -0.3117  0.8860 -0.3667
   8623SM     N11441   4.176   2.521   8.186  0.3100  0.3149  0.0912
   8623SM   C1511442   4.079   2.425   8.130 -0.4350  0.0524 -0.3255
   8623SM  H15A11443   4.002   2.416   8.205  1.9443  1.4493  2.5171
   8623SM  H15B11444   4.113   2.323   8.119 -3.2162 -0.8820 -0.9218
   8623SM  H15C11445   4.032   2.460   8.040  0.2213  0.0067 -0.6937
   8623SM   C1411446   4.294   2.515   8.097  0.1892  0.3015  0.1386
   8623SM  H14A11447   4.365   2.593   8.121  0.4187 -0.0714  0.6965
   8623SM  H14B11448   4.262   2.524   7.994 -0.0976  0.9641  0.2797
   8623SM  H14C11449   4.342   2.418   8.103  1.4261  0.9570  1.6286
   8623SM   C1311450   4.134   2.669   8.200  0.4923  0.0864 -0.4232
   8623SM  H13A11451   4.097   2.702   8.104  1.2843 -2.0252 -1.5242
   8623SM  H13B11452   4.219   2.733   8.222 -0.1312  0.3468  1.3421
   8623SM  H13C11453   4.045   2.685   8.258  0.8590 -1.0315  0.4722
   8623SM   C1211454   4.224   2.476   8.329 -0.4430  0.4521  0.5452
   8623SM  H12A11455   4.302   2.543   8.361  1.3089 -0.5203 -1.5132
   8623SM  H12B11456   4.267   2.377   8.324 -1.8092 -0.2073  1.1912
   8623SM   C1111457   4.117   2.464   8.442 -0.2856  0.6796  0.3958
   8623SM  H11A11458   4.071   2.565   8.454  0.4701  0.7519  4.1704
   8623SM  H11B11459   4.171   2.434   8.535 -1.5754  1.4409  1.4264
   8623SM     P11460   4.041   2.211   8.454  0.0375  0.7379  0.2124
   8623SM   O1311461   3.933   2.134   8.390  0.9171 -0.6997 -0.6808
   8623SM   O1411462   4.178   2.168   8.411 -0.0689  0.2176  0.6456
   8623SM   O1111463   4.023   2.223   8.611  0.2716 -0.0514 -0.1429
   8623SM   O1211464   4.022   2.362   8.407 -0.2571  0.2264 -0.2293
   8623SM   C1S11465   4.123   2.191   8.702 -0.4292 -0.5608 -0.1601
   8623SM   H1S11466   4.214   2.253   8.689 -1.8178  1.0955 -2.9029
   8623SM   H1T11467   4.150   2.084   8.692  0.8489 -0.5557  2.3582
   8623SM    NF11468   4.199   2.206   8.934  0.2651  0.3717 -0.2685
   8623SM   HNF11469   4.243   2.120   8.958 -3.7667 -2.2459 -1.2869
   8623SM   C2S11470   4.078   2.207   8.852  0.7004 -0.0698  0.4456
   8623SM   H2S11471   4.030   2.305   8.872  0.2811 -0.8446  3.9353
   8623SM   C3S11472   3.969   2.104   8.880 -0.7576 -0.5544  0.7669
   8623SM   H3S11473   4.005   2.001   8.858  1.0704  0.1098  0.4782
   8623SM    O311474   3.849   2.120   8.801 -0.3186 -0.2331  0.3282
   8623SM   HO311475   3.876   2.172   8.725  1.1429 -2.0511 -0.4623
   8623SM   C4S11476   3.920   2.120   9.024 -0.0404 -0.1365  0.3366
   8623SM   H4S11477   3.876   2.217   9.053 -1.2733 -0.4441 -0.4275
   8623SM   C5S11478   3.910   2.023   9.114 -0.3703  0.3978 -0.1644
   8623SM   H5S11479   3.927   1.918   9.085  0.1006 -0.6258  3.3830
   8623SM   C6S11480   3.868   2.030   9.260  0.0546  0.1402  0.4267
   8623SM   H6S11481   3.921   1.941   9.301  1.8675 -0.3702 -2.6536
   8623SM   H6T11482   3.759   2.010   9.254  0.0411  0.5762 -1.5406
   8623SM   C7S11483   3.907   2.169   9.327  0.1567  0.4123  0.2076
   8623SM   H7S11484   3.847   2.182   9.420 -0.2292 -1.6209  0.2989
   8623SM   H7T11485   3.889   2.255   9.260  2.7880  1.7147  1.0277
   8623SM   C8S11486   4.056   2.187   9.366  0.6840 -0.3406 -0.5518
   8623SM   H8S11487   4.079   2.296   9.372 -1.1540 -0.0005  1.8923
   8623SM   H8T11488   4.116   2.172   9.274  1.4716 -0.9157  0.0415
   8623SM   C9S11489   4.102   2.108   9.490 -0.2311  0.2678 -0.0441
   8623SM   H9S11490   4.212   2.105   9.496 -0.2005  1.6332  0.5411
   8623SM   H9T11491   4.051   2.010   9.477 -0.5674  0.5218 -0.7399
   8623SM  C10S11492   4.044   2.159   9.619 -0.0653 -0.1863 -0.2821
   8623SM  H10S11493   3.933   2.158   9.623 -0.0250 -0.8302  0.9398
   8623SM  H10T11494   4.077   2.264   9.631 -1.3523  0.2487 -0.3319
   8623SM  C11S11495   4.091   2.098   9.748 -0.0840 -0.5546  0.7023
   8623SM  H11S11496   4.202   2.110   9.746 -0.2089  0.6383 -0.0986
   8623SM  H11T11497   4.061   1.991   9.750 -1.2636 -0.2406  0.6856
   8623SM  C12S11498   4.042   2.174   9.875  0.4440 -0.3394  0.1565
   8623SM  H12S11499   3.931   2.170   9.876  0.3741 -2.8885 -2.6197
   8623SM  H12T11500   4.069   2.281   9.865 -0.8288 -0.0096  0.0874
   8623SM  C13S11501   4.076   2.109  10.012  0.6451  0.0377  0.4379
   8623SM  H13S11502   4.179   2.140  10.038  0.6475  0.7710 -0.3838
   8623SM  H13T11503   4.079   1.998  10.003 -1.9641 -0.2647  2.1801
   8623SM  C14S11504   3.995   2.163  10.127 -0.2342 -0.0074  0.0827
   8623SM  H14S11505   3.886   2.151  10.113 -0.6006  2.3618  0.5387
   8623SM  H14T11506   4.017   2.271  10.141  1.4238  0.1418 -2.8170
   8623SM  C15S11507   4.022   2.078  10.253  0.6598 -0.3391 -0.6046
   8623SM  H15S11508   4.130   2.094  10.275 -0.0677  2.3015  1.6878
   8623SM  H15T11509   4.002   1.971  10.231 -1.5223  0.0257 -0.6444
   8623SM  C16S11510   3.941   2.122  10.377 -0.0823  0.8809  0.7975
   8623SM  H16S11511   3.933   2.232  10.361 -0.6748  0.6169 -0.8384
   8623SM  H16T11512   4.004   2.098  10.465  2.3799 -1.7817 -1.5182
   8623SM  C17S11513   3.799   2.054  10.379 -0.0580  0.5475  0.1316
   8623SM  H17S11514   3.766   2.054  10.273  0.1402  2.4524  0.0473
   8623SM  H17T11515   3.728   2.111  10.442 -0.2000  1.1710 -0.5787
   8623SM  C18S11516   3.790   1.909  10.430 -0.0651 -0.7251 -0.5707
   8623SM  H18S11517   3.828   1.844  10.349  1.1861 -0.6249 -0.0823
   8623SM  H18T11518   3.690   1.880  10.469 -0.4091  1.2984  0.1907
   8623SM  H18U11519   3.857   1.904  10.518  0.2693  2.5580 -0.4822
   8623SM   C1F11520   4.272   2.312   8.961  0.1166  0.0803  0.2466
   8623SM    OF11521   4.238   2.424   8.918  0.4944  0.5852  0.2783
   8623SM   C2F11522   4.408   2.286   9.028  0.2637 -0.7159  0.2449
   8623SM   H2F11523   4.480   2.364   8.993 -0.5680 -0.3479 -0.6889
   8623SM   H2G11524   4.454   2.193   8.989 -0.2834 -1.2043  0.7657
   8623SM   C3F11525   4.405   2.293   9.184  0.3878 -1.0076 -0.7453
   8623SM   H3F11526   4.511   2.275   9.212  0.1475 -0.0646  0.9133
   8623SM   H3G11527   4.339   2.217   9.233  0.5644  0.4173  1.8775
   8623SM   C4F11528   4.378   2.437   9.226 -0.4369  0.6088 -0.6962
   8623SM   H4F11529   4.271   2.468   9.220 -1.0390 -1.4160 -1.1748
   8623SM   H4G11530   4.435   2.505   9.161  1.4870 -0.7544 -0.5115
   8623SM   C5F11531   4.439   2.474   9.364 -0.7789 -0.4889 -0.3455
   8623SM   H5F11532   4.421   2.582   9.384  0.6578 -0.0836 -1.0773
   8623SM   H5G11533   4.550   2.468   9.360 -0.8052 -0.4801 -1.2479
   8623SM   C6F11534   4.387   2.403   9.490 -0.1652  0.7417 -0.2178
   8623SM   H6F11535   4.427   2.299   9.496 -4.2408 -0.9340  3.0230
   8623SM   H6G11536   4.277   2.393   9.490 -0.1610  0.7000 -0.1220
   8623SM   C7F11537   4.422   2.482   9.622 -0.0212  0.1704  0.3063
   8623SM   H7F11538   4.383   2.585   9.606  0.2755  0.1457 -0.6128
   8623SM   H7G11539   4.531   2.498   9.627 -0.0684  0.1175  2.6831
   8623SM   C8F11540   4.363   2.414   9.744 -0.2895  1.1252  0.2626
   8623SM   H8F11541   4.382   2.305   9.748  1.1492  1.3667  0.5939
   8623SM   H8G11542   4.253   2.423   9.731 -0.5313 -1.1427  0.3853
   8623SM   C9F11543   4.404   2.483   9.874  0.1424 -0.5046 -0.6123
   8623SM   H9F11544   4.386   2.593   9.872  2.8505  0.1099  1.6533
   8623SM   H9G11545   4.514   2.487   9.890  0.3230 -3.0265 -0.8851
   8623SM  C10F11546   4.338   2.419  10.003 -0.6396 -0.2400 -0.7737
   8623SM  H10F11547   4.329   2.309   9.987 -3.3468  0.0407 -1.6749
   8623SM  H10G11548   4.232   2.452   9.998 -1.0298 -1.3148 -0.0623
   8623SM  C11F11549   4.399   2.454  10.134 -0.4299  0.2243  0.1096
   8623SM  H11F11550   4.422   2.562  10.136  0.6701  0.0022  1.1818
   8623SM  H11G11551   4.500   2.409  10.145 -1.0354 -0.8367  1.8263
   8623SM  C12F11552   4.306   2.414  10.246  0.4894 -0.3679  0.1365
   8623SM  H12F11553   4.255   2.316  10.234  0.4352 -0.2041 -1.1598
   8623SM  H12G11554   4.219   2.482  10.230  0.0090 -0.6599  1.4261
   8623SM  C13F11555   4.364   2.441  10.383 -0.6567 -0.4689  0.2469
   8623SM  H13F11556   4.386   2.550  10.376 -0.3557 -0.4826  0.9025
   8623SM  H13G11557   4.467   2.401  10.390 -1.3555 -2.0303  3.3106
   8623SM  C14F11558   4.288   2.401  10.507 -0.6676  0.2464 -0.7483
   8623SM  H14F11559   4.265   2.292  10.506 -0.8235  0.2434  0.8807
   8623SM  H14G11560   4.185   2.442  10.504 -1.0291 -0.4996  0.5576
   8623SM  C15F11561   4.353   2.453  10.628 -0.3807  0.4327 -0.5479
   8623SM  H15F11562   4.378   2.561  10.613  1.6951  0.5555  2.7349
   8623SM  H15G11563   4.449   2.403  10.651 -1.8600 -2.0752  0.5579
   8623SM  C16F11564   4.267   2.428  10.758 -0.5291 -0.5004 -0.4455
   8623SM  H16F11565   4.184   2.502  10.762 -1.3302 -1.3480 -0.8056
   8623SM  H16G11566   4.337   2.442  10.843  1.2472  0.1162 -1.9380
   8623SM  C17F11567   4.210   2.289  10.774 -0.4012  0.2797  0.6088
   8623SM  H17F11568   4.290   2.212  10.767 -1.8990 -1.1815 -1.3296
   8623SM  H17G11569   4.143   2.278  10.686 -0.8925  1.9144  0.7506
   8623SM  C18F11570   4.141   2.267  10.912  0.1640  0.2403 -0.1582
   8623SM  H18F11571   4.064   2.347  10.912 -1.6145 -1.3916  0.6021
   8623SM  H18G11572   4.201   2.290  11.003 -0.4967 -1.5435  0.7910
   8623SM  C19F11573   4.076   2.130  10.917  0.2858 -0.3691  0.5750
   8623SM  H19F11574   4.145   2.049  10.951  1.5467  0.0411 -0.8694
   8623SM  H19G11575   4.045   2.101  10.814 -1.1042  1.6904  0.3728
   8623SM  C20F11576   3.955   2.136  11.005 -0.1958 -0.8907  0.1405
   8623SM  H20F11577   3.882   2.206  10.958  1.6064  0.1266 -1.2840
   8623SM  H20G11578   3.989   2.171  11.104  0.9351 -1.4557 -0.0261
   8623SM  C21F11579   3.883   2.000  11.023 -0.0009  0.0454  0.6501
   8623SM  H21F11580   3.957   1.946  11.085  0.3242 -0.1732  0.0856
   8623SM  H21G11581   3.872   1.950  10.924  1.3354 -0.3562  0.6892
   8623SM  C22F11582   3.746   2.011  11.093 -0.2538  0.9128 -0.7566
   8623SM  H22F11583   3.670   2.073  11.040  0.0621  0.2339 -2.0726
   8623SM  H22G11584   3.768   2.049  11.195  0.0369  4.0557 -1.8784
   8623SM  C23F11585   3.678   1.873  11.107  0.1514  0.5295  0.3854
   8623SM  H23F11586   3.569   1.885  11.127 -0.1004 -1.7151  0.6363
   8623SM  H23G11587   3.726   1.829  11.197 -0.2048  0.5100  0.5703
   8623SM  H23H11588   3.689   1.805  11.020  0.7150 -0.5184  1.2544
   8723SM     N11589   5.349   3.718   8.469  0.0027 -0.0583 -0.4521
   8723SM   C1511590   5.364   3.715   8.618 -0.1948  0.5259  0.3209
   8723SM  H15A11591   5.469   3.721   8.641  0.1447  2.2061 -1.4265
   8723SM  H15B11592   5.311   3.633   8.663 -1.2552  1.6984  1.2784
   8723SM  H15C11593   5.306   3.797   8.659 -2.1688 -1.1113  0.9972
   8723SM   C1411594   5.417   3.839   8.404 -0.4990  0.3977 -0.4759
   8723SM  H14A11595   5.516   3.853   8.446  0.0616 -3.6804 -0.0258
   8723SM  H14B11596   5.362   3.928   8.430 -0.0520  0.5028  0.1525
   8723SM  H14C11597   5.429   3.821   8.298 -1.0937  0.8342 -0.6193
   8723SM   C1311598   5.420   3.599   8.415  0.4463 -0.4564  0.3579
   8723SM  H13A11599   5.342   3.527   8.393  0.2158  0.2633 -1.3708
   8723SM  H13B11600   5.499   3.564   8.479  1.6525  0.0313 -0.8074
   8723SM  H13C11601   5.480   3.628   8.330  1.0193 -0.8816  0.6126
   8723SM   C1211602   5.205   3.712   8.422 -0.1381  0.6240  0.3015
   8723SM  H12A11603   5.209   3.703   8.315 -0.4928 -2.8050  0.4908
   8723SM  H12B11604   5.150   3.803   8.443  0.6728  1.3297 -0.5240
   8723SM   C1111605   5.121   3.592   8.487  0.8345  0.1881  0.1748
   8723SM  H11A11606   5.017   3.595   8.450 -0.0743  2.5202  2.5768
   8723SM  H11B11607   5.116   3.610   8.596 -1.8558  0.9174 -0.0111
   8723SM     P11608   5.127   3.322   8.494 -0.0182  0.0652  0.1852
   8723SM   O1311609   4.986   3.302   8.448 -0.8514  0.3426 -0.4424
   8723SM   O1411610   5.219   3.221   8.443  0.1473  0.0594  0.3259
   8723SM   O1111611   5.121   3.313   8.649 -0.2965 -0.0660 -0.5363
   8723SM   O1211612   5.176   3.467   8.448 -0.2313  0.1546 -0.3910
   8723SM   C1S11613   5.021   3.359   8.730  0.7654  0.4064 -0.2595
   8723SM   H1S11614   4.939   3.284   8.736  0.0677  1.2744  1.9549
   8723SM   H1T11615   4.977   3.454   8.692  0.9303  0.8584  0.6646
   8723SM    NF11616   4.942   3.400   8.960  0.2001  0.1235 -0.7383
   8723SM   HNF11617   4.919   3.493   8.989  1.0629  0.2546 -0.4468
   8723SM   C2S11618   5.064   3.381   8.882 -0.2574 -0.4811 -0.2827
   8723SM   H2S11619   5.122   3.301   8.933 -1.1362  0.6787  2.7943
   8723SM   C3S11620   5.157   3.506   8.887 -0.3081  0.0645  0.0503
   8723SM   H3S11621   5.118   3.597   8.837  0.7703 -0.0667 -1.0929
   8723SM    O311622   5.276   3.490   8.810 -0.1700  0.6360 -0.3901
   8723SM   HO311623   5.248   3.410   8.764 -0.8690 -0.4232  1.7118
   8723SM   C4S11624   5.189   3.544   9.033 -0.3995 -0.0730 -0.5197
   8723SM   H4S11625   5.126   3.617   9.085  2.4384  0.8774  1.8386
   8723SM   C5S11626   5.292   3.511   9.110  0.1077  0.7806 -0.6801
   8723SM   H5S11627   5.384   3.461   9.076  0.4102 -1.0489  2.4707
   8723SM   C6S11628   5.311   3.551   9.251  0.0126 -0.7424 -0.1952
   8723SM   H6S11629   5.326   3.660   9.257  1.0137 -0.8824  0.1180
   8723SM   H6T11630   5.404   3.511   9.297  0.7061  1.4824  0.4467
   8723SM   C7S11631   5.192   3.512   9.351 -0.8232 -0.1022  0.3408
   8723SM   H7S11632   5.158   3.408   9.335 -0.4481 -0.2842  0.7148
   8723SM   H7T11633   5.109   3.582   9.326 -0.5930  0.2531  0.5692
   8723SM   C8S11634   5.244   3.515   9.501  0.2066 -0.2997 -0.3472
   8723SM   H8S11635   5.280   3.618   9.522  0.6071 -0.8651  2.0786
   8723SM   H8T11636   5.327   3.442   9.516  1.8706  1.8704  1.9358
   8723SM   C9S11637   5.144   3.479   9.610 -0.1014 -0.8604 -0.4725
   8723SM   H9S11638   5.117   3.372   9.616  0.9200 -1.1032  0.0687
   8723SM   H9T11639   5.045   3.530   9.602 -1.4139 -3.1850 -0.0573
   8723SM  C10S11640   5.191   3.507   9.757  0.0801  0.9547  0.2809
   8723SM  H10S11641   5.242   3.605   9.764  1.3434  0.4478 -1.1578
   8723SM  H10T11642   5.271   3.430   9.768 -0.4300  0.3139 -0.3734
   8723SM  C11S11643   5.075   3.474   9.861 -0.1753 -0.0877 -0.0981
   8723SM  H11S11644   5.070   3.365   9.881  1.5713 -0.3073 -0.6333
   8723SM  H11T11645   4.969   3.494   9.836 -0.5941 -0.1844  1.5080
   8723SM  C12S11646   5.125   3.526   9.994  0.3265  0.1949  0.1540
   8723SM  H12S11647   5.111   3.636   9.999  0.4417  0.2255 -0.2074
   8723SM  H12T11648   5.235   3.508   9.996  0.1200 -2.1064 -2.5413
   8723SM  C13S11649   5.071   3.456  10.119 -0.0302 -0.0492 -0.2554
   8723SM  H13S11650   5.070   3.346  10.101 -0.0343  0.0546 -0.8900
   8723SM  H13T11651   4.964   3.476  10.143  0.0166 -0.2984  0.1731
   8723SM  C14S11652   5.165   3.458  10.245 -0.1479 -0.3889  1.1300
   8723SM  H14S11653   5.189   3.564  10.265  1.2447 -0.2732 -0.9037
   8723SM  H14T11654   5.257   3.399  10.228  1.0639  1.5854  0.5624
   8723SM  C15S11655   5.103   3.405  10.378  0.0004  0.9854  0.3657
   8723SM  H15S11656   5.115   3.295  10.367  0.6372  1.1595 -0.7767
   8723SM  H15T11657   4.998   3.441  10.388  0.5981  3.3677 -1.1939
   8723SM  C16S11658   5.193   3.437  10.493 -0.0660 -0.2838 -0.4238
   8723SM  H16S11659   5.232   3.540  10.499  2.1137 -1.1547  3.4439
   8723SM  H16T11660   5.286   3.376  10.494  0.6240  0.7407 -0.4584
   8723SM  C17S11661   5.128   3.413  10.628  0.0020  0.0379  0.4361
   8723SM  H17S11662   5.034   3.473  10.628 -1.8694 -2.6933  0.3461
   8723SM  H17T11663   5.191   3.458  10.708 -0.9804  1.9272  0.2189
   8723SM  C18S11664   5.097   3.271  10.656 -0.0915 -0.7419  0.1492
   8723SM  H18S11665   5.184   3.202  10.662  0.7071  0.3470  2.4863
   8723SM  H18T11666   5.018   3.232  10.588 -2.8174 -1.6379  3.4785
   8723SM  H18U11667   5.046   3.255  10.754  0.7243 -0.5298  0.6198
   8723SM   C1F11668   4.863   3.302   8.989  0.2355  0.2958  0.0690
   8723SM    OF11669   4.912   3.189   8.984  0.3874 -0.3390  0.3458
   8723SM   C2F11670   4.721   3.332   8.998  0.2669  0.4876  0.3019
   8723SM   H2F11671   4.671   3.317   8.900 -1.0155 -0.8311  1.1144
   8723SM   H2G11672   4.695   3.431   9.040 -2.9760  0.0649 -0.4436
   8723SM   C3F11673   4.644   3.225   9.086  0.3801 -0.6048  0.6014
   8723SM   H3F11674   4.654   3.128   9.031  3.7706  0.0962 -0.2738
   8723SM   H3G11675   4.537   3.252   9.095 -0.2045 -2.9735  1.4548
   8723SM   C4F11676   4.697   3.214   9.230  0.1290  0.5109 -0.6046
   8723SM   H4F11677   4.801   3.174   9.238 -0.1864 -0.4508 -1.1422
   8723SM   H4G11678   4.627   3.153   9.292  1.4440  0.3078  0.7483
   8723SM   C5F11679   4.725   3.349   9.294  0.2196  0.4875 -0.0141
   8723SM   H5F11680   4.633   3.410   9.296  0.0428  0.2467 -0.5265
   8723SM   H5G11681   4.799   3.409   9.237 -0.2805  1.0056 -0.1241
   8723SM   C6F11682   4.777   3.342   9.443 -0.1286 -0.2107 -0.1117
   8723SM   H6F11683   4.779   3.451   9.466 -0.8065 -0.3973  0.8597
   8723SM   H6G11684   4.883   3.312   9.457 -0.5272 -0.4645  2.8952
   8723SM   C7F11685   4.683   3.267   9.541 -0.1006 -0.4018  0.9058
   8723SM   H7F11686   4.662   3.165   9.501  2.5761 -1.4348  1.8844
   8723SM   H7G11687   4.598   3.333   9.568  0.6875  1.6715 -1.3363
   8723SM   C8F11688   4.762   3.263   9.674  0.2092 -0.0574  1.0745
   8723SM   H8F11689   4.798   3.363   9.705  1.5321 -0.8951  2.3707
   8723SM   H8G11690   4.843   3.193   9.643 -0.5635 -0.6324  0.3081
   8723SM   C9F11691   4.678   3.223   9.789 -0.5330 -0.1854 -0.1435
   8723SM   H9F11692   4.619   3.129   9.776  0.0712 -0.2996 -2.6817
   8723SM   H9G11693   4.599   3.299   9.803 -0.5514  0.0110 -1.2068
   8723SM  C10F11694   4.766   3.222   9.925  0.9560  0.2945  0.4442
   8723SM  H10F11695   4.813   3.321   9.939 -1.3538  1.3298  1.5262
   8723SM  H10G11696   4.842   3.141   9.919  0.6766  0.1355 -2.1570
   8723SM  C11F11697   4.677   3.205  10.050 -0.8920  0.2662  0.0306
   8723SM  H11F11698   4.600   3.125  10.046 -0.6573 -0.0081  0.7149
   8723SM  H11G11699   4.619   3.299  10.061 -2.4333 -0.6450 -0.0050
   8723SM  C12F11700   4.753   3.187  10.188 -0.5585  0.3471 -0.4637
   8723SM  H12F11701   4.825   3.271  10.195 -0.5807  0.3481 -0.2493
   8723SM  H12G11702   4.806   3.090  10.186  1.5122  1.4316 -1.6838
   8723SM  C13F11703   4.656   3.188  10.313 -0.3846  0.0157 -0.1096
   8723SM  H13F11704   4.579   3.109  10.301 -0.3273 -0.1399  0.5179
   8723SM  H13G11705   4.606   3.287  10.320 -1.8741 -0.8100  2.0432
   8723SM  C14F11706   4.731   3.165  10.444 -0.0970 -0.7180  0.2316
   8723SM  H14F11707   4.817   3.232  10.468  0.6214 -1.5256 -0.0645
   8723SM  H14G11708   4.777   3.065  10.434  1.6242 -0.4085  3.5929
   8723SM  C15F11709   4.628   3.152  10.560 -0.0602 -0.5338  0.4125
   8723SM  H15F11710   4.568   3.063  10.535 -1.4432  0.5333 -0.1994
   8723SM  H15G11711   4.572   3.248  10.556  0.2944 -0.3345  0.0856
   8723SM  C16F11712   4.704   3.148  10.691  0.1515  1.2155 -1.0118
   8723SM  H16F11713   4.754   3.245  10.710  2.7981 -0.3533  0.4974
   8723SM  H16G11714   4.779   3.067  10.682 -1.2216 -0.0765 -1.1359
   8723SM  C17F11715   4.621   3.111  10.819 -0.3411  0.2084  0.1332
   8723SM  H17F11716   4.552   3.031  10.783  1.3751 -1.3214  0.1191
   8723SM  H17G11717   4.546   3.191  10.837  0.5012  1.6438 -2.2587
   8723SM  C18F11718   4.701   3.068  10.935  1.0575  1.3824  0.1257
   8723SM  H18F11719   4.756   3.156  10.973  0.2117  1.7480  0.5226
   8723SM  H18G11720   4.772   2.988  10.903 -1.7118 -0.3651 -2.2205
   8723SM  C19F11721   4.616   3.014  11.046  0.5998  0.5483 -0.1299
   8723SM  H19F11722   4.588   2.909  11.019  1.9692  0.9865 -3.7519
   8723SM  H19G11723   4.528   3.072  11.082  0.6058 -0.5052  1.7710
   8723SM  C20F11724   4.701   3.021  11.175  0.3702 -0.1896 -0.0624
   8723SM  H20F11725   4.704   3.130  11.193 -0.7621  0.1327 -1.6190
   8723SM  H20G11726   4.804   2.988  11.149  1.6829  2.9036  0.7851
   8723SM  C21F11727   4.661   2.946  11.301  0.6783 -0.1567  0.5994
   8723SM  H21F11728   4.733   2.960  11.384  0.8521 -0.4950  0.5048
   8723SM  H21G11729   4.668   2.839  11.274 -0.3609 -0.2899  0.7995
   8723SM  C22F11730   4.518   2.976  11.367  0.2661 -0.2275 -0.1744
   8723SM  H22F11731   4.436   2.975  11.293 -1.0362  1.8098  1.1435
   8723SM  H22G11732   4.527   3.081  11.405 -1.3048 -0.4669  0.9762
   8723SM  C23F11733   4.482   2.881  11.481 -0.0140 -0.9041  0.7200
   8723SM  H23F11734   4.571   2.861  11.544  1.4173  0.1254 -0.9088
   8723SM  H23G11735   4.448   2.788  11.431 -0.2994  0.9952 -2.9410
   8723SM  H23H11736   4.408   2.935  11.545  2.1136  1.9181  0.9830
   8823SM     N11737   2.775   4.767   8.536 -0.0121 -0.3790  0.0481
   8823SM   C1511738   2.803   4.824   8.407 -0.0182 -0.5150  0.9125
   8823SM  H15A11739   2.719   4.855   8.347  0.8719 -0.0047 -0.0951
   8823SM  H15B11740   2.856   4.755   8.343 -2.3407 -0.3971 -1.2762
   8823SM  H15C11741   2.866   4.911   8.415 -0.5950 -0.2243  2.7699
   8823SM   C1411742   2.903   4.717   8.582 -0.7189  0.6211  0.1167
   8823SM  H14A11743   2.905   4.677   8.683 -2.7196  0.1249  0.0189
   8823SM  H14B11744   2.978   4.793   8.566 -0.2777  0.1371 -0.1373
   8823SM  H14C11745   2.925   4.631   8.520 -0.1881  1.2945 -0.6312
   8823SM   C1311746   2.737   4.868   8.641 -0.1271  0.2236  0.6706
   8823SM  H13A11747   2.633   4.893   8.625 -0.5229 -2.0138 -0.6761
   8823SM  H13B11748   2.789   4.961   8.623 -1.8417  0.9101 -1.1235
   8823SM  H13C11749   2.754   4.838   8.743  1.7066 -0.1841  0.2753
   8823SM   C1211750   2.664   4.661   8.518 -0.2636  0.0792 -0.7967
   8823SM  H12A11751   2.581   4.707   8.466 -0.1856  2.2785  0.8952
   8823SM  H12B11752   2.626   4.636   8.616 -0.1496  0.0912 -0.7497
   8823SM   C1111753   2.696   4.540   8.437 -0.2842  0.2895 -0.1914
   8823SM  H11A11754   2.719   4.573   8.334  1.4514 -1.2902 -0.3488
   8823SM  H11B11755   2.602   4.480   8.432 -1.9276  2.5316  1.3873
   8823SM     P11756   2.789   4.359   8.608  0.2142  0.1431 -0.5373
   8823SM   O1311757   2.776   4.232   8.538  0.0575 -0.1473  0.1522
   8823SM   O1411758   2.896   4.379   8.710  0.2678  0.6877 -0.1947
   8823SM   O1111759   2.655   4.410   8.667  0.0481 -0.5220 -0.2637
   8823SM   O1211760   2.812   4.464   8.493  0.1738  0.3520 -0.0461
   8823SM   C1S11761   2.563   4.319   8.726  0.1269  0.7956 -0.3557
   8823SM   H1S11762   2.576   4.211   8.705 -0.4090  0.4892  0.8526
   8823SM   H1T11763   2.457   4.346   8.710  0.3889  2.0272 -0.1463
   8823SM    NF11764   2.485   4.218   8.948 -0.3374 -0.2540  0.8046
   8823SM   HNF11765   2.391   4.236   8.977  0.0200  0.7806  1.3806
   8823SM   C2S11766   2.564   4.325   8.883 -0.4494 -0.5358  0.4215
   8823SM   H2S11767   2.669   4.322   8.918 -0.2301  0.4790 -0.0883
   8823SM   C3S11768   2.516   4.465   8.925 -0.1417  0.1058 -0.3109
   8823SM   H3S11769   2.411   4.468   8.887  0.2411  2.3363 -1.3147
   8823SM    O311770   2.581   4.576   8.859  0.7962  0.0278  0.1596
   8823SM   HO311771   2.621   4.545   8.777 -1.6243 -0.4694 -0.9361
   8823SM   C4S11772   2.511   4.480   9.080  0.1108 -0.5472  0.5651
   8823SM   H4S11773   2.421   4.441   9.130 -2.3987  2.1878 -1.4346
   8823SM   C5S11774   2.592   4.547   9.167  0.2197 -0.6146 -0.3050
   8823SM   H5S11775   2.683   4.602   9.138  2.4681 -2.6534  2.3830
   8823SM   C6S11776   2.552   4.555   9.314  0.3374 -0.0742 -0.1911
   8823SM   H6S11777   2.447   4.519   9.324  0.4252 -0.5202 -0.8229
   8823SM   H6T11778   2.537   4.658   9.353 -1.9161 -0.3467 -0.2158
   8823SM   C7S11779   2.638   4.480   9.413  0.0337 -0.0807 -0.5838
   8823SM   H7S11780   2.734   4.537   9.410 -0.0862  0.1093 -0.8168
   8823SM   H7T11781   2.654   4.372   9.391 -1.9587 -0.2468 -1.4566
   8823SM   C8S11782   2.589   4.500   9.557  0.2812  0.1245 -1.5134
   8823SM   H8S11783   2.512   4.421   9.570  2.2566 -1.6822  0.0694
   8823SM   H8T11784   2.546   4.600   9.578 -1.2180 -0.3829 -2.1002
   8823SM   C9S11785   2.684   4.446   9.663  0.0778 -0.4531  0.2713
   8823SM   H9S11786   2.778   4.498   9.633 -1.1376 -0.3568 -3.9947
   8823SM   H9T11787   2.701   4.337   9.673  0.8274 -0.2332  1.6951
   8823SM  C10S11788   2.657   4.496   9.809  0.4329 -0.0999 -0.5844
   8823SM  H10S11789   2.559   4.467   9.850 -0.3665  4.3539  1.2323
   8823SM  H10T11790   2.657   4.607   9.811 -1.3014 -0.0914 -0.2574
   8823SM  C11S11791   2.763   4.452   9.913 -0.1300 -0.7183  0.4627
   8823SM  H11S11792   2.861   4.487   9.874 -0.8721 -0.9136 -1.7257
   8823SM  H11T11793   2.763   4.341   9.914 -0.4114 -0.7166  0.7309
   8823SM  C12S11794   2.729   4.511  10.047  0.5380 -0.2119 -0.0038
   8823SM  H12S11795   2.621   4.493  10.069  0.6202  0.2121  0.7875
   8823SM  H12T11796   2.747   4.621  10.047  1.8542 -0.4064  0.8407
   8823SM  C13S11797   2.819   4.450  10.155  0.1358 -0.3818 -0.0050
   8823SM  H13S11798   2.926   4.473  10.135 -0.0696 -0.1558 -0.9175
   8823SM  H13T11799   2.809   4.339  10.155  0.9127 -0.4640 -0.9169
   8823SM  C14S11800   2.779   4.486  10.299 -0.1680  0.7180  0.0270
   8823SM  H14S11801   2.669   4.474  10.304  0.0518 -1.4055  1.3853
   8823SM  H14T11802   2.799   4.593  10.318 -0.0706  0.3273  2.5265
   8823SM  C15S11803   2.853   4.413  10.407  0.1962  0.7046  0.1835
   8823SM  H15S11804   2.962   4.428  10.389  0.9567 -0.9241  2.9038
   8823SM  H15T11805   2.825   4.306  10.410 -1.1553  1.0436  0.1649
   8823SM  C16S11806   2.832   4.468  10.553 -0.1656  0.0640  0.6103
   8823SM  H16S11807   2.725   4.470  10.583 -0.2711  0.0272  0.2443
   8823SM  H16T11808   2.870   4.572  10.548 -1.5676  0.6326  1.2403
   8823SM  C17S11809   2.914   4.391  10.656  0.0633 -0.2580 -0.0451
   8823SM  H17S11810   3.015   4.382  10.610  0.4319  2.1710  0.1663
   8823SM  H17T11811   2.876   4.289  10.679  0.7436 -0.3425  0.7357
   8823SM  C18S11812   2.947   4.466  10.781  0.4517  0.8085 -0.0931
   8823SM  H18S11813   2.965   4.574  10.763  1.3797  0.6040 -0.4577
   8823SM  H18T11814   3.031   4.418  10.837 -1.4968 -0.9846  1.4395
   8823SM  H18U11815   2.858   4.467  10.848  1.4093  1.3844  1.2297
   8823SM   C1F11816   2.524   4.091   8.948 -0.2059 -0.0153  0.4182
   8823SM    OF11817   2.622   4.064   8.880 -0.1565  0.4858  0.0513
   8823SM   C2F11818   2.450   3.986   9.029 -0.2092 -0.3364  0.3500
   8823SM   H2F11819   2.365   3.937   8.977  0.1386 -0.5980  0.0215
   8823SM   H2G11820   2.418   4.042   9.120  1.3924  1.0349  0.1213
   8823SM   C3F11821   2.536   3.868   9.078 -0.5056 -0.4542  0.1774
   8823SM   H3F11822   2.569   3.827   8.980 -0.8124  0.3140 -0.2572
   8823SM   H3G11823   2.468   3.792   9.122 -0.0602 -0.5790  0.6532
   8823SM   C4F11824   2.651   3.893   9.169 -0.0639 -0.2342  0.2177
   8823SM   H4F11825   2.733   3.952   9.123  0.1690 -1.8613 -1.5461
   8823SM   H4G11826   2.695   3.794   9.193  0.5776  0.1094  0.4942
   8823SM   C5F11827   2.616   3.943   9.304  0.4183 -0.5573 -0.2344
   8823SM   H5F11828   2.541   3.880   9.356 -0.4895  1.3912  0.8958
   8823SM   H5G11829   2.570   4.043   9.317 -0.2783 -1.2004  3.2112
   8823SM   C6F11830   2.732   3.948   9.402  0.5613  0.3100  0.0332
   8823SM   H6F11831   2.819   4.013   9.380  1.8733 -1.1612  0.6534
   8823SM   H6G11832   2.784   3.851   9.390 -1.6036 -1.1770  1.6747
   8823SM   C7F11833   2.691   3.978   9.544 -0.4787  0.3045 -0.3902
   8823SM   H7F11834   2.604   3.914   9.568  0.1726 -1.5008 -2.5267
   8823SM   H7G11835   2.662   4.084   9.559  0.4912  0.7296 -1.3569
   8823SM   C8F11836   2.807   3.959   9.649  0.5960 -0.0620  0.1624
   8823SM   H8F11837   2.889   4.029   9.622  1.0062  0.8838  3.5062
   8823SM   H8G11838   2.844   3.856   9.634  1.5108  0.3955 -0.8794
   8823SM   C9F11839   2.761   3.976   9.790 -0.2813 -0.0958 -0.5657
   8823SM   H9F11840   2.668   3.919   9.811  0.0279 -0.1239  0.8499
   8823SM   H9G11841   2.736   4.082   9.814  2.0287  0.2836  0.4613
   8823SM  C10F11842   2.870   3.947   9.899  0.5291 -0.6598  0.7184
   8823SM  H10F11843   2.965   3.998   9.870  0.4564 -1.1597 -0.4673
   8823SM  H10G11844   2.898   3.839   9.898  0.8535 -0.6435 -2.6335
   8823SM  C11F11845   2.826   3.993  10.042  0.4390  0.0273 -0.8333
   8823SM  H11F11846   2.729   3.943  10.061  0.2554 -0.3440 -2.5431
   8823SM  H11G11847   2.812   4.104  10.038  1.7800  0.2731  0.3901
   8823SM  C12F11848   2.919   3.956  10.160 -0.5094 -0.3756  0.5327
   8823SM  H12F11849   3.010   4.017  10.150 -2.4007  2.5427 -0.0748
   8823SM  H12G11850   2.940   3.847  10.158  2.1482  0.1014 -0.7741
   8823SM  C13F11851   2.843   3.999  10.286 -0.3910  0.0929 -0.0765
   8823SM  H13F11852   2.751   3.939  10.302  0.1755 -0.3711  1.7544
   8823SM  H13G11853   2.828   4.108  10.303 -2.1007  0.2200 -1.9506
   8823SM  C14F11854   2.934   3.955  10.407 -0.0143  0.2097  0.3404
   8823SM  H14F11855   3.026   4.017  10.408  0.6162 -0.6903 -0.0342
   8823SM  H14G11856   2.964   3.848  10.416  0.9775  0.4240 -0.2219
   8823SM  C15F11857   2.855   3.982  10.531 -0.0099  0.0663 -0.0209
   8823SM  H15F11858   2.753   3.938  10.521  0.8375 -1.7295 -1.0946
   8823SM  H15G11859   2.846   4.091  10.549  0.6893 -0.1986  2.2453
   8823SM  C16F11860   2.922   3.927  10.663  0.9293 -0.5393 -0.3872
   8823SM  H16F11861   3.032   3.931  10.658  0.9011 -0.0899 -0.7511
   8823SM  H16G11862   2.914   3.818  10.683  1.0112 -1.0855 -2.9860
   8823SM  C17F11863   2.888   4.002  10.794 -0.4763 -0.2824  0.5316
   8823SM  H17F11864   2.778   3.987  10.799 -0.6303  0.6773  0.2214
   8823SM  H17G11865   2.919   4.108  10.792 -0.6709 -0.1498  2.3419
   8823SM  C18F11866   2.962   3.947  10.917  0.3185  0.0707 -0.2304
   8823SM  H18F11867   3.025   3.859  10.889 -0.6570 -0.5114 -0.6426
   8823SM  H18G11868   2.897   3.908  10.998 -0.2511  4.7035  1.8600
   8823SM  C19F11869   3.063   4.040  10.987  0.2784 -0.4175 -0.4013
   8823SM  H19F11870   3.134   4.080  10.912  0.4979  0.0963  0.0745
   8823SM  H19G11871   3.122   3.989  11.065  0.3231  1.0102  0.5383
   8823SM  C20F11872   2.992   4.161  11.053  0.4170  0.5456  1.1505
   8823SM  H20F11873   2.920   4.127  11.131 -2.5262 -0.4076 -1.7404
   8823SM  H20G11874   2.928   4.217  10.982 -0.0316  0.0895  1.1881
   8823SM  C21F11875   3.094   4.261  11.103 -0.6336  0.5654  0.3284
   8823SM  H21F11876   3.161   4.284  11.017  0.1873  2.0021  1.3122
   8823SM  H21G11877   3.153   4.215  11.185  0.1926 -0.4368 -0.7932
   8823SM  C22F11878   3.041   4.396  11.145 -0.5899  0.5400 -0.1711
   8823SM  H22F11879   2.961   4.389  11.221 -1.0999  1.1632 -0.6451
   8823SM  H22G11880   2.990   4.437  11.055  1.0186  0.2231 -1.2742
   8823SM  C23F11881   3.136   4.508  11.186  0.8160 -0.7152  0.0701
   8823SM  H23F11882   3.202   4.540  11.103 -1.2595  0.6700 -1.1230
   8823SM  H23G11883   3.198   4.505  11.278  1.4640  3.3965 -0.0406
   8823SM  H23H11884   3.076   4.601  11.199  1.1883 -0.2446 -1.4492
   8923SM     N11885   6.526   3.202   9.081  0.1389  0.1859 -0.3071
   8923SM   C1511886   6.445   3.167   9.201  0.5546  0.4575  0.2009
   8923SM  H15A11887   6.458   3.245   9.275  0.4409  3.7451 -2.9432
   8923SM  H15B11888   6.478   3.071   9.237  1.3124  1.0974  1.2938
   8923SM  H15C11889   6.341   3.168   9.175  0.3503 -1.3490  0.8556
   8923SM   C1411890   6.674   3.191   9.116 -0.5350  0.4599 -0.3004
   8923SM  H14A11891   6.695   3.091   9.151  0.5087 -0.1954 -2.5670
   8923SM  H14B11892   6.706   3.246   9.203  1.2997 -3.0634  1.4579
   8923SM  H14C11893   6.735   3.205   9.027 -0.4737 -1.0191 -0.5069
   8923SM   C1311894   6.487   3.104   8.972  0.2743 -0.2953 -0.0104
   8923SM  H13A11895   6.391   3.131   8.931 -0.0746 -2.5759 -0.8374
   8923SM  H13B11896   6.471   3.006   9.015  0.8396 -0.8678 -1.0597
   8923SM  H13C11897   6.565   3.092   8.898 -1.3118 -1.9015 -1.5274
   8923SM   C1211898   6.500   3.341   9.035  0.0794  0.1732  0.0259
   8923SM  H12A11899   6.564   3.366   8.952  0.8666  0.0219  0.5750
   8923SM  H12B11900   6.525   3.416   9.109  0.8879  0.8662 -0.9187
   8923SM   C1111901   6.355   3.379   8.997 -0.1476  0.4963 -0.0518
   8923SM  H11A11902   6.353   3.489   8.978 -3.9357  0.8176  1.4525
   8923SM  H11B11903   6.281   3.353   9.075 -0.2934 -0.7836 -0.5884
   8923SM     P11904   6.157   3.336   8.824 -0.6361  0.0929 -0.3135
   8923SM   O1311905   6.148   3.474   8.771  0.2489  0.2263 -0.1851
   8923SM   O1411906   6.126   3.224   8.730  0.0849 -0.3567  0.9037
   8923SM   O1111907   6.064   3.312   8.951 -0.0759 -0.3023  0.6608
   8923SM   O1211908   6.306   3.313   8.877 -0.7140  0.2434  0.4262
   8923SM   C1S11909   6.070   3.186   9.017 -0.0664 -0.0999  0.5568
   8923SM   H1S11910   6.173   3.180   9.059  0.4538  1.2077 -0.4643
   8923SM   H1T11911   6.030   3.107   8.950 -0.8758 -0.0576  0.9792
   8923SM    NF11912   5.999   3.070   9.227 -0.2205  0.5602 -0.1038
   8923SM   HNF11913   5.934   2.998   9.208  0.5971 -0.2358  0.0314
   8923SM   C2S11914   5.974   3.191   9.147 -0.3012 -0.2153 -0.1111
   8923SM   H2S11915   6.000   3.280   9.208  0.8416  0.4823 -1.5548
   8923SM   C3S11916   5.827   3.206   9.106 -0.6285  0.5327 -1.4276
   8923SM   H3S11917   5.797   3.115   9.049  1.0837 -0.8551 -0.2383
   8923SM    O311918   5.803   3.330   9.042 -0.6260  0.6904  0.1470
   8923SM   HO311919   5.885   3.373   9.018 -0.8576  0.5700 -0.8782
   8923SM   C4S11920   5.749   3.198   9.230  0.1259 -0.4599  0.0695
   8923SM   H4S11921   5.762   3.105   9.288 -1.6303 -0.7835  0.0277
   8923SM   C5S11922   5.669   3.290   9.288  0.0333 -0.3409 -0.2393
   8923SM   H5S11923   5.665   3.393   9.251 -0.2148 -0.3015 -0.1053
   8923SM   C6S11924   5.590   3.271   9.417 -0.6818  0.8978  0.1649
   8923SM   H6S11925   5.541   3.171   9.413  1.0670 -0.2500  3.6046
   8923SM   H6T11926   5.512   3.351   9.414 -0.5820  1.0313  1.0007
   8923SM   C7S11927   5.665   3.267   9.551 -0.3755 -0.3737  0.3091
   8923SM   H7S11928   5.742   3.347   9.552 -2.5316  1.8184  1.0437
   8923SM   H7T11929   5.718   3.171   9.568 -1.0322 -0.5262  1.5456
   8923SM   C8S11930   5.561   3.292   9.661  0.4173 -0.6018 -0.1620
   8923SM   H8S11931   5.465   3.239   9.644 -1.1577  1.7884  0.7777
   8923SM   H8T11932   5.551   3.402   9.667  1.2969 -0.5362  0.3091
   8923SM   C9S11933   5.606   3.242   9.806  1.1244  0.4176 -0.6398
   8923SM   H9S11934   5.706   3.282   9.834  0.6086  0.3055  1.4783
   8923SM   H9T11935   5.603   3.132   9.790 -0.7372  0.4988 -1.0435
   8923SM  C10S11936   5.503   3.286   9.904  0.5442  0.1516 -0.1045
   8923SM  H10S11937   5.411   3.224   9.898  1.2058 -0.7200 -3.2931
   8923SM  H10T11938   5.463   3.387   9.880 -1.0191 -0.4220 -0.0242
   8923SM  C11S11939   5.556   3.278  10.053  0.1728 -0.1173 -0.1389
   8923SM  H11S11940   5.471   3.303  10.120  0.6740  0.2609  0.3660
   8923SM  H11T11941   5.634   3.357  10.062 -1.1826  1.5679 -2.1923
   8923SM  C12S11942   5.609   3.144  10.093  0.1239  0.4431  0.1754
   8923SM  H12S11943   5.688   3.115  10.021  1.0432  0.8444  1.0102
   8923SM  H12T11944   5.523   3.073  10.084 -0.1777  0.7497  0.6009
   8923SM  C13S11945   5.653   3.149  10.240 -0.1739 -0.3820 -0.3435
   8923SM  H13S11946   5.677   3.252  10.274  0.9666 -0.5837 -0.5223
   8923SM  H13T11947   5.745   3.088  10.241  0.2705  0.2496 -1.4026
   8923SM  C14S11948   5.551   3.085  10.343 -0.0059 -0.2057  0.1211
   8923SM  H14S11949   5.569   2.976  10.345  2.6253  0.1608  0.0549
   8923SM  H14T11950   5.446   3.112  10.320  0.7475  2.5778 -0.5474
   8923SM  C15S11951   5.583   3.132  10.486  0.4475 -0.8146  0.7833
   8923SM  H15S11952   5.584   3.243  10.491 -0.6173 -0.6708 -1.1115
   8923SM  H15T11953   5.684   3.104  10.521  0.5910 -0.6028  0.5437
   8923SM  C16S11954   5.477   3.074  10.580 -1.0673 -0.6823 -0.4340
   8923SM  H16S11955   5.493   2.964  10.581 -1.3721 -0.7614 -1.8259
   8923SM  H16T11956   5.376   3.103  10.542 -0.4097  2.5724 -0.0312
   8923SM  C17S11957   5.486   3.134  10.720 -0.0624  0.1948 -0.2626
   8923SM  H17S11958   5.442   3.236  10.729 -1.7489 -0.5450  0.3963
   8923SM  H17T11959   5.593   3.142  10.751 -0.9086 -2.4295  4.2962
   8923SM  C18S11960   5.398   3.042  10.809  0.1706 -0.7096 -1.0534
   8923SM  H18S11961   5.311   3.000  10.754 -1.3434  1.8682 -0.8047
   8923SM  H18T11962   5.362   3.094  10.900  0.8025 -0.4499 -0.9500
   8923SM  H18U11963   5.459   2.953  10.837 -2.1980 -1.1038  4.0294
   8923SM   C1F11964   6.120   3.062   9.292  0.3342 -0.3354 -0.3823
   8923SM    OF11965   6.178   3.167   9.315 -0.0361  0.4771 -0.0112
   8923SM   C2F11966   6.173   2.930   9.323 -0.0807  0.5962  0.4469
   8923SM   H2F11967   6.261   2.902   9.261 -1.6634 -0.2187 -1.5345
   8923SM   H2G11968   6.105   2.849   9.291  1.2038 -0.4944  0.3740
   8923SM   C3F11969   6.227   2.918   9.469 -0.5620 -0.1587  0.0249
   8923SM   H3F11970   6.158   2.951   9.550 -1.9338 -0.9556 -0.7804
   8923SM   H3G11971   6.315   2.985   9.482 -1.6524  1.1705  0.9055
   8923SM   C4F11972   6.284   2.775   9.486  0.0133  0.0681 -0.0073
   8923SM   H4F11973   6.369   2.762   9.416  1.2201 -0.0564  1.4271
   8923SM   H4G11974   6.203   2.706   9.454 -1.6110  1.5210  0.8011
   8923SM   C5F11975   6.331   2.737   9.625  0.0900  0.3279 -0.7339
   8923SM   H5F11976   6.382   2.639   9.628  1.9161  1.2239  1.9585
   8923SM   H5G11977   6.240   2.730   9.689  0.2129  0.9990 -0.4677
   8923SM   C6F11978   6.429   2.836   9.683 -0.0067 -0.0987 -1.1176
   8923SM   H6F11979   6.420   2.829   9.793 -1.4430  3.3744 -0.8714
   8923SM   H6G11980   6.410   2.941   9.652  1.2405  0.8186  0.9706
   8923SM   C7F11981   6.574   2.787   9.655  0.6900 -0.0072 -0.6279
   8923SM   H7F11982   6.560   2.726   9.563 -1.0699 -1.6903  0.6906
   8923SM   H7G11983   6.600   2.720   9.740 -0.8218  1.2894  0.9236
   8923SM   C8F11984   6.675   2.899   9.633  0.3446  0.1792 -0.9152
   8923SM   H8F11985   6.651   2.956   9.540 -1.0863 -0.0585 -0.7216
   8923SM   H8G11986   6.771   2.851   9.603  1.7559  1.6585  0.9808
   8923SM   C9F11987   6.681   3.003   9.749 -0.2163  0.7909 -0.1105
   8923SM   H9F11988   6.584   3.057   9.744 -1.3168 -0.8318  2.0755
   8923SM   H9G11989   6.770   3.069   9.744 -0.4848  1.2622  1.0987
   8923SM  C10F11990   6.685   2.935   9.887  0.4979 -0.6775  0.2182
   8923SM  H10F11991   6.750   2.845   9.886 -0.3813 -1.3158 -0.5497
   8923SM  H10G11992   6.581   2.909   9.915 -0.7466 -0.0675 -3.2420
   8923SM  C11F11993   6.747   3.017  10.000  0.6445 -0.5179  0.6668
   8923SM  H11F11994   6.700   3.116  10.019 -0.4711 -0.9177  0.0817
   8923SM  H11G11995   6.854   3.029   9.972  0.1017 -1.5419 -2.1987
   8923SM  C12F11996   6.738   2.939  10.135 -0.0972  0.4013 -0.1951
   8923SM  H12F11997   6.793   2.845  10.117 -0.7411  0.2324 -1.3892
   8923SM  H12G11998   6.632   2.906  10.144  1.0228 -3.4967  0.3229
   8923SM  C13F11999   6.787   3.030  10.243 -0.1762 -0.2487 -0.1094
   8923SM  H13F12000   6.719   3.118  10.249 -0.1061 -0.2976  2.8049
   8923SM  H13G12001   6.887   3.061  10.207 -0.2636 -2.2540 -2.3171
   8923SM  C14F12002   6.790   2.977  10.384  0.7569 -0.5759 -0.0947
   8923SM  H14F12003   6.841   2.879  10.383  0.2407 -0.8444 -0.7827
   8923SM  H14G12004   6.686   2.962  10.420  0.8243 -0.1716  0.2849
   8923SM  C15F12005   6.845   3.070  10.493  0.4728  0.4401 -0.1309
   8923SM  H15F12006   6.775   3.156  10.494 -1.8251 -1.3315  0.6584
   8923SM  H15G12007   6.947   3.107  10.467  0.5373  0.6726  0.4398
   8923SM  C16F12008   6.857   3.008  10.638 -0.2335 -0.0696 -0.7184
   8923SM  H16F12009   6.950   2.948  10.629  0.0319  0.5108 -2.3210
   8923SM  H16G12010   6.776   2.938  10.666 -0.3245  0.0987 -0.5620
   8923SM  C17F12011   6.867   3.109  10.753  0.4816 -0.2802  0.1177
   8923SM  H17F12012   6.789   3.188  10.746  1.9260  1.1018 -1.2014
   8923SM  H17G12013   6.960   3.169  10.749 -0.1805  0.7961  0.3770
   8923SM  C18F12014   6.865   3.037  10.891  0.1061  0.0148  0.1577
   8923SM  H18F12015   6.914   2.937  10.893  1.8382  0.8329  1.9557
   8923SM  H18G12016   6.755   3.026  10.906 -0.0772  1.8102  0.3352
   8923SM  C19F12017   6.917   3.121  11.006  1.0136 -0.0396 -0.1718
   8923SM  H19F12018   6.845   3.205  11.011  0.4250 -0.2965 -2.8928
   8923SM  H19G12019   7.003   3.171  10.956 -0.1979  0.4207 -1.8720
   8923SM  C20F12020   6.931   3.048  11.134  0.2260 -0.9334  0.3744
   8923SM  H20F12021   7.010   2.970  11.136  0.5040 -0.6352  1.1839
   8923SM  H20G12022   6.836   3.006  11.172  0.1537 -0.1355  1.1027
   8923SM  C21F12023   6.979   3.147  11.258 -0.5086  0.3437  0.9878
   8923SM  H21F12024   7.059   3.216  11.223 -0.1879 -1.1013 -1.3866
   8923SM  H21G12025   7.008   3.085  11.345  1.0536  0.1475  0.3740
   8923SM  C22F12026   6.863   3.236  11.307  0.2122 -0.1306  0.7112
   8923SM  H22F12027   6.768   3.180  11.314 -0.0454  0.3662  1.2127
   8923SM  H22G12028   6.839   3.312  11.229 -2.0625  0.0628  1.5328
   8923SM  C23F12029   6.882   3.313  11.439 -0.2652  0.0254 -0.5051
   8923SM  H23F12030   6.969   3.381  11.444  0.4975 -0.9842  0.2390
   8923SM  H23G12031   6.896   3.248  11.527  0.1774 -0.2197 -0.7516
   8923SM  H23H12032   6.786   3.367  11.454  0.8039  1.6328  0.9297
   9023SM     N12033   6.178   3.323   8.368  0.6556  0.2106  0.6757
   9023SM   C1512034   6.258   3.377   8.486 -0.5432 -0.2693  0.3595
   9023SM  H15A12035   6.335   3.437   8.440  2.1663 -2.2847  1.9524
   9023SM  H15B12036   6.299   3.287   8.529 -0.6346 -0.4756  0.0148
   9023SM  H15C12037   6.192   3.443   8.541 -1.5251  1.4029 -2.6154
   9023SM   C1412038   6.159   3.429   8.268 -0.0175 -0.0608 -0.4257
   9023SM  H14A12039   6.107   3.396   8.179 -0.0907  0.0060 -0.4085
   9023SM  H14B12040   6.251   3.478   8.239 -0.0306  0.4093  0.2912
   9023SM  H14C12041   6.092   3.501   8.313  1.4005  0.6041  0.7083
   9023SM   C1312042   6.256   3.209   8.309  0.0191 -0.3228  0.5327
   9023SM  H13A12043   6.264   3.133   8.385 -3.6182 -0.9014  0.5285
   9023SM  H13B12044   6.344   3.247   8.260 -1.5124  0.7204 -1.5940
   9023SM  H13C12045   6.199   3.168   8.226 -0.8877  0.5736  0.6994
   9023SM   C1212046   6.050   3.252   8.411 -0.4444 -0.9947 -0.7935
   9023SM  H12A12047   6.075   3.169   8.475  3.1884  0.0197 -0.6771
   9023SM  H12B12048   6.000   3.209   8.325 -1.5291 -0.9194 -0.2283
   9023SM   C1112049   5.946   3.350   8.473 -0.2681  0.2626  0.7842
   9023SM  H11A12050   5.995   3.407   8.555 -1.7853  1.2099  1.0847
   9023SM  H11B12051   5.865   3.293   8.522 -0.6379  3.0702  3.8073
   9023SM     P12052   5.778   3.550   8.411  0.1266 -0.0528 -0.1293
   9023SM   O1312053   5.852   3.667   8.453  0.2338  0.2604 -0.1650
   9023SM   O1412054   5.689   3.554   8.290 -0.5349 -0.6187 -0.0230
   9023SM   O1112055   5.692   3.489   8.525  0.7641 -0.1957 -0.3122
   9023SM   O1212056   5.893   3.442   8.383 -0.2206 -0.0395 -0.0367
   9023SM   C1S12057   5.717   3.519   8.655  0.6667 -0.5125 -0.8111
   9023SM   H1S12058   5.728   3.627   8.682  0.6844 -1.0464  1.6152
   9023SM   H1T12059   5.809   3.473   8.697 -0.5549 -2.4473 -0.1347
   9023SM    NF12060   5.632   3.505   8.882 -0.4070 -0.4570 -0.1023
   9023SM   HNF12061   5.676   3.441   8.944  1.9499  0.2704 -0.9139
   9023SM   C2S12062   5.605   3.461   8.752  0.5691  0.8361 -0.2724
   9023SM   H2S12063   5.504   3.495   8.721  0.0468 -2.4136 -2.6951
   9023SM   C3S12064   5.587   3.302   8.727 -0.0164 -0.4787 -0.2747
   9023SM   H3S12065   5.690   3.260   8.735  1.3761  2.4915 -1.1264
   9023SM    O312066   5.551   3.280   8.591  0.2685  0.1604  0.0878
   9023SM   HO312067   5.564   3.366   8.550  0.0922  0.4235  0.5732
   9023SM   C4S12068   5.498   3.234   8.823 -0.4127 -0.4632  0.7216
   9023SM   H4S12069   5.536   3.238   8.926 -0.8253  1.8257  0.8310
   9023SM   C5S12070   5.385   3.167   8.796  0.0982 -0.6448 -0.0611
   9023SM   H5S12071   5.352   3.146   8.694  0.1384 -3.0084  0.3573
   9023SM   C6S12072   5.303   3.083   8.890 -0.0079 -0.0523  0.2921
   9023SM   H6S12073   5.321   2.975   8.872 -1.3812 -0.3341  0.4781
   9023SM   H6T12074   5.195   3.087   8.865  0.3450  0.5570 -1.2649
   9023SM   C7S12075   5.324   3.100   9.040  0.0871  0.0321  0.0633
   9023SM   H7S12076   5.281   3.196   9.074  0.6154 -0.4599  2.2527
   9023SM   H7T12077   5.432   3.103   9.064 -0.5670  0.3438  3.3670
   9023SM   C8S12078   5.272   2.980   9.121 -0.5247  0.6816  0.5521
   9023SM   H8S12079   5.318   2.884   9.089  0.5543  1.7659 -1.3972
   9023SM   H8T12080   5.174   2.961   9.073  0.8278 -1.0255 -1.7439
   9023SM   C9S12081   5.266   2.983   9.269  0.8767 -0.4768 -0.2598
   9023SM   H9S12082   5.368   3.013   9.299  1.0606  0.6746 -1.9197
   9023SM   H9T12083   5.251   2.876   9.298 -0.2447 -0.4231 -0.6071
   9023SM  C10S12084   5.149   3.068   9.320  0.1443 -0.2940  0.5812
   9023SM  H10S12085   5.062   3.057   9.253  0.4144  0.6900  0.0488
   9023SM  H10T12086   5.182   3.174   9.319 -1.7281  0.3246 -0.8970
   9023SM  C11S12087   5.094   3.037   9.461 -0.3015  0.4532  0.2064
   9023SM  H11S12088   5.059   2.932   9.458  2.2525 -0.4626 -0.3395
   9023SM  H11T12089   5.009   3.107   9.477 -0.0133  0.5537  1.3581
   9023SM  C12S12090   5.193   3.046   9.573  0.0297  0.3017  0.4205
   9023SM  H12S12091   5.205   3.155   9.594  0.3851  0.4389 -0.4901
   9023SM  H12T12092   5.290   3.007   9.537 -0.3296 -1.0362  0.8409
   9023SM  C13S12093   5.152   2.970   9.704 -0.2066  0.0364  0.0793
   9023SM  H13S12094   5.156   2.859   9.702 -0.0504  0.0456 -0.4998
   9023SM  H13T12095   5.044   2.990   9.718 -0.0214  0.1329  1.5122
   9023SM  C14S12096   5.232   3.004   9.832 -0.0529  0.3817 -0.0991
   9023SM  H14S12097   5.220   3.113   9.847  0.0814  0.3497  0.2542
   9023SM  H14T12098   5.342   2.987   9.820 -0.1989 -1.1866  0.5417
   9023SM  C15S12099   5.177   2.925   9.953 -0.0182  0.2466  0.7681
   9023SM  H15S12100   5.198   2.820   9.927  3.2363  0.9235  0.2448
   9023SM  H15T12101   5.069   2.951   9.954  0.4614  2.5503 -0.2470
   9023SM  C16S12102   5.238   2.975  10.083 -0.3659 -0.1353 -0.2160
   9023SM  H16S12103   5.256   3.085  10.086 -3.8457  0.5478 -0.8387
   9023SM  H16T12104   5.337   2.925  10.091 -0.2009  0.1339 -0.5492
   9023SM  C17S12105   5.161   2.944  10.208 -0.2674 -0.3121  0.5876
   9023SM  H17S12106   5.062   2.992  10.193 -0.9617 -0.9140  2.8396
   9023SM  H17T12107   5.203   2.994  10.298  1.3053  1.7357 -1.1848
   9023SM  C18S12108   5.124   2.797  10.237  0.0219 -0.2342 -0.4591
   9023SM  H18S12109   5.059   2.794  10.326  0.9303  1.7587  0.3362
   9023SM  H18T12110   5.217   2.739  10.257 -0.1827 -0.1231  0.8478
   9023SM  H18U12111   5.074   2.754  10.147  0.4729  0.1293 -0.8891
   9023SM   C1F12112   5.628   3.636   8.911 -0.4289  0.2280 -0.2572
   9023SM    OF12113   5.572   3.719   8.843 -0.0751 -0.0587  0.7915
   9023SM   C2F12114   5.698   3.671   9.042  0.0976 -1.0813 -0.6254
   9023SM   H2F12115   5.804   3.702   9.027 -0.6233  1.7001 -0.4203
   9023SM   H2G12116   5.705   3.590   9.118 -2.6014 -0.4570  0.4001
   9023SM   C3F12117   5.618   3.789   9.114  0.1056 -0.0860  0.3846
   9023SM   H3F12118   5.512   3.763   9.130  0.0058 -1.0319 -1.5168
   9023SM   H3G12119   5.616   3.876   9.044  1.7119  0.6938  1.2334
   9023SM   C4F12120   5.664   3.832   9.253 -0.1331 -0.4455  0.4201
   9023SM   H4F12121   5.596   3.919   9.270  1.8678  0.8050  2.7261
   9023SM   H4G12122   5.769   3.870   9.252 -0.8952  1.8314 -0.2070
   9023SM   C5F12123   5.643   3.730   9.367 -0.0985 -0.0221 -0.0818
   9023SM   H5F12124   5.705   3.641   9.340 -1.3789 -0.2261 -2.6226
   9023SM   H5G12125   5.542   3.685   9.360 -0.1464  0.3056 -2.5266
   9023SM   C6F12126   5.676   3.771   9.506  0.2365 -0.5943  0.0573
   9023SM   H6F12127   5.603   3.852   9.526 -0.3859 -0.7481 -1.4916
   9023SM   H6G12128   5.776   3.817   9.520  0.5906 -1.3686  0.1394
   9023SM   C7F12129   5.655   3.665   9.610  0.2082 -1.0885  0.5168
   9023SM   H7F12130   5.738   3.592   9.595  1.2410 -0.0352  0.9234
   9023SM   H7G12131   5.553   3.628   9.588 -0.1574  0.3783 -0.4204
   9023SM   C8F12132   5.661   3.722   9.754  0.5268 -0.3761  0.4190
   9023SM   H8F12133   5.567   3.772   9.784  0.5956 -0.2408  0.4059
   9023SM   H8G12134   5.738   3.801   9.752 -0.8947  1.0495  0.4281
   9023SM   C9F12135   5.688   3.612   9.855 -0.0434 -0.5645 -0.6747
   9023SM   H9F12136   5.788   3.571   9.834 -0.5450 -1.4126 -1.4891
   9023SM   H9G12137   5.612   3.531   9.850  0.6517 -1.3812  1.2589
   9023SM  C10F12138   5.673   3.664   9.999  0.5298 -0.5259 -0.3442
   9023SM  H10F12139   5.714   3.767  10.000 -0.6584  0.0496  3.3235
   9023SM  H10G12140   5.732   3.596  10.064  1.0726 -1.4817 -1.7675
   9023SM  C11F12141   5.528   3.665  10.057 -0.1733  0.3170 -0.1088
   9023SM  H11F12142   5.480   3.571  10.023 -0.5303  0.0274  1.1115
   9023SM  H11G12143   5.470   3.746  10.009 -2.9245 -1.0468  0.6614
   9023SM  C12F12144   5.506   3.708  10.209 -0.6034 -0.2662 -0.0026
   9023SM  H12F12145   5.397   3.731  10.213 -0.4616  0.5669 -0.6867
   9023SM  H12G12146   5.562   3.803  10.201 -2.2876  0.6308 -2.3613
   9023SM  C13F12147   5.565   3.607  10.310 -0.4990  0.7332  0.5134
   9023SM  H13F12148   5.660   3.562  10.274 -1.1292  0.8025 -1.3505
   9023SM  H13G12149   5.488   3.527  10.302 -0.9697  1.0931  1.2864
   9023SM  C14F12150   5.560   3.666  10.446  0.4636 -0.2157  0.3812
   9023SM  H14F12151   5.478   3.738  10.465  1.5617  1.3735 -0.6609
   9023SM  H14G12152   5.654   3.722  10.463 -0.5533  1.4072  0.8838
   9023SM  C15F12153   5.540   3.550  10.546  0.0603  0.0164 -0.6421
   9023SM  H15F12154   5.624   3.481  10.523 -0.1469 -0.1854 -0.7991
   9023SM  H15G12155   5.444   3.499  10.525  0.1675 -0.9856  1.0667
   9023SM  C16F12156   5.556   3.600  10.690 -0.1277  0.1636 -0.8118
   9023SM  H16F12157   5.485   3.681  10.720 -0.3242 -1.0308  2.3537
   9023SM  H16G12158   5.659   3.639  10.698 -0.8510  2.1540 -0.6088
   9023SM  C17F12159   5.531   3.485  10.788  0.1244 -0.7704  0.4710
   9023SM  H17F12160   5.603   3.401  10.799  1.7371  0.4168 -0.7390
   9023SM  H17G12161   5.448   3.425  10.744  0.3307 -1.4923  1.0355
   9023SM  C18F12162   5.482   3.520  10.929  0.4398  0.3584 -0.5408
   9023SM  H18F12163   5.404   3.599  10.935 -0.1339 -0.3273  1.5831
   9023SM  H18G12164   5.574   3.556  10.979  1.2468 -3.1518  0.8178
   9023SM  C19F12165   5.432   3.398  11.002  0.6986 -0.0201  0.3103
   9023SM  H19F12166   5.448   3.412  11.111  0.4567 -2.5654  0.7441
   9023SM  H19G12167   5.488   3.302  10.993 -2.9405 -2.3123 -0.1818
   9023SM  C20F12168   5.281   3.370  10.983 -0.3255  0.1529 -0.6165
   9023SM  H20F12169   5.269   3.323  10.883 -0.1652  1.9233 -1.5018
   9023SM  H20G12170   5.222   3.464  10.986 -0.1524  0.2788 -1.0313
   9023SM  C21F12171   5.222   3.293  11.106  0.5740 -0.0283  0.2193
   9023SM  H21F12172   5.232   3.368  11.187  2.1605  0.1639 -0.1217
   9023SM  H21G12173   5.258   3.190  11.130 -1.3940 -1.1300 -1.2129
   9023SM  C22F12174   5.071   3.263  11.083 -0.0935  0.1491 -0.3659
   9023SM  H22F12175   5.055   3.195  10.998 -0.7857 -1.8370  1.2774
   9023SM  H22G12176   5.028   3.362  11.057 -1.6766 -0.4595 -0.1784
   9023SM  C23F12177   5.014   3.204  11.207  0.0478  0.4380 -0.2489
   9023SM  H23F12178   5.056   3.101  11.209 -1.1725 -0.0869 -1.0958
   9023SM  H23G12179   4.907   3.178  11.202  0.4955 -1.8156  0.6069
   9023SM  H23H12180   5.048   3.254  11.301  0.6263  0.4014 -0.4321
   9123SM     N12181   5.990   5.663   8.403  0.2019  0.1678 -0.4884
   9123SM   C1512182   5.872   5.581   8.446  0.0614  0.7574 -0.3383
   9123SM  H15A12183   5.782   5.640   8.434 -1.4607 -1.8401 -3.0129
   9123SM  H15B12184   5.878   5.548   8.548  0.8559  3.2023  0.4699
   9123SM  H15C12185   5.863   5.495   8.381 -1.5152  0.1710  0.5955
   9123SM   C1412186   6.115   5.580   8.389 -0.0502 -0.1824 -0.3879
   9123SM  H14A12187   6.088   5.482   8.351 -1.3697  0.5661 -1.4638
   9123SM  H14B12188   6.164   5.575   8.485  1.6833  2.9352 -0.9828
   9123SM  H14C12189   6.174   5.640   8.322  1.0698 -2.0940 -1.1817
   9123SM   C1312190   5.963   5.717   8.268  0.2751 -0.0987  0.1294
   9123SM  H13A12191   5.880   5.787   8.271 -0.8186 -1.3635  2.6299
   9123SM  H13B12192   5.932   5.635   8.206  1.0935  0.5430 -1.1665
   9123SM  H13C12193   6.045   5.768   8.219 -1.6469  0.1708 -3.1011
   9123SM   C1212194   6.016   5.782   8.497  0.1170  0.4415  0.3227
   9123SM  H12A12195   5.933   5.850   8.478  0.2876 -0.2326 -3.5769
   9123SM  H12B12196   6.106   5.836   8.473 -0.4277  0.8959 -0.7477
   9123SM   C1112197   6.040   5.755   8.650 -0.0880 -0.0742 -0.0765
   9123SM  H11A12198   5.957   5.691   8.686  1.7905 -1.9179  1.2034
   9123SM  H11B12199   6.023   5.846   8.712  0.6717 -0.0013  0.0321
   9123SM     P12200   6.301   5.757   8.689 -0.2253 -0.3200  0.1018
   9123SM   O1312201   6.405   5.661   8.648  0.4093 -0.5450  0.1755
   9123SM   O1412202   6.306   5.879   8.611  0.0402 -0.1193 -0.7175
   9123SM   O1112203   6.309   5.791   8.844  0.1341  0.1779 -0.3181
   9123SM   O1212204   6.164   5.686   8.673  0.3248  0.1787 -0.1987
   9123SM   C1S12205   6.250   5.709   8.943 -0.2719  0.9077  0.0276
   9123SM   H1S12206   6.315   5.619   8.954  0.7940  1.8854  2.6164
   9123SM   H1T12207   6.148   5.674   8.918  0.3562 -0.1920 -1.1032
   9123SM    NF12208   6.224   5.689   9.192  0.5293 -0.2214  0.2909
   9123SM   HNF12209   6.129   5.695   9.224 -0.5253  2.2158 -2.7488
   9123SM   C2S12210   6.256   5.778   9.083 -0.7599 -0.4087 -0.2691
   9123SM   H2S12211   6.358   5.816   9.106 -0.7149  0.2939 -1.5709
   9123SM   C3S12212   6.156   5.896   9.079 -0.4461  0.6041  0.9711
   9123SM   H3S12213   6.058   5.856   9.046 -0.3057  1.7501 -0.9950
   9123SM    O312214   6.196   5.987   8.972 -0.1003  0.1470  0.2527
   9123SM   HO312215   6.259   5.934   8.924  1.1453  2.0755 -0.3557
   9123SM   C4S12216   6.132   5.975   9.210  0.6414 -0.1457  0.4989
   9123SM   H4S12217   6.054   5.931   9.274 -1.0890  2.1580  0.1101
   9123SM   C5S12218   6.212   6.074   9.253  0.3458  0.6044 -0.1135
   9123SM   H5S12219   6.298   6.105   9.193 -0.5513 -1.1870 -2.4659
   9123SM   C6S12220   6.194   6.142   9.389 -0.6763  0.6675  0.3361
   9123SM   H6S12221   6.152   6.244   9.375 -0.1733  0.8754  0.3281
   9123SM   H6T12222   6.294   6.159   9.434 -1.0928  1.7080  0.8907
   9123SM   C7S12223   6.110   6.069   9.498 -0.6562 -0.2169 -0.3050
   9123SM   H7S12224   6.134   5.961   9.496 -1.0739 -0.3591  1.1727
   9123SM   H7T12225   6.001   6.079   9.482 -0.9740 -3.0219 -0.3973
   9123SM   C8S12226   6.159   6.113   9.633 -0.7488 -0.4415 -0.2737
   9123SM   H8S12227   6.128   6.220   9.635 -1.7933 -0.7003 -1.5019
   9123SM   H8T12228   6.269   6.127   9.643 -0.7583 -0.2823 -0.3918
   9123SM   C9S12229   6.117   6.027   9.754  0.2251 -0.0191  0.0517
   9123SM   H9S12230   6.173   5.932   9.741  0.2123  0.0224 -0.3154
   9123SM   H9T12231   6.008   6.009   9.740  0.1933 -0.7713  1.1218
   9123SM  C10S12232   6.153   6.076   9.893  0.1356  0.1561 -0.0663
   9123SM  H10S12233   6.121   6.181   9.904  0.6330  0.1416  1.9580
   9123SM  H10T12234   6.264   6.072   9.903  0.0143 -0.2052  1.4190
   9123SM  C11S12235   6.099   5.986  10.002  0.0646  0.7896  0.5124
   9123SM  H11S12236   6.177   5.955  10.074 -0.6927 -1.6781  0.3592
   9123SM  H11T12237   6.069   5.885   9.965 -1.0815  1.7094 -1.1999
   9123SM  C12S12238   5.988   6.038  10.096 -0.5220 -0.1180  0.7436
   9123SM  H12S12239   5.970   5.956  10.170 -2.7872  0.0827  0.4937
   9123SM  H12T12240   5.902   6.049  10.026  0.0536  0.3018  0.0920
   9123SM  C13S12241   6.027   6.171  10.170  0.0420 -0.0286 -0.8497
   9123SM  H13S12242   6.039   6.248  10.091 -2.2037  0.5990 -0.6384
   9123SM  H13T12243   6.122   6.153  10.225 -0.6925  0.6229  0.6928
   9123SM  C14S12244   5.919   6.224  10.270 -0.1186  0.0706  0.1465
   9123SM  H14S12245   5.817   6.196  10.236  0.4229 -1.2472 -0.4694
   9123SM  H14T12246   5.918   6.334  10.284 -2.5717 -0.2497  4.3229
   9123SM  C15S12247   5.933   6.169  10.417 -0.5212  0.6764  0.1379
   9123SM  H15S12248   5.830   6.156  10.456  0.1363 -0.5742  1.5776
   9123SM  H15T12249   5.993   6.240  10.478 -0.8335  0.5490  0.6011
   9123SM  C16S12250   6.003   6.025  10.434 -0.3152  1.1618  0.9219
   9123SM  H16S12251   6.080   6.011  10.355  0.2184  1.8258  1.2980
   9123SM  H16T12252   5.915   5.964  10.407 -0.0638  1.5200 -0.7676
   9123SM  C17S12253   6.060   6.001  10.572 -0.6459  0.5950 -0.0805
   9123SM  H17S12254   6.142   6.075  10.586  0.6044 -1.0675  1.8962
   9123SM  H17T12255   6.115   5.904  10.574  1.1244  1.5286 -1.1827
   9123SM  C18S12256   5.956   6.009  10.683 -0.3371  0.2380 -0.2817
   9123SM  H18S12257   5.927   6.113  10.708 -0.5520  0.1660 -0.2269
   9123SM  H18T12258   6.006   5.978  10.778 -0.1320 -0.8807 -0.7312
   9123SM  H18U12259   5.861   5.955  10.664 -0.4781  1.0207 -1.9888
   9123SM   C1F12260   6.309   5.590   9.236 -0.4084 -0.0350  1.0884
   9123SM    OF12261   6.431   5.596   9.207  0.1152  0.0742  0.8438
   9123SM   C2F12262   6.256   5.471   9.309  0.3643 -0.1841 -0.8219
   9123SM   H2F12263   6.293   5.378   9.260  0.5413 -0.9217  0.6646
   9123SM   H2G12264   6.145   5.465   9.310  0.2263  1.8120  0.2766
   9123SM   C3F12265   6.304   5.477   9.457  0.3286  0.1002  0.2436
   9123SM   H3F12266   6.414   5.478   9.475  0.2585 -1.8923  0.9264
   9123SM   H3G12267   6.274   5.387   9.515  2.9100  0.6647  2.6736
   9123SM   C4F12268   6.231   5.581   9.542  0.4221 -0.5444  0.0782
   9123SM   H4F12269   6.121   5.581   9.533  0.5006  2.0301 -2.0156
   9123SM   H4G12270   6.262   5.681   9.504 -0.7131 -1.0295 -2.3575
   9123SM   C5F12271   6.278   5.569   9.689  0.8034  0.0793  0.2978
   9123SM   H5F12272   6.247   5.658   9.748 -0.4299 -0.7444  0.9206
   9123SM   H5G12273   6.389   5.567   9.687  0.7843 -1.9558 -1.4956
   9123SM   C6F12274   6.213   5.457   9.772 -0.2376  0.1813  0.2161
   9123SM   H6F12275   6.239   5.356   9.734 -0.7277 -0.3140  1.1321
   9123SM   H6G12276   6.103   5.459   9.757 -0.2994  0.0362  0.6203
   9123SM   C7F12277   6.256   5.467   9.923  0.1649  0.3868  0.1794
   9123SM   H7F12278   6.247   5.574   9.952 -2.4626  0.3591 -0.2815
   9123SM   H7G12279   6.361   5.431   9.933 -0.5213 -1.7361  0.2700
   9123SM   C8F12280   6.185   5.380  10.024 -0.6288  0.0916  0.6236
   9123SM   H8F12281   6.200   5.273   9.997 -1.4702  0.0753  0.1744
   9123SM   H8G12282   6.078   5.389   9.995 -0.2036 -0.7255 -1.3839
   9123SM   C9F12283   6.224   5.416  10.164  0.1796  0.2634 -0.0084
   9123SM   H9F12284   6.177   5.509  10.203  1.1263  0.6012  0.3651
   9123SM   H9G12285   6.334   5.427  10.169  0.1231  0.9752 -0.2668
   9123SM  C10F12286   6.184   5.301  10.247 -0.2727  0.0178 -0.1676
   9123SM  H10F12287   6.255   5.220  10.219  1.2889  0.8083  1.3112
   9123SM  H10G12288   6.081   5.265  10.229  0.1166 -0.7435 -0.9633
   9123SM  C11F12289   6.195   5.337  10.399 -0.5875 -0.3119 -0.7369
   9123SM  H11F12290   6.292   5.392  10.401 -0.5569 -0.1877 -3.0669
   9123SM  H11G12291   6.195   5.247  10.464  1.5291  0.3445  0.2548
   9123SM  C12F12292   6.092   5.441  10.443 -0.5871 -0.1282  0.7301
   9123SM  H12F12293   5.986   5.418  10.418 -0.9030 -0.0213  1.9286
   9123SM  H12G12294   6.116   5.541  10.400 -2.4490 -0.2387 -0.7156
   9123SM  C13F12295   6.096   5.461  10.595  0.3726  0.2491  0.1109
   9123SM  H13F12296   6.195   5.491  10.637 -0.5466  0.8337  1.9680
   9123SM  H13G12297   6.079   5.365  10.649 -1.7876  1.4162  1.6753
   9123SM  C14F12298   6.000   5.574  10.644 -0.4923  0.5180  0.1685
   9123SM  H14F12299   5.899   5.533  10.621  0.7167 -2.0258 -0.9974
   9123SM  H14G12300   6.014   5.663  10.580 -2.1753  1.1207  0.5882
   9123SM  C15F12301   6.024   5.599  10.795  0.5332  0.5500  0.2269
   9123SM  H15F12302   5.957   5.683  10.823 -0.0316  0.4253 -0.7092
   9123SM  H15G12303   6.123   5.644  10.813 -0.3466  2.0685  1.5453
   9123SM  C16F12304   6.002   5.491  10.897 -0.0810 -0.0627 -0.4129
   9123SM  H16F12305   6.078   5.508  10.977 -0.9291 -1.6330  0.7741
   9123SM  H16G12306   6.029   5.396  10.847  3.7511  1.2456 -1.2209
   9123SM  C17F12307   5.860   5.503  10.966 -0.1877 -0.0935 -0.4450
   9123SM  H17F12308   5.784   5.485  10.887 -1.2102  2.1472 -0.0537
   9123SM  H17G12309   5.838   5.609  10.992 -3.0773 -1.0573  1.5423
   9123SM  C18F12310   5.854   5.420  11.098 -0.1254  0.5582  0.6504
   9123SM  H18F12311   5.932   5.473  11.157  0.1245  1.2807 -0.3156
   9123SM  H18G12312   5.881   5.314  11.082 -0.3858  0.7775 -1.5540
   9123SM  C19F12313   5.719   5.430  11.176 -0.4052  0.3477  0.4161
   9123SM  H19F12314   5.630   5.392  11.120  0.5048 -1.9163  0.4120
   9123SM  H19G12315   5.700   5.533  11.213 -2.1548 -0.3226  1.4751
   9123SM  C20F12316   5.733   5.348  11.302 -0.2504  0.6166 -0.2455
   9123SM  H20F12317   5.831   5.381  11.342 -0.5838  1.0627  0.2098
   9123SM  H20G12318   5.759   5.242  11.279  0.7582  0.3502  1.9166
   9123SM  C21F12319   5.600   5.363  11.395 -0.4234  0.2295  1.0197
   9123SM  H21F12320   5.511   5.322  11.344  1.2205 -1.4494 -0.6488
   9123SM  H21G12321   5.594   5.474  11.399  0.4881  0.2655  1.7107
   9123SM  C22F12322   5.620   5.310  11.532  0.1720 -0.1953 -0.4456
   9123SM  H22F12323   5.694   5.373  11.587  0.4826 -1.5443  0.7485
   9123SM  H22G12324   5.672   5.214  11.511 -0.5706 -1.1520  1.7540
   9123SM  C23F12325   5.492   5.290  11.608 -0.0468  0.4851  0.5513
   9123SM  H23F12326   5.537   5.256  11.703 -0.1202  0.4185  0.5624
   9123SM  H23G12327   5.426   5.217  11.557 -0.9561  2.1134 -0.7047
   9123SM  H23H12328   5.437   5.387  11.607 -0.6264  0.2162 -2.4091
   9223SM     N12329   4.915   2.872   8.587 -0.4222 -0.1916  0.4462
   9223SM   C1512330   5.031   2.780   8.578  0.5876  0.2302  0.7576
   9223SM  H15A12331   5.119   2.826   8.536  0.5346 -0.8126 -0.5469
   9223SM  H15B12332   5.001   2.693   8.521 -0.7643  0.8280  0.5295
   9223SM  H15C12333   5.056   2.736   8.674  0.9195 -2.4848 -0.4718
   9223SM   C1412334   4.950   2.999   8.661  0.7135  0.4847 -0.2552
   9223SM  H14A12335   4.863   3.061   8.676 -0.9623 -1.8037 -0.0880
   9223SM  H14B12336   5.029   3.058   8.617  0.3804  1.0185 -0.1510
   9223SM  H14C12337   4.987   2.976   8.760 -0.6437  0.7566  0.3425
   9223SM   C1312338   4.881   2.896   8.440 -0.5963 -0.8804 -0.2153
   9223SM  H13A12339   4.849   2.806   8.389  0.5178 -0.9775 -0.7867
   9223SM  H13B12340   4.969   2.934   8.391 -0.3478  0.1310  0.9729
   9223SM  H13C12341   4.802   2.970   8.436 -0.5438 -0.7518  0.8170
   9223SM   C1212342   4.798   2.807   8.657  0.1143  0.1455  0.2026
   9223SM  H12A12343   4.726   2.882   8.685  1.0581  1.1633 -0.0279
   9223SM  H12B12344   4.840   2.786   8.754  2.5221  1.6047 -0.4457
   9223SM   C1112345   4.732   2.689   8.587  0.2393  0.6367 -0.1104
   9223SM  H11A12346   4.675   2.727   8.499  0.8333  0.0025 -0.7784
   9223SM  H11B12347   4.659   2.652   8.662  1.1605 -1.1990 -0.0595
   9223SM     P12348   4.836   2.441   8.574  0.4715 -0.1132 -0.1552
   9223SM   O1312349   4.748   2.384   8.470  0.1739 -0.2644 -0.4999
   9223SM   O1412350   4.976   2.393   8.567  0.5721 -0.8423  0.0568
   9223SM   O1112351   4.778   2.414   8.720 -0.9817  0.1153 -0.6245
   9223SM   O1212352   4.829   2.591   8.548 -0.1963  0.3391  0.6847
   9223SM   C1S12353   4.819   2.484   8.838 -0.0058  0.3423  0.5694
   9223SM   H1S12354   4.770   2.584   8.841 -1.5746 -0.3990  3.2384
   9223SM   H1T12355   4.930   2.495   8.845 -0.1358  1.3653  1.3312
   9223SM    NF12356   4.785   2.486   9.081 -0.4607  0.0384  0.4378
   9223SM   HNF12357   4.862   2.455   9.137 -0.4777 -0.3639  0.2459
   9223SM   C2S12358   4.770   2.402   8.965  0.2291 -0.1880  0.8929
   9223SM   H2S12359   4.662   2.390   8.945  0.4150 -1.2833  0.4574
   9223SM   C3S12360   4.845   2.268   8.988 -0.3723  0.2814 -0.1351
   9223SM   H3S12361   4.936   2.295   9.046 -1.5374  1.5880  1.1530
   9223SM    O312362   4.874   2.188   8.870 -0.4581  0.0753  0.7001
   9223SM   HO312363   4.867   2.255   8.802 -0.7233 -0.0920  0.5566
   9223SM   C4S12364   4.770   2.182   9.095 -0.1753  0.1172  1.1076
   9223SM   H4S12365   4.773   2.208   9.202 -0.6562 -1.4967  1.5426
   9223SM   C5S12366   4.699   2.071   9.066  0.1438  0.4955 -0.2434
   9223SM   H5S12367   4.694   2.030   8.964  0.5765 -0.6834  0.2034
   9223SM   C6S12368   4.626   1.989   9.173 -0.6924 -1.1988  0.0060
   9223SM   H6S12369   4.642   1.881   9.152  3.2521 -0.6780 -0.5743
   9223SM   H6T12370   4.518   2.009   9.157 -0.3894  0.9380  0.3710
   9223SM   C7S12371   4.670   2.030   9.320  0.6542 -0.2584  0.2839
   9223SM   H7S12372   4.656   2.140   9.331  2.4486  0.0541 -0.1467
   9223SM   H7T12373   4.778   2.003   9.323  0.8735 -0.1240 -2.7698
   9223SM   C8S12374   4.596   1.954   9.423 -0.2910 -0.5274  0.0002
   9223SM   H8S12375   4.645   1.854   9.430  1.0921  0.1803  1.1416
   9223SM   H8T12376   4.490   1.935   9.398  0.3560 -1.2388 -2.4766
   9223SM   C9S12377   4.607   2.031   9.557  0.4188  0.1614 -0.0331
   9223SM   H9S12378   4.588   2.140   9.540  0.7605  0.4693  1.4706
   9223SM   H9T12379   4.713   2.035   9.588  0.1476 -0.9647  1.0987
   9223SM  C10S12380   4.527   1.970   9.670  0.7297 -0.0613  0.2494
   9223SM  H10S12381   4.546   1.864   9.696 -3.1650 -1.1761 -0.7219
   9223SM  H10T12382   4.419   1.977   9.646  1.2949  1.1311 -2.2721
   9223SM  C11S12383   4.563   2.035   9.809 -0.4369 -0.2629 -0.0171
   9223SM  H11S12384   4.542   2.144   9.799 -1.3139 -0.5338 -1.4024
   9223SM  H11T12385   4.671   2.020   9.829 -0.1850  0.9717 -0.3611
   9223SM  C12S12386   4.487   1.978   9.925 -0.0088  0.1621 -0.0736
   9223SM  H12S12387   4.484   1.868   9.937  2.2737  0.2749  2.4595
   9223SM  H12T12388   4.385   2.014   9.900  0.3688  1.4758  0.2152
   9223SM  C13S12389   4.532   2.042  10.059  0.6822 -0.4475 -0.1210
   9223SM  H13S12390   4.494   2.146  10.065  1.3358 -0.2223  0.3324
   9223SM  H13T12391   4.643   2.043  10.052  0.9931 -1.9307  2.8480
   9223SM  C14S12392   4.491   1.949  10.175 -0.1471 -0.1202  0.6247
   9223SM  H14S12393   4.537   1.850  10.160  2.5850  0.7140  2.7350
   9223SM  H14T12394   4.381   1.935  10.164 -0.3207  1.5887 -0.2870
   9223SM  C15S12395   4.501   2.012  10.319 -0.3438  0.3041  0.9229
   9223SM  H15S12396   4.408   2.054  10.362 -0.9960 -0.0361 -0.1195
   9223SM  H15T12397   4.569   2.100  10.307 -0.1275 -0.0200 -0.4025
   9223SM  C16S12398   4.584   1.924  10.416  0.5179  0.1855  0.6735
   9223SM  H16S12399   4.683   1.924  10.366  0.4680  0.6791  0.5686
   9223SM  H16T12400   4.542   1.822  10.428 -2.2166  1.2977  1.6318
   9223SM  C17S12401   4.598   1.986  10.556  0.2040  0.0673 -0.2047
   9223SM  H17S12402   4.585   2.096  10.546 -0.4847  0.1881  1.6051
   9223SM  H17T12403   4.699   1.957  10.590 -0.1003 -1.6489 -0.7021
   9223SM  C18S12404   4.496   1.935  10.658  0.7561  0.4577  0.5472
   9223SM  H18S12405   4.393   1.935  10.616 -0.4160  0.7959  3.2276
   9223SM  H18T12406   4.497   1.996  10.751  1.2892 -0.0142  0.8598
   9223SM  H18U12407   4.523   1.830  10.682  0.4127  0.5064  1.1624
   9223SM   C1F12408   4.728   2.601   9.098  0.4718 -0.3351  0.6415
   9223SM    OF12409   4.638   2.637   9.028 -0.3280  0.0924  0.2322
   9223SM   C2F12410   4.778   2.673   9.215 -0.0118  0.6844  0.0095
   9223SM   H2F12411   4.881   2.716   9.208 -0.3524  1.8230  1.4360
   9223SM   H2G12412   4.770   2.605   9.302  0.2412 -0.6533 -0.9837
   9223SM   C3F12413   4.678   2.795   9.245 -0.4885  0.5298 -0.5764
   9223SM   H3F12414   4.576   2.751   9.237 -0.1321 -0.0438 -2.6694
   9223SM   H3G12415   4.697   2.877   9.173  1.1751  1.8009  1.2097
   9223SM   C4F12416   4.715   2.850   9.382  0.1405 -0.6676  0.6082
   9223SM   H4F12417   4.663   2.948   9.393 -0.0623 -0.7870  0.7140
   9223SM   H4G12418   4.823   2.866   9.401  0.5010  3.5425 -3.2743
   9223SM   C5F12419   4.671   2.761   9.506  0.2537 -0.1844 -0.6922
   9223SM   H5F12420   4.714   2.660   9.487 -0.6645 -0.2208 -2.9416
   9223SM   H5G12421   4.561   2.744   9.507 -0.1531  2.1833  0.2231
   9223SM   C6F12422   4.722   2.820   9.641  0.5151  0.0125  0.2542
   9223SM   H6F12423   4.675   2.920   9.630 -1.2395 -0.9246 -1.4492
   9223SM   H6G12424   4.832   2.824   9.651  0.3966  3.0430  1.4457
   9223SM   C7F12425   4.666   2.745   9.764 -0.1438  0.0121  1.0172
   9223SM   H7F12426   4.704   2.641   9.757  1.1628  0.5752 -3.6395
   9223SM   H7G12427   4.555   2.743   9.766 -0.2885  0.9267 -1.8053
   9223SM   C8F12428   4.717   2.805   9.895  0.0243  0.3998 -0.3189
   9223SM   H8F12429   4.676   2.906   9.914  1.4655  1.3448 -1.8572
   9223SM   H8G12430   4.827   2.815   9.884  0.0098  1.7048  0.6032
   9223SM   C9F12431   4.668   2.718  10.016  0.2797 -0.0768  0.5632
   9223SM   H9F12432   4.706   2.617   9.990 -1.2634 -0.6946  0.5623
   9223SM   H9G12433   4.557   2.722  10.028  0.5406  0.0193  4.2782
   9223SM  C10F12434   4.724   2.772  10.147 -0.1920  0.5574 -0.3888
   9223SM  H10F12435   4.681   2.872  10.173  0.5653  0.8862 -0.3640
   9223SM  H10G12436   4.832   2.798  10.142  0.3794 -0.9708  2.1592
   9223SM  C11F12437   4.675   2.678  10.262  0.8419  0.5701  0.1063
   9223SM  H11F12438   4.692   2.569  10.251  0.6580  0.6243 -0.8751
   9223SM  H11G12439   4.564   2.686  10.263  0.7478 -0.6271  0.6121
   9223SM  C12F12440   4.731   2.727  10.392  0.0714  0.5748 -0.7352
   9223SM  H12F12441   4.725   2.838  10.387  1.3771  0.7457  0.8057
   9223SM  H12G12442   4.841   2.716  10.391  0.3373  2.4012  1.3595
   9223SM  C13F12443   4.666   2.667  10.518 -0.2098 -0.4541  0.3309
   9223SM  H13F12444   4.686   2.558  10.517 -1.4222 -0.7020 -0.9023
   9223SM  H13G12445   4.556   2.683  10.505 -0.1342  0.0122  0.2175
   9223SM  C14F12446   4.718   2.712  10.652  0.6064 -0.3376 -0.1547
   9223SM  H14F12447   4.698   2.820  10.671  0.4673 -0.3947  0.0232
   9223SM  H14G12448   4.829   2.709  10.658  0.6584  2.0462  1.4399
   9223SM  C15F12449   4.656   2.631  10.777  0.5638 -0.1200 -0.0006
   9223SM  H15F12450   4.663   2.522  10.755 -2.4362  0.0665 -2.6177
   9223SM  H15G12451   4.546   2.635  10.793  0.4275 -0.7648 -0.7002
   9223SM  C16F12452   4.744   2.657  10.907  0.0854 -0.4762 -0.5842
   9223SM  H16F12453   4.744   2.768  10.912 -1.3207 -0.3212 -2.7478
   9223SM  H16G12454   4.843   2.616  10.878 -0.0032 -0.1692 -1.3461
   9223SM  C17F12455   4.686   2.598  11.038  0.8660 -0.2800  0.5360
   9223SM  H17F12456   4.608   2.666  11.079 -1.8455 -2.6684 -0.2848
   9223SM  H17G12457   4.771   2.603  11.110  1.3198 -3.2516  0.3412
   9223SM  C18F12458   4.627   2.457  11.024 -0.0831  0.5650 -0.5097
   9223SM  H18F12459   4.689   2.414  10.943  0.5479  0.4572  0.0233
   9223SM  H18G12460   4.526   2.449  10.979 -0.4533 -0.7592  0.4969
   9223SM  C19F12461   4.626   2.379  11.160  0.3836 -0.2829 -0.2881
   9223SM  H19F12462   4.569   2.426  11.243 -0.7127  2.5477 -2.4858
   9223SM  H19G12463   4.731   2.387  11.197  0.6886 -0.7354 -1.0313
   9223SM  C20F12464   4.585   2.230  11.163  0.7722  0.1460  0.8770
   9223SM  H20F12465   4.605   2.189  11.265 -0.3603 -1.6859  0.4161
   9223SM  H20G12466   4.659   2.184  11.095  2.8115  4.4448 -0.1574
   9223SM  C21F12467   4.445   2.197  11.119 -0.1801  0.3069 -0.1543
   9223SM  H21F12468   4.423   2.259  11.030  0.3661  0.9587  0.1501
   9223SM  H21G12469   4.368   2.237  11.187 -1.3944  1.3883 -2.0804
   9223SM  C22F12470   4.423   2.053  11.082  0.7365  0.4586  0.9591
   9223SM  H22F12471   4.500   2.017  11.010  0.4793 -0.2877  1.0507
   9223SM  H22G12472   4.333   2.040  11.019  3.3370  0.6124 -3.1689
   9223SM  C23F12473   4.411   1.964  11.203  0.5479 -0.0075 -0.2663
   9223SM  H23F12474   4.314   1.988  11.252 -1.0053 -1.6617 -2.3347
   9223SM  H23G12475   4.494   1.969  11.276  0.8059 -1.0332 -0.4847
   9223SM  H23H12476   4.401   1.856  11.182 -0.0099 -0.1934  0.9065
   9323SM     N12477   0.720   4.117   8.877 -0.4822 -0.3891 -0.5827
   9323SM   C1512478   0.716   4.267   8.903 -0.0863  0.4763  0.6546
   9323SM  H15A12479   0.702   4.283   9.009  1.2577  2.3124  0.5892
   9323SM  H15B12480   0.635   4.313   8.849  0.8775  0.4283 -0.8692
   9323SM  H15C12481   0.809   4.308   8.868  0.3604 -1.2018 -0.2486
   9323SM   C1412482   0.737   4.091   8.733  0.5408  0.2325 -0.2273
   9323SM  H14A12483   0.662   4.150   8.684 -0.5593 -0.6962  0.3068
   9323SM  H14B12484   0.716   3.990   8.702  2.0051  0.4905 -2.2902
   9323SM  H14C12485   0.837   4.119   8.703  2.8531 -3.3470  3.0285
   9323SM   C1312486   0.826   4.062   8.966 -0.1424  0.7477  0.1332
   9323SM  H13A12487   0.922   4.083   8.919  0.3104 -0.3816  0.5342
   9323SM  H13B12488   0.818   3.956   8.983 -2.3473  1.1688  2.2677
   9323SM  H13C12489   0.821   4.094   9.069  0.0461 -2.2588  1.1778
   9323SM   C1212490   0.582   4.055   8.922  0.2112  0.5506 -0.5473
   9323SM  H12A12491   0.578   3.949   8.900  0.9402  0.5532 -0.7276
   9323SM  H12B12492   0.503   4.086   8.855 -1.3038 -1.7013  0.0710
   9323SM   C1112493   0.534   4.083   9.063  0.1828  0.1772 -0.1530
   9323SM  H11A12494   0.612   4.073   9.142 -1.9306 -0.4512  1.9787
   9323SM  H11B12495   0.458   4.007   9.091  0.1295  0.8018  1.5196
   9323SM     P12496   0.330   4.244   9.026  0.0923 -0.1920  0.0673
   9323SM   O1312497   0.328   4.384   8.985 -0.8294 -0.1877  0.8512
   9323SM   O1412498   0.270   4.139   8.938 -0.0260 -0.7545  0.3755
   9323SM   O1112499   0.256   4.233   9.161 -0.4640  0.3516  0.3233
   9323SM   O1212500   0.480   4.220   9.068 -0.3052  0.2560  0.5723
   9323SM   C1S12501   0.321   4.280   9.281  0.3397  0.3495  1.4143
   9323SM   H1S12502   0.326   4.391   9.289 -0.5867  0.5021  0.1603
   9323SM   H1T12503   0.428   4.249   9.283  0.3935 -0.3409 -2.7980
   9323SM    NF12504   0.341   4.260   9.530  0.1880  0.0667 -0.2802
   9323SM   HNF12505   0.413   4.204   9.571 -1.3007 -0.3149  1.9656
   9323SM   C2S12506   0.266   4.216   9.410  0.0877  0.0314 -0.3053
   9323SM   H2S12507   0.160   4.243   9.433 -0.7852 -1.1388 -2.6429
   9323SM   C3S12508   0.258   4.063   9.397 -0.3082 -0.3035  0.2132
   9323SM   H3S12509   0.359   4.021   9.379 -0.3371  0.5788 -2.3251
   9323SM    O312510   0.185   4.013   9.284 -0.4222  0.9441  0.3401
   9323SM   HO312511   0.177   4.092   9.230  1.4399  2.7146  2.4617
   9323SM   C4S12512   0.196   3.996   9.530  0.4184 -0.9190 -0.9306
   9323SM   H4S12513   0.264   3.992   9.616  1.0225 -0.5471 -1.3782
   9323SM   C5S12514   0.068   3.964   9.552 -0.1702  0.1893 -0.0620
   9323SM   H5S12515  -0.003   3.996   9.475 -1.2931 -0.4571  0.6646
   9323SM   C6S12516   0.007   3.899   9.673  0.2504  0.3440 -0.2052
   9323SM   H6S12517   0.064   3.809   9.705  0.4530  1.1924  1.9912
   9323SM   H6T12518  -0.088   3.849   9.644  1.0781 -1.0495 -0.6012
   9323SM   C7S12519   0.001   3.982   9.796  0.2611 -0.0987  0.2052
   9323SM   H7S12520  -0.052   4.077   9.771 -1.0473 -0.8520  0.0548
   9323SM   H7T12521   0.106   4.002   9.826  0.3342  0.2152 -0.2444
   9323SM   C8S12522  -0.060   3.914   9.918 -0.0506  0.1721 -0.2028
   9323SM   H8S12523  -0.018   3.811   9.921  1.6518  0.8057 -0.6280
   9323SM   H8T12524  -0.169   3.929   9.901 -0.4679 -1.7347  0.6121
   9323SM   C9S12525  -0.028   3.983  10.052  0.7838 -0.3162  0.5271
   9323SM   H9S12526  -0.045   4.093  10.046 -0.4526 -0.4465  1.2434
   9323SM   H9T12527   0.081   3.979  10.070  0.7171 -0.4056  0.9077
   9323SM  C10S12528  -0.101   3.925  10.168 -0.2141 -0.0974  0.0159
   9323SM  H10S12529  -0.148   3.829  10.140  1.4303 -0.9759  0.1735
   9323SM  H10T12530  -0.188   3.990  10.194  1.3162  1.6464  1.0284
   9323SM  C11S12531  -0.012   3.899  10.292 -0.6417  0.9161 -0.1448
   9323SM  H11S12532   0.054   3.986  10.313  1.5513 -1.0653  1.7070
   9323SM  H11T12533   0.058   3.819  10.260  0.3483  2.2744 -1.5657
   9323SM  C12S12534  -0.091   3.868  10.415 -0.6775 -0.4727  0.2188
   9323SM  H12S12535  -0.132   3.766  10.404  0.3715 -0.6686 -2.4961
   9323SM  H12T12536  -0.176   3.939  10.421 -0.9533 -0.8657  1.2227
   9323SM  C13S12537  -0.017   3.875  10.546 -0.5731  0.2503  0.4321
   9323SM  H13S12538   0.028   3.974  10.568 -2.9496  1.9179 -1.6033
   9323SM  H13T12539   0.069   3.806  10.541  1.6610  2.9658 -1.7001
   9323SM  C14S12540  -0.110   3.833  10.662 -0.0465  0.0723 -0.2777
   9323SM  H14S12541  -0.146   3.730  10.642 -0.8019  0.2676  0.0515
   9323SM  H14T12542  -0.208   3.885  10.669  1.3796  2.6971  2.2430
   9323SM  C15S12543  -0.037   3.833  10.806 -0.9234 -0.5655  0.4369
   9323SM  H15S12544   0.014   3.736  10.824  1.5244  1.1230  3.8131
   9323SM  H15T12545   0.041   3.911  10.814 -0.0326 -1.1689 -1.7364
   9323SM  C16S12546  -0.138   3.835  10.925  0.0296 -0.3092 -0.1242
   9323SM  H16S12547  -0.204   3.749  10.903 -0.6611 -0.1705  1.3009
   9323SM  H16T12548  -0.198   3.928  10.933  1.1306  0.4732 -0.7168
   9323SM  C17S12549  -0.066   3.815  11.058  0.3127 -0.2052  0.7485
   9323SM  H17S12550   0.015   3.888  11.078 -1.2509  2.0265 -0.5889
   9323SM  H17T12551  -0.004   3.724  11.042  0.9219  0.2265  0.6050
   9323SM  C18S12552  -0.163   3.804  11.177 -0.4080  0.0926  0.1065
   9323SM  H18S12553  -0.224   3.712  11.167  0.0144 -0.4349  1.9655
   9323SM  H18T12554  -0.226   3.894  11.190  0.7527  0.6184  2.8213
   9323SM  H18U12555  -0.109   3.781  11.272 -3.3708 -0.7019  1.7124
   9323SM   C1F12556   0.335   4.389   9.557  1.0563  0.4704  0.4903
   9323SM    OF12557   0.265   4.468   9.490 -0.1316 -0.2275  0.5625
   9323SM   C2F12558   0.411   4.435   9.666 -1.0257  0.1050  0.2725
   9323SM   H2F12559   0.459   4.532   9.637 -1.0897  0.2488  0.6419
   9323SM   H2G12560   0.496   4.366   9.688 -2.1076 -0.2004  4.2702
   9323SM   C3F12561   0.320   4.470   9.793 -0.1447  0.1605 -0.4478
   9323SM   H3F12562   0.231   4.531   9.766 -1.0847 -0.3679  1.2813
   9323SM   H3G12563   0.389   4.533   9.853 -1.5900 -0.3312  1.8116
   9323SM   C4F12564   0.259   4.352   9.873  0.5542 -0.3224  0.2718
   9323SM   H4F12565   0.176   4.331   9.802 -0.2901  0.2204  1.0772
   9323SM   H4G12566   0.212   4.388   9.967  0.0472  1.4911 -0.6164
   9323SM   C5F12567   0.346   4.223   9.892  0.1300 -0.5729 -0.7904
   9323SM   H5F12568   0.450   4.260   9.906 -0.4146  1.7256 -2.1997
   9323SM   H5G12569   0.350   4.147   9.811 -1.1779 -1.0224 -0.4630
   9323SM   C6F12570   0.292   4.157  10.020 -0.3577  0.0127 -0.7030
   9323SM   H6F12571   0.318   4.049  10.025  0.5127  0.2601  0.6327
   9323SM   H6G12572   0.182   4.151  10.012 -0.4894 -1.5838  1.4295
   9323SM   C7F12573   0.335   4.230  10.147 -1.0227  0.7060 -0.7618
   9323SM   H7F12574   0.308   4.337  10.136  1.7287  1.8283  1.8650
   9323SM   H7G12575   0.446   4.225  10.151 -1.0852 -0.2737  0.4789
   9323SM   C8F12576   0.273   4.179  10.281 -0.4641 -0.4531  0.0730
   9323SM   H8F12577   0.296   4.071  10.290  0.9959 -0.2777 -1.1690
   9323SM   H8G12578   0.163   4.196  10.280 -0.3119  0.6472  0.4821
   9323SM   C9F12579   0.320   4.247  10.409  0.3748  0.4754  0.7041
   9323SM   H9F12580   0.323   4.356  10.383  1.9523 -0.1636 -2.3011
   9323SM   H9G12581   0.425   4.217  10.424 -0.4297 -2.5722  0.7794
   9323SM  C10F12582   0.249   4.207  10.540 -0.1199 -0.2471 -0.2552
   9323SM  H10F12583   0.243   4.096  10.547 -0.8192 -0.1090  1.9773
   9323SM  H10G12584   0.142   4.239  10.541 -0.3823 -0.9480  2.6973
   9323SM  C11F12585   0.317   4.274  10.660 -0.0939  0.5998  0.0314
   9323SM  H11F12586   0.292   4.381  10.643 -4.3430 -0.2407 -0.0283
   9323SM  H11G12587   0.425   4.248  10.656 -0.1463  0.5506 -1.7190
   9323SM  C12F12588   0.265   4.215  10.789  1.0161 -0.3005  0.2700
   9323SM  H12F12589   0.344   4.237  10.864 -0.0374  0.5864  1.1421
   9323SM  H12G12590   0.248   4.106  10.775 -2.3613  0.3625 -1.8035
   9323SM  C13F12591   0.134   4.287  10.835  0.1522  0.3305  0.7718
   9323SM  H13F12592   0.055   4.276  10.757  1.8809 -2.8079 -0.7212
   9323SM  H13G12593   0.145   4.398  10.839  0.6437  0.2533  1.8176
   9323SM  C14F12594   0.086   4.229  10.974  0.0004 -0.0041  0.3078
   9323SM  H14F12595   0.160   4.270  11.047 -0.2754 -0.0223  0.6003
   9323SM  H14G12596   0.079   4.118  10.981  2.9246 -0.3151 -0.2927
   9323SM  C15F12597  -0.053   4.282  11.018  0.2492  0.1108 -0.5115
   9323SM  H15F12598  -0.134   4.259  10.946  1.7061 -1.8122 -1.6416
   9323SM  H15G12599  -0.054   4.391  11.038 -0.7429 -0.0213  0.2168
   9323SM  C16F12600  -0.101   4.203  11.145  0.3059  0.4155  0.4934
   9323SM  H16F12601  -0.124   4.098  11.119 -1.7097  0.8222  0.4996
   9323SM  H16G12602  -0.200   4.245  11.174  0.5112  0.0339  1.8213
   9323SM  C17F12603  -0.010   4.203  11.270 -0.6951 -0.7844 -0.1463
   9323SM  H17F12604   0.020   4.307  11.293 -1.9764 -0.6604  1.0769
   9323SM  H17G12605   0.090   4.157  11.254  0.2336  1.3236 -0.8662
   9323SM  C18F12606  -0.070   4.156  11.406 -0.3424  0.5177  0.0079
   9323SM  H18F12607  -0.102   4.052  11.383  2.8757 -0.9110  1.4367
   9323SM  H18G12608  -0.161   4.216  11.428 -0.4844  0.3229 -0.0398
   9323SM  C19F12609   0.014   4.144  11.536  0.4392  0.1441 -0.3533
   9323SM  H19F12610  -0.042   4.075  11.602 -0.9503 -0.9547 -2.5518
   9323SM  H19G12611   0.017   4.244  11.586 -0.5932  0.6783 -1.3107
   9323SM  C20F12612   0.152   4.083  11.511  0.3046 -0.2407 -0.6291
   9323SM  H20F12613   0.204   4.164  11.456 -1.2605  1.1412 -0.1619
   9323SM  H20G12614   0.141   4.001  11.437  0.3838 -1.2354  0.4326
   9323SM  C21F12615   0.232   4.036  11.635 -0.0633 -0.4826 -0.0918
   9323SM  H21F12616   0.154   3.976  11.686  0.2538 -1.0571 -0.2685
   9323SM  H21G12617   0.258   4.124  11.697 -2.1496  0.3433 -0.3262
   9323SM  C22F12618   0.349   3.945  11.598  0.3266  0.6238 -0.0366
   9323SM  H22F12619   0.434   3.993  11.545  0.0266  0.9708 -0.2092
   9323SM  H22G12620   0.309   3.881  11.516 -0.5432  0.7608  0.2712
   9323SM  C23F12621   0.396   3.855  11.712 -0.2853  0.3540 -0.0759
   9323SM  H23F12622   0.450   3.772  11.662 -1.4992  0.3311 -1.4108
   9323SM  H23G12623   0.315   3.794  11.758  0.0977 -1.3729 -1.5679
   9323SM  H23H12624   0.455   3.894  11.798  2.0515  0.4882 -1.6581
   9423SM     N12625   5.833   0.883   8.376 -1.1946  0.8634  0.4780
   9423SM   C1512626   5.725   0.779   8.364 -0.3977  0.3044  0.4167
   9423SM  H15A12627   5.675   0.758   8.457  0.5601 -1.4202  0.5880
   9423SM  H15B12628   5.769   0.691   8.321  0.4736  0.9861 -0.1389
   9423SM  H15C12629   5.651   0.810   8.292 -0.4668  1.3149  0.9063
   9423SM   C1412630   5.903   0.890   8.240 -0.0984  0.4410 -0.1566
   9423SM  H14A12631   5.838   0.898   8.154 -1.2615 -1.7191  0.4341
   9423SM  H14B12632   5.965   0.803   8.226  0.8437  0.8341  1.3925
   9423SM  H14C12633   5.969   0.974   8.254 -0.9916  0.9576  1.1350
   9423SM   C1312634   5.776   1.014   8.415 -0.3503  0.3165  0.2372
   9423SM  H13A12635   5.728   1.068   8.334 -1.5170  0.2335  0.8482
   9423SM  H13B12636   5.858   1.070   8.459  2.6936 -2.7699 -1.0621
   9423SM  H13C12637   5.700   0.984   8.485 -0.1376 -1.6914 -0.3425
   9423SM   C1212638   5.942   0.833   8.476 -0.0261 -0.1040  0.0776
   9423SM  H12A12639   6.022   0.906   8.471 -0.2055  0.0023 -1.8836
   9423SM  H12B12640   5.980   0.740   8.436 -1.6627 -0.6426 -0.3134
   9423SM   C1112641   5.904   0.820   8.628  0.7054  0.7322  0.2762
   9423SM  H11A12642   5.852   0.912   8.664 -1.3405 -1.1252  2.4522
   9423SM  H11B12643   5.999   0.813   8.685 -0.1527 -1.2343  1.5521
   9423SM     P12644   5.876   0.571   8.677 -0.3809  0.4663 -0.1591
   9423SM   O1312645   5.765   0.467   8.665  0.4234  0.0096 -0.1196
   9423SM   O1412646   5.994   0.561   8.594 -0.6744 -0.5932 -0.0315
   9423SM   O1112647   5.918   0.586   8.826  0.4285 -0.1935 -0.6935
   9423SM   O1212648   5.815   0.711   8.652  0.1474 -0.3938  0.4824
   9423SM   C1S12649   5.813   0.614   8.925  0.0968 -0.0302 -0.0987
   9423SM   H1S12650   5.723   0.550   8.911 -0.8052  1.6154 -2.5746
   9423SM   H1T12651   5.774   0.715   8.901  0.1059 -0.0523 -0.2079
   9423SM    NF12652   5.774   0.613   9.170 -0.4997 -0.1105  0.7247
   9423SM   HNF12653   5.758   0.697   9.222 -0.5665 -0.0685  0.6371
   9423SM   C2S12654   5.877   0.618   9.064  0.0793  1.0467  0.0455
   9423SM   H2S12655   5.937   0.526   9.077 -2.0402 -0.1637  1.8826
   9423SM   C3S12656   5.985   0.732   9.077  0.2999 -0.1743  0.4298
   9423SM   H3S12657   5.919   0.821   9.078  2.0040  1.1626 -0.7533
   9423SM    O312658   6.085   0.739   8.972 -0.0723 -0.0271 -0.0045
   9423SM   HO312659   6.050   0.677   8.908  1.3396  0.3523 -1.2100
   9423SM   C4S12660   6.040   0.738   9.211 -0.2640  1.2585  0.3559
   9423SM   H4S12661   5.998   0.814   9.278  1.7437  2.4856  0.3088
   9423SM   C5S12662   6.117   0.653   9.277 -0.1630 -0.0759 -0.4159
   9423SM   H5S12663   6.146   0.560   9.225 -0.1504  0.3900 -1.2518
   9423SM   C6S12664   6.157   0.671   9.423  0.7729  0.6520  0.5704
   9423SM   H6S12665   6.129   0.773   9.459 -2.9717  0.2103 -0.6800
   9423SM   H6T12666   6.266   0.650   9.426  0.8461  1.0963  1.1129
   9423SM   C7S12667   6.084   0.574   9.522 -0.2291  0.0234 -0.7710
   9423SM   H7S12668   6.119   0.473   9.493  2.3434  0.5162  0.2887
   9423SM   H7T12669   5.975   0.558   9.505  0.0082 -1.5121 -0.9294
   9423SM   C8S12670   6.110   0.615   9.668 -0.1438 -0.2172  0.8054
   9423SM   H8S12671   6.046   0.702   9.692  1.2445  1.4028 -1.1089
   9423SM   H8T12672   6.214   0.649   9.687  0.7832 -1.2368 -2.0455
   9423SM   C9S12673   6.076   0.501   9.759  0.2842 -0.7088 -0.7882
   9423SM   H9S12674   6.131   0.410   9.726  0.5482 -1.2675  1.0615
   9423SM   H9T12675   5.968   0.479   9.769  0.0160  1.5170  3.0104
   9423SM  C10S12676   6.149   0.526   9.899  0.2325 -0.5032 -0.5407
   9423SM  H10S12677   6.131   0.630   9.933  0.4650 -1.0792  1.4512
   9423SM  H10T12678   6.260   0.523   9.886  0.5434 -1.5183  1.9519
   9423SM  C11S12679   6.112   0.427  10.013  0.2624 -0.1494  1.7825
   9423SM  H11S12680   6.131   0.327   9.970 -0.2049  0.5799 -0.2493
   9423SM  H11T12681   6.002   0.417  10.031 -0.1652  0.4750 -0.2066
   9423SM  C12S12682   6.190   0.442  10.150 -0.1309  0.7717 -0.0408
   9423SM  H12S12683   6.197   0.548  10.181 -2.4168  0.9890 -0.0579
   9423SM  H12T12684   6.290   0.398  10.133  0.1184 -0.6992  4.0679
   9423SM  C13S12685   6.127   0.361  10.261  0.3799 -0.4577  0.4208
   9423SM  H13S12686   6.135   0.255  10.229  0.0031 -0.5199  0.5348
   9423SM  H13T12687   6.025   0.403  10.268  0.8144  0.5480  1.0797
   9423SM  C14S12688   6.198   0.363  10.399  0.3908 -0.2366 -0.3122
   9423SM  H14S12689   6.299   0.317  10.399  0.5537 -0.0335  2.3997
   9423SM  H14T12690   6.126   0.307  10.462  2.5721 -1.3896  1.3041
   9423SM  C15S12691   6.199   0.513  10.441  0.0421  0.4571 -0.0329
   9423SM  H15S12692   6.114   0.555  10.383  0.5358  0.0962 -1.0310
   9423SM  H15T12693   6.290   0.572  10.421 -0.4690  1.3602  0.2374
   9423SM  C16S12694   6.173   0.545  10.589  0.6706  0.1358 -0.2427
   9423SM  H16S12695   6.089   0.481  10.626 -0.9477  1.1001 -2.1190
   9423SM  H16T12696   6.147   0.653  10.585  2.4192  0.5904 -0.3368
   9423SM  C17S12697   6.296   0.535  10.681 -0.6441 -0.1400 -0.0842
   9423SM  H17S12698   6.382   0.597  10.651  1.2195 -2.2703  0.6010
   9423SM  H17T12699   6.338   0.433  10.671  1.3676  0.6750 -0.3279
   9423SM  C18S12700   6.275   0.570  10.834 -0.1536  0.5519  0.1760
   9423SM  H18S12701   6.269   0.680  10.845  1.1751  0.5858  0.7551
   9423SM  H18T12702   6.366   0.529  10.881 -0.3336 -0.7427 -0.5458
   9423SM  H18U12703   6.184   0.524  10.878 -0.4583  1.7709  0.8402
   9423SM   C1F12704   5.694   0.504   9.176  0.4836  0.0397  0.2134
   9423SM    OF12705   5.709   0.395   9.124  0.5451  0.4103  0.2824
   9423SM   C2F12706   5.566   0.519   9.259 -0.9119  0.3437 -0.3889
   9423SM   H2F12707   5.491   0.451   9.212  2.9283 -4.2909 -0.6312
   9423SM   H2G12708   5.540   0.625   9.239  0.9839  0.8155 -0.6158
   9423SM   C3F12709   5.576   0.481   9.407 -0.1690 -0.2848 -0.4469
   9423SM   H3F12710   5.632   0.385   9.410 -1.0312 -0.7868  0.6878
   9423SM   H3G12711   5.472   0.463   9.442  0.6423 -2.5902  0.9862
   9423SM   C4F12712   5.639   0.584   9.500  0.0341 -0.0298 -0.2292
   9423SM   H4F12713   5.601   0.682   9.463  0.2418 -0.6574 -2.2116
   9423SM   H4G12714   5.749   0.579   9.483  0.0794  1.0011 -0.2802
   9423SM   C5F12715   5.606   0.563   9.645 -0.1852  0.0600  0.7025
   9423SM   H5F12716   5.663   0.475   9.681  0.8887  1.0311  1.4427
   9423SM   H5G12717   5.499   0.538   9.665 -0.1692 -1.2908 -0.7006
   9423SM   C6F12718   5.659   0.675   9.725  0.1306  0.1586 -0.1383
   9423SM   H6F12719   5.591   0.763   9.726  0.0979  0.1389 -0.4773
   9423SM   H6G12720   5.752   0.719   9.683  0.4201  1.0774  1.4068
   9423SM   C7F12721   5.693   0.650   9.868 -0.1385 -0.6452 -0.2498
   9423SM   H7F12722   5.736   0.547   9.876  0.7219 -0.3838 -1.2521
   9423SM   H7G12723   5.609   0.650   9.941  1.0158  1.1688  1.1723
   9423SM   C8F12724   5.799   0.757   9.913  0.5376  0.5541 -0.7853
   9423SM   H8F12725   5.758   0.860   9.917  1.1127  0.9078 -2.8644
   9423SM   H8G12726   5.888   0.754   9.847  0.3214  1.3426 -1.1188
   9423SM   C9F12727   5.859   0.734  10.052  0.1965 -0.6592  0.6562
   9423SM   H9F12728   5.922   0.824  10.070 -0.0606  0.1370 -1.9578
   9423SM   H9G12729   5.920   0.641  10.044 -1.4136 -1.6333 -1.2562
   9423SM  C10F12730   5.762   0.718  10.164  0.5586  0.2744 -0.8096
   9423SM  H10F12731   5.689   0.637  10.147  1.2029 -0.2396 -1.1715
   9423SM  H10G12732   5.697   0.808  10.177  0.8482  0.5663 -1.3297
   9423SM  C11F12733   5.840   0.679  10.294 -0.1225 -0.2144 -0.3570
   9423SM  H11F12734   5.934   0.738  10.294  0.8979 -1.7663 -0.4306
   9423SM  H11G12735   5.878   0.575  10.282  0.7703 -0.1098  1.2924
   9423SM  C12F12736   5.759   0.688  10.423 -1.1090  0.2880 -0.1246
   9423SM  H12F12737   5.673   0.618  10.424 -0.8454 -0.0602 -0.8088
   9423SM  H12G12738   5.730   0.795  10.429  1.8744  1.1618  0.6877
   9423SM  C13F12739   5.846   0.676  10.552 -0.1398 -0.1711 -0.5106
   9423SM  H13F12740   5.929   0.751  10.548 -0.0393 -0.1795  0.8843
   9423SM  H13G12741   5.888   0.574  10.541  3.4345  1.0988  0.0018
   9423SM  C14F12742   5.767   0.693  10.682 -0.2738  0.3586 -0.0252
   9423SM  H14F12743   5.680   0.624  10.669 -1.1252  1.0953  1.4858
   9423SM  H14G12744   5.737   0.800  10.687  0.4782  0.5044  1.9485
   9423SM  C15F12745   5.846   0.656  10.807  0.3479  0.0725  0.6739
   9423SM  H15F12746   5.936   0.721  10.813  1.7445 -0.8485 -4.7090
   9423SM  H15G12747   5.899   0.558  10.796  1.5686  0.5070  2.2608
   9423SM  C16F12748   5.767   0.656  10.937 -0.0141  0.2478  0.2579
   9423SM  H16F12749   5.696   0.572  10.929  0.0376  0.1930  0.3657
   9423SM  H16G12750   5.719   0.756  10.942 -1.6642 -0.4861 -0.3672
   9423SM  C17F12751   5.845   0.637  11.067 -0.3562 -0.2765 -0.0004
   9423SM  H17F12752   5.953   0.662  11.056  0.0382 -0.8169  2.2673
   9423SM  H17G12753   5.830   0.530  11.089 -0.7823 -0.1420  0.3661
   9423SM  C18F12754   5.799   0.705  11.196 -0.3522 -0.1979 -1.0116
   9423SM  H18F12755   5.839   0.646  11.281 -0.6801 -2.0164 -2.0717
   9423SM  H18G12756   5.688   0.695  11.196 -0.5780  1.8910 -0.9736
   9423SM  C19F12757   5.843   0.857  11.201  0.7261  0.2378 -0.1550
   9423SM  H19F12758   5.827   0.902  11.101 -1.8405 -1.3655 -0.5566
   9423SM  H19G12759   5.952   0.855  11.224  0.2835 -1.0839  2.0947
   9423SM  C20F12760   5.751   0.935  11.294  0.4181 -0.4998 -0.3911
   9423SM  H20F12761   5.710   0.871  11.375 -1.1545 -0.5167 -1.1675
   9423SM  H20G12762   5.659   0.962  11.238 -0.4543  1.2103  1.7601
   9423SM  C21F12763   5.820   1.056  11.361 -0.7946  0.4502  0.0192
   9423SM  H21F12764   5.843   1.127  11.279  1.8364 -2.2302 -1.7524
   9423SM  H21G12765   5.923   1.039  11.398 -0.2594  1.5811 -0.8977
   9423SM  C22F12766   5.740   1.133  11.469  0.6509 -0.7113  0.2055
   9423SM  H22F12767   5.634   1.135  11.435  0.1890 -0.4747  1.6278
   9423SM  H22G12768   5.777   1.235  11.493 -1.3910 -0.5944  3.3726
   9423SM  C23F12769   5.747   1.054  11.596 -0.0010 -0.6452 -0.2119
   9423SM  H23F12770   5.680   1.088  11.678  0.7537 -0.5123  0.3503
   9423SM  H23G12771   5.845   1.079  11.641 -0.8717  0.7631  0.9817
   9423SM  H23H12772   5.753   0.944  11.581  2.1214 -0.7929  1.2697
   9523SM     N12773   2.459   3.745   8.578 -0.2066  0.3414  0.3578
   9523SM   C1512774   2.548   3.669   8.675  0.1868  0.4414  0.1720
   9523SM  H15A12775   2.642   3.717   8.699  1.0860  0.5319 -3.0072
   9523SM  H15B12776   2.590   3.581   8.628  1.2034  1.6301 -1.2717
   9523SM  H15C12777   2.502   3.640   8.768  0.0270 -1.9748 -0.5833
   9523SM   C1412778   2.431   3.879   8.623 -0.4182  0.0767  0.1397
   9523SM  H14A12779   2.516   3.921   8.674  0.0846  2.0338 -2.1072
   9523SM  H14B12780   2.350   3.880   8.695 -0.5739 -1.2631 -0.0026
   9523SM  H14C12781   2.409   3.950   8.544  0.7222  1.1261  0.7252
   9523SM   C1312782   2.531   3.744   8.450 -0.3016  0.5075  0.2820
   9523SM  H13A12783   2.634   3.775   8.456 -0.2481  0.3986 -0.0594
   9523SM  H13B12784   2.482   3.811   8.381  1.6234  1.4920 -0.2169
   9523SM  H13C12785   2.532   3.641   8.416 -2.4888  0.3041  0.7115
   9523SM   C1212786   2.321   3.670   8.568 -0.4574  0.1421 -0.2801
   9523SM  H12A12787   2.329   3.573   8.520 -1.4913 -0.0374 -0.1021
   9523SM  H12B12788   2.263   3.730   8.499  0.1520  1.3777  0.2469
   9523SM   C1112789   2.226   3.652   8.697  0.7354  0.2758 -0.3086
   9523SM  H11A12790   2.280   3.615   8.787  0.1456 -0.3723 -0.2132
   9523SM  H11B12791   2.152   3.571   8.680 -0.4311  1.2782 -0.1458
   9523SM     P12792   2.012   3.818   8.734  0.1886  0.3143  0.2882
   9523SM   O1312793   2.005   3.969   8.725 -0.3685 -0.2292  0.0017
   9523SM   O1412794   1.927   3.739   8.641 -0.0379 -0.3579 -0.3366
   9523SM   O1112795   1.961   3.775   8.876 -0.2012 -0.3597 -0.5529
   9523SM   O1212796   2.159   3.780   8.718  0.3589 -0.1502 -0.3879
   9523SM   C1S12797   2.053   3.789   8.985 -0.4352  0.1281 -0.4226
   9523SM   H1S12798   2.104   3.888   8.983 -0.1709 -0.0122 -0.5639
   9523SM   H1T12799   2.127   3.707   8.979  0.4919  0.7308  1.7230
   9523SM    NF12800   2.086   3.801   9.229 -0.3951  0.0195 -0.2360
   9523SM   HNF12801   2.122   3.729   9.288  0.3457  0.0155 -0.6826
   9523SM   C2S12802   1.984   3.773   9.124 -0.5025  0.2333 -0.4086
   9523SM   H2S12803   1.899   3.845   9.126 -0.6268  0.0721  0.3361
   9523SM   C3S12804   1.910   3.641   9.138 -0.9555 -0.6041 -0.0678
   9523SM   H3S12805   1.988   3.564   9.127  0.9658  0.8862  2.1873
   9523SM    O312806   1.813   3.616   9.044 -0.0058 -0.4177  0.1992
   9523SM   HO312807   1.824   3.683   8.975  0.0927  0.5570  1.1236
   9523SM   C4S12808   1.848   3.624   9.273 -0.6135  0.0574 -0.2266
   9523SM   H4S12809   1.768   3.691   9.307 -0.2075  0.6784 -0.4885
   9523SM   C5S12810   1.905   3.538   9.358 -0.3088 -0.2507 -0.5096
   9523SM   H5S12811   1.992   3.477   9.331 -1.2120 -1.5818 -0.4913
   9523SM   C6S12812   1.851   3.502   9.494 -0.1039  0.1022  0.2802
   9523SM   H6S12813   1.786   3.583   9.532  0.5145  1.1191 -0.7669
   9523SM   H6T12814   1.930   3.509   9.572  2.4981 -0.5307 -2.1122
   9523SM   C7S12815   1.771   3.373   9.485  0.2815  0.4364  0.4798
   9523SM   H7S12816   1.830   3.291   9.439 -1.0147 -0.9519  1.1799
   9523SM   H7T12817   1.686   3.380   9.414  0.8617 -1.1142 -0.4273
   9523SM   C8S12818   1.704   3.319   9.616  0.2847 -0.3655  0.6632
   9523SM   H8S12819   1.643   3.229   9.592 -1.7262  1.6826 -2.7989
   9523SM   H8T12820   1.629   3.400   9.631  1.5905  0.9319  0.4288
   9523SM   C9S12821   1.799   3.303   9.737  0.3822 -0.2988 -0.5601
   9523SM   H9S12822   1.744   3.301   9.834 -0.1784 -1.4191 -0.8824
   9523SM   H9T12823   1.847   3.403   9.746  2.5739 -1.2737 -0.7517
   9523SM  C10S12824   1.899   3.184   9.736 -0.0692  0.6382  0.0914
   9523SM  H10S12825   1.934   3.171   9.631 -3.0736 -1.7758 -0.7668
   9523SM  H10T12826   1.845   3.090   9.759 -2.3360  1.3555 -1.9090
   9523SM  C11S12827   2.018   3.200   9.828  0.2117 -0.1582 -0.1833
   9523SM  H11S12828   2.048   3.306   9.812 -4.6421  1.6402  1.0632
   9523SM  H11T12829   2.097   3.129   9.794 -0.4386 -1.7978  1.5585
   9523SM  C12S12830   1.992   3.165   9.974  0.7749  0.5650 -0.1027
   9523SM  H12S12831   1.954   3.061   9.981 -1.6275  1.4293  0.9175
   9523SM  H12T12832   1.910   3.232  10.009  0.4863  2.2163 -3.4774
   9523SM  C13S12833   2.118   3.161  10.058 -0.3372  0.4324 -0.9882
   9523SM  H13S12834   2.166   3.261  10.064 -3.0012  1.8088 -1.2949
   9523SM  H13T12835   2.190   3.092  10.009 -2.5203  0.1649 -4.1120
   9523SM  C14S12836   2.074   3.124  10.202 -0.0015 -0.7348 -0.0681
   9523SM  H14S12837   2.027   3.024  10.205 -0.8838 -0.3067  2.9723
   9523SM  H14T12838   1.997   3.198  10.232 -0.0570 -0.2011 -1.4215
   9523SM  C15S12839   2.198   3.131  10.293  0.0123 -0.6966 -0.3698
   9523SM  H15S12840   2.229   3.237  10.280  0.5944 -0.7181  0.7234
   9523SM  H15T12841   2.281   3.067  10.255  0.9353  0.5687 -0.5681
   9523SM  C16S12842   2.154   3.104  10.435 -0.0639  0.5210  0.5746
   9523SM  H16S12843   2.067   3.172  10.452 -1.1785 -0.3900 -1.2056
   9523SM  H16T12844   2.227   3.149  10.505 -2.1116  3.9552  0.7454
   9523SM  C17S12845   2.133   2.955  10.474 -0.5678  0.1784 -0.3198
   9523SM  H17S12846   2.228   2.898  10.459  0.9064  1.8259  2.0941
   9523SM  H17T12847   2.055   2.916  10.405 -1.1495  3.5022 -1.7528
   9523SM  C18S12848   2.080   2.925  10.618 -0.0334 -1.1350 -0.0678
   9523SM  H18S12849   2.053   2.817  10.614 -0.2259 -1.0792 -0.2615
   9523SM  H18T12850   1.997   2.994  10.643  1.4788  0.0888  1.8525
   9523SM  H18U12851   2.157   2.936  10.697 -1.8033  2.4826  1.3756
   9523SM   C1F12852   2.126   3.924   9.263  0.0182 -0.3327 -0.2726
   9523SM    OF12853   2.092   4.022   9.194  0.3773 -0.1792 -0.2979
   9523SM   C2F12854   2.216   3.943   9.377 -0.6336  0.5424 -0.5609
   9523SM   H2F12855   2.305   3.884   9.348 -2.0054 -0.6689 -2.5878
   9523SM   H2G12856   2.165   3.887   9.457  1.4621 -0.2828  0.2469
   9523SM   C3F12857   2.237   4.094   9.400 -0.4045  0.0128 -0.0563
   9523SM   H3F12858   2.140   4.143   9.423  0.1820  1.2422 -0.1069
   9523SM   H3G12859   2.278   4.148   9.312  1.2380  1.3851  1.4772
   9523SM   C4F12860   2.329   4.119   9.515 -0.3194  0.1777  0.2476
   9523SM   H4F12861   2.362   4.225   9.524  1.0321 -0.3713  2.9993
   9523SM   H4G12862   2.427   4.068   9.503  0.3613  1.1605  1.3421
   9523SM   C5F12863   2.274   4.099   9.653  0.0949  0.4827 -0.5028
   9523SM   H5F12864   2.264   3.989   9.663  1.4442  0.4342  0.5268
   9523SM   H5G12865   2.178   4.154   9.660 -0.1247  0.1157 -0.6246
   9523SM   C6F12866   2.365   4.149   9.775  0.0644 -0.2869  0.2648
   9523SM   H6F12867   2.382   4.257   9.753  1.5432 -0.8602 -1.7613
   9523SM   H6G12868   2.466   4.104   9.770  0.9803  1.7931 -1.7397
   9523SM   C7F12869   2.298   4.112   9.911  0.0751  0.6019 -0.6962
   9523SM   H7F12870   2.265   4.007   9.895 -0.3179  0.7735 -1.0285
   9523SM   H7G12871   2.197   4.159   9.921  0.0048 -0.0260  2.4288
   9523SM   C8F12872   2.385   4.113  10.033  0.1748  0.3495  0.3069
   9523SM   H8F12873   2.482   4.069   9.999 -0.5114 -0.7423 -0.3056
   9523SM   H8G12874   2.329   4.065  10.116 -2.0794  1.4931 -0.4824
   9523SM   C9F12875   2.406   4.261  10.081 -0.6677  0.2569 -0.0698
   9523SM   H9F12876   2.306   4.308  10.091  0.1614  1.9442  0.8615
   9523SM   H9G12877   2.463   4.306   9.997  1.4607 -0.9494  0.6617
   9523SM  C10F12878   2.489   4.285  10.208  0.2322  0.1022  0.0594
   9523SM  H10F12879   2.494   4.395  10.223 -1.8076  0.5542 -1.9316
   9523SM  H10G12880   2.590   4.246  10.185  0.3534 -0.0193  0.7757
   9523SM  C11F12881   2.437   4.201  10.325 -0.0444 -0.5081  0.1394
   9523SM  H11F12882   2.443   4.092  10.303  0.7779 -0.0670 -2.0436
   9523SM  H11G12883   2.329   4.217  10.345  0.0001  0.6070 -0.4446
   9523SM  C12F12884   2.511   4.231  10.460  0.9538  0.1216  0.5657
   9523SM  H12F12885   2.498   4.339  10.483  0.9714  0.3275 -0.3351
   9523SM  H12G12886   2.616   4.200  10.443  1.1379  2.0982 -2.9188
   9523SM  C13F12887   2.458   4.142  10.574 -0.3110  0.6232 -0.1972
   9523SM  H13F12888   2.535   4.070  10.608 -1.0947  0.0419  0.3892
   9523SM  H13G12889   2.367   4.090  10.537 -1.0583 -1.8551  4.3605
   9523SM  C14F12890   2.395   4.226  10.690 -0.0623  0.6956  0.0213
   9523SM  H14F12891   2.338   4.163  10.761 -2.5458  0.5387 -1.9746
   9523SM  H14G12892   2.322   4.304  10.659 -1.0349  0.3286  1.3314
   9523SM  C15F12893   2.509   4.293  10.772  0.2238 -0.1929  0.0413
   9523SM  H15F12894   2.576   4.358  10.712  1.3261  0.2757  1.7193
   9523SM  H15G12895   2.563   4.205  10.813 -0.0287 -1.1036 -1.4850
   9523SM  C16F12896   2.466   4.390  10.881 -0.3141  0.7459  0.2507
   9523SM  H16F12897   2.388   4.342  10.943  1.4240 -0.2648  1.7319
   9523SM  H16G12898   2.418   4.479  10.836 -1.7253  0.8579  1.8721
   9523SM  C17F12899   2.585   4.423  10.972 -0.1543  0.1430 -0.0195
   9523SM  H17F12900   2.663   4.483  10.921  0.3775  1.4661  2.2344
   9523SM  H17G12901   2.621   4.321  11.000 -0.8681  0.2244  1.2511
   9523SM  C18F12902   2.544   4.500  11.101  0.9069 -0.4485 -0.0838
   9523SM  H18F12903   2.458   4.442  11.143  0.2816 -0.5446 -1.4386
   9523SM  H18G12904   2.509   4.602  11.073 -1.6853 -1.2732 -0.1137
   9523SM  C19F12905   2.651   4.516  11.210 -0.2064  1.0551 -0.6484
   9523SM  H19F12906   2.742   4.560  11.164  0.0878  0.3200 -0.7958
   9523SM  H19G12907   2.681   4.411  11.234 -0.3170  0.8921 -1.1998
   9523SM  C20F12908   2.613   4.593  11.335  0.6375 -1.1296  0.6658
   9523SM  H20F12909   2.537   4.534  11.392 -0.5977 -0.0413  0.1776
   9523SM  H20G12910   2.571   4.694  11.317  0.9804 -0.9313  0.9521
   9523SM  C21F12911   2.722   4.622  11.438 -0.0331  1.0072 -0.6155
   9523SM  H21F12912   2.791   4.699  11.396 -1.9542  3.6897  0.9035
   9523SM  H21G12913   2.786   4.532  11.454 -1.0255  0.6257  1.4024
   9523SM  C22F12914   2.651   4.660  11.569 -0.1407  0.4315  0.3004
   9523SM  H22F12915   2.570   4.588  11.594  2.7486 -2.4342  2.1982
   9523SM  H22G12916   2.610   4.760  11.546  1.6672  0.9960 -0.7599
   9523SM  C23F12917   2.735   4.665  11.690  0.0715 -0.3343 -0.8031
   9523SM  H23F12918   2.791   4.571  11.709 -0.7824 -0.6130  0.4360
   9523SM  H23G12919   2.679   4.683  11.784 -0.2496 -2.2609 -0.5931
   9523SM  H23H12920   2.813   4.743  11.676 -0.5609  0.1819 -1.5609
   9623SM     N12921   2.981   2.828   8.527  0.1904  0.2121 -0.0685
   9623SM   C1512922   3.083   2.755   8.599 -0.0786 -0.3143  0.4365
   9623SM  H15A12923   3.148   2.820   8.657 -0.5387 -0.0703  0.6867
   9623SM  H15B12924   3.145   2.693   8.536 -0.7886  1.4885 -2.1769
   9623SM  H15C12925   3.041   2.689   8.674  2.1651 -1.4719  0.7608
   9623SM   C1412926   3.064   2.926   8.450 -0.4104 -0.1912 -0.3185
   9623SM  H14A12927   3.127   2.870   8.384 -1.7944 -2.8064  0.4403
   9623SM  H14B12928   3.129   2.984   8.514 -1.2370 -1.1409  1.4520
   9623SM  H14C12929   3.003   2.991   8.388  1.1937  1.0693 -0.6348
   9623SM   C1312930   2.903   2.742   8.436 -0.2265  0.3934 -0.2626
   9623SM  H13A12931   2.969   2.687   8.371  0.4588  1.1117 -0.1872
   9623SM  H13B12932   2.828   2.800   8.384 -2.1191 -2.0866 -0.5059
   9623SM  H13C12933   2.848   2.672   8.498 -0.1554 -0.2306 -0.8888
   9623SM   C1212934   2.893   2.895   8.622  0.5000  0.3329 -0.0743
   9623SM  H12A12935   2.963   2.954   8.680  1.8069 -2.0227  0.8717
   9623SM  H12B12936   2.853   2.825   8.693  0.6317  0.4861  0.1538
   9623SM   C1112937   2.762   2.964   8.574 -0.2884  0.3765 -0.3947
   9623SM  H11A12938   2.792   3.044   8.502 -2.6233  0.7874 -0.9968
   9623SM  H11B12939   2.720   3.028   8.655 -1.1031 -1.5623  0.7998
   9623SM     P12940   2.585   2.775   8.626  0.1639 -0.0496  0.2274
   9623SM   O1312941   2.454   2.741   8.568  0.0905  0.0828 -0.5278
   9623SM   O1412942   2.673   2.661   8.656 -0.5166  0.3090 -0.0663
   9623SM   O1112943   2.560   2.856   8.761 -0.2182  0.1902  0.5779
   9623SM   O1212944   2.655   2.877   8.531  0.6191 -0.0058  0.1186
   9623SM   C1S12945   2.464   2.818   8.853 -0.3817 -0.0939 -0.3297
   9623SM   H1S12946   2.432   2.712   8.839  1.3564 -0.8621  1.1666
   9623SM   H1T12947   2.374   2.883   8.842 -1.2320 -1.0857  0.5093
   9623SM    NF12948   2.444   2.765   9.106 -0.1468 -0.9901 -0.3466
   9623SM   HNF12949   2.390   2.816   9.173 -2.5529 -2.8951 -0.7006
   9623SM   C2S12950   2.514   2.838   8.996 -0.0173  0.4655 -1.3588
   9623SM   H2S12951   2.615   2.793   8.997  0.0106  0.3755  1.3527
   9623SM   C3S12952   2.555   2.986   9.032  0.7555 -0.2087  0.0198
   9623SM   H3S12953   2.466   3.047   9.007  0.7523 -0.3609 -0.3485
   9623SM    O312954   2.658   3.035   8.948 -0.5948 -0.1893  0.4887
   9623SM   HO312955   2.677   2.971   8.879  0.3925  2.6572 -2.1229
   9623SM   C4S12956   2.598   2.993   9.172 -0.7094 -0.0250  0.5432
   9623SM   H4S12957   2.668   2.912   9.195 -0.0941  0.0827 -0.8629
   9623SM   C5S12958   2.564   3.084   9.265 -0.5190 -0.1805 -0.9488
   9623SM   H5S12959   2.481   3.151   9.237 -1.0820 -0.9833 -1.2161
   9623SM   C6S12960   2.606   3.090   9.408 -0.0536 -0.4900  0.0122
   9623SM   H6S12961   2.642   3.192   9.432  1.9516 -0.8683 -1.1268
   9623SM   H6T12962   2.685   3.017   9.435 -0.3665 -0.8134  0.0659
   9623SM   C7S12963   2.481   3.048   9.494 -0.2730 -0.2325 -0.1142
   9623SM   H7S12964   2.454   2.946   9.460 -0.2324  0.7322 -3.3180
   9623SM   H7T12965   2.401   3.119   9.465  1.1592  1.5728  0.2247
   9623SM   C8S12966   2.498   3.063   9.645  0.3536  0.1608 -0.1305
   9623SM   H8S12967   2.569   2.984   9.677 -0.0720  0.0798  0.6573
   9623SM   H8T12968   2.403   3.031   9.693  1.4594 -2.3994  0.5024
   9623SM   C9S12969   2.546   3.204   9.687  0.1013 -0.0536 -0.9177
   9623SM   H9S12970   2.532   3.277   9.603  2.4091  1.8518  0.2472
   9623SM   H9T12971   2.655   3.189   9.697 -0.3304 -2.9634  0.5561
   9623SM  C10S12972   2.489   3.265   9.820  0.8313 -0.2252  0.3325
   9623SM  H10S12973   2.379   3.271   9.804  1.2677  1.1953 -3.1498
   9623SM  H10T12974   2.529   3.369   9.825  0.3038  0.1748 -2.1337
   9623SM  C11S12975   2.505   3.176   9.941  0.1119 -0.7175  0.2525
   9623SM  H11S12976   2.609   3.139   9.942 -0.3039 -2.0572  3.0370
   9623SM  H11T12977   2.437   3.088   9.938  2.0010 -2.2251 -0.4729
   9623SM  C12S12978   2.493   3.264  10.068  0.2032  0.1696  0.1287
   9623SM  H12S12979   2.388   3.296  10.082 -0.3332 -0.7923 -1.3826
   9623SM  H12T12980   2.552   3.357  10.051 -0.0528  0.2153 -0.5694
   9623SM  C13S12981   2.566   3.207  10.194  0.4554  0.0232  1.0053
   9623SM  H13S12982   2.675   3.190  10.181  0.5550  1.1978  0.1429
   9623SM  H13T12983   2.518   3.110  10.216 -0.4928  0.1440 -0.4521
   9623SM  C14S12984   2.532   3.289  10.313  0.4839 -0.6672  0.1457
   9623SM  H14S12985   2.428   3.328  10.308  0.6507 -0.3871 -1.4378
   9623SM  H14T12986   2.593   3.382  10.307 -0.1614 -0.2410  0.0152
   9623SM  C15S12987   2.559   3.223  10.451 -0.0124  0.0719 -0.6421
   9623SM  H15S12988   2.668   3.202  10.452 -0.2224 -1.9546 -4.0650
   9623SM  H15T12989   2.510   3.125  10.469  0.2364  0.2238  1.0137
   9623SM  C16S12990   2.512   3.311  10.572 -1.0937  0.0891  0.0261
   9623SM  H16S12991   2.401   3.311  10.578 -1.1259 -3.6180  2.0570
   9623SM  H16T12992   2.550   3.413  10.548  1.2982 -1.2670 -2.6111
   9623SM  C17S12993   2.566   3.250  10.702  0.0870 -0.0088 -0.0755
   9623SM  H17S12994   2.675   3.271  10.699  0.1674  0.5208  3.2684
   9623SM  H17T12995   2.552   3.140  10.698  0.4459 -0.1523  1.8684
   9623SM  C18S12996   2.506   3.323  10.824 -0.7360  0.0767  0.0787
   9623SM  H18S12997   2.395   3.314  10.833 -0.6745 -0.1914  0.6306
   9623SM  H18T12998   2.525   3.432  10.817  1.1228 -0.3119 -3.3530
   9623SM  H18U12999   2.543   3.279  10.919 -1.1752 -0.5325 -0.0250
   9623SM   C1F13000   2.416   2.635   9.107  0.1590  0.6941  0.1164
   9623SM    OF13001   2.470   2.561   9.023 -0.7685 -0.2539  0.6245
   9623SM   C2F13002   2.324   2.583   9.219 -0.5799 -0.7311  0.5396
   9623SM   H2F13003   2.330   2.472   9.225  1.3591 -0.6205  1.3408
   9623SM   H2G13004   2.221   2.619   9.196 -0.3021  0.8608  1.6456
   9623SM   C3F13005   2.358   2.635   9.369 -0.8951 -0.8002  0.2926
   9623SM   H3F13006   2.288   2.589   9.442  0.5508 -0.5568  1.9050
   9623SM   H3G13007   2.349   2.745   9.366 -0.3027 -0.7704 -0.5572
   9623SM   C4F13008   2.502   2.602   9.411 -0.0815  0.4389 -0.4707
   9623SM   H4F13009   2.579   2.654   9.351 -0.5052 -0.0241 -1.4565
   9623SM   H4G13010   2.519   2.494   9.392 -0.8257  0.4818 -1.4672
   9623SM   C5F13011   2.524   2.635   9.563 -0.1827  0.2106  0.1222
   9623SM   H5F13012   2.461   2.559   9.612  1.0210 -0.5381  0.5616
   9623SM   H5G13013   2.488   2.736   9.592  0.1891  0.1534  0.7969
   9623SM   C6F13014   2.678   2.630   9.587 -0.0766  0.1335 -0.1253
   9623SM   H6F13015   2.722   2.728   9.559 -0.4163  0.9244  1.9265
   9623SM   H6G13016   2.727   2.550   9.527  0.3129 -0.0024  0.3659
   9623SM   C7F13017   2.710   2.609   9.736  0.1961 -0.3241 -0.2888
   9623SM   H7F13018   2.821   2.616   9.730  0.3255 -1.5730  0.2833
   9623SM   H7G13019   2.678   2.506   9.762 -0.7951  0.0353 -0.0535
   9623SM   C8F13020   2.639   2.701   9.829 -0.0242  0.0448 -0.1947
   9623SM   H8F13021   2.533   2.672   9.819  0.5096 -1.6664 -1.3526
   9623SM   H8G13022   2.647   2.807   9.795  0.0489  0.5789  1.4164
   9623SM   C9F13023   2.673   2.690   9.977  0.0117 -0.5604  0.4337
   9623SM   H9F13024   2.780   2.663   9.990  0.1146 -1.6180 -2.0289
   9623SM   H9G13025   2.611   2.605  10.015 -1.4434 -0.1448 -0.8981
   9623SM  C10F13026   2.650   2.817  10.055  0.0313 -0.6363 -0.4309
   9623SM  H10F13027   2.546   2.843  10.026  1.1351  0.2171 -4.2964
   9623SM  H10G13028   2.708   2.897  10.005 -1.8846  1.1391  0.0506
   9623SM  C11F13029   2.683   2.813  10.201  0.3615  0.0811  0.2818
   9623SM  H11F13030   2.680   2.921  10.227  1.4215 -0.2311  1.8174
   9623SM  H11G13031   2.788   2.781  10.219  0.2947 -0.6845 -0.6227
   9623SM  C12F13032   2.586   2.740  10.296 -0.0229 -0.3261  1.1135
   9623SM  H12F13033   2.592   2.630  10.281 -0.8065 -0.6079  2.6707
   9623SM  H12G13034   2.493   2.787  10.257  0.1119 -1.4510 -0.7029
   9623SM  C13F13035   2.602   2.780  10.440 -0.5335 -0.6581 -0.1664
   9623SM  H13F13036   2.604   2.892  10.443  1.8344 -0.6195 -1.2560
   9623SM  H13G13037   2.709   2.758  10.458 -1.1711 -3.6936  0.4217
   9623SM  C14F13038   2.524   2.704  10.544 -0.0015 -0.8602  0.2701
   9623SM  H14F13039   2.537   2.599  10.508  0.2539  0.7268 -5.1045
   9623SM  H14G13040   2.417   2.733  10.545  0.4450  0.8633  0.9762
   9623SM  C15F13041   2.586   2.726  10.680  0.3082 -0.0110  0.4586
   9623SM  H15F13042   2.589   2.836  10.699 -1.1605  0.3754 -1.2400
   9623SM  H15G13043   2.683   2.673  10.689  1.2249  1.2024 -1.4934
   9623SM  C16F13044   2.487   2.660  10.782 -0.3979 -0.5802  0.7124
   9623SM  H16F13045   2.441   2.572  10.732 -2.0237  0.1814  0.8205
   9623SM  H16G13046   2.391   2.713  10.799 -0.0590  0.2580  0.0576
   9623SM  C17F13047   2.551   2.613  10.907 -0.8662  0.1389 -0.0967
   9623SM  H17F13048   2.650   2.568  10.889 -0.4326  1.6493 -1.8505
   9623SM  H17G13049   2.487   2.543  10.965 -1.0948  0.4971  0.0858
   9623SM  C18F13050   2.566   2.730  11.007 -0.0960  0.5232  0.1246
   9623SM  H18F13051   2.470   2.784  11.007 -1.1326 -1.2430  0.1668
   9623SM  H18G13052   2.648   2.801  10.983 -0.2766 -0.1292 -2.7342
   9623SM  C19F13053   2.606   2.676  11.149  0.2522 -0.4198 -0.8899
   9623SM  H19F13054   2.703   2.622  11.141  0.7911  0.4854 -0.5687
   9623SM  H19G13055   2.534   2.607  11.198  2.3265 -0.7222  1.9838
   9623SM  C20F13056   2.638   2.791  11.245 -0.1682 -0.1507  0.2578
   9623SM  H20F13057   2.539   2.831  11.275  0.7487  0.3913  2.8722
   9623SM  H20G13058   2.684   2.875  11.190  1.1311 -1.2153 -0.3376
   9623SM  C21F13059   2.734   2.760  11.366  0.3837 -0.9796  0.1602
   9623SM  H21F13060   2.747   2.860  11.412 -0.0965  0.0626 -1.8394
   9623SM  H21G13061   2.826   2.728  11.312  0.1710 -2.1465  0.4721
   9623SM  C22F13062   2.687   2.661  11.464  0.8282 -0.1538 -0.0638
   9623SM  H22F13063   2.670   2.560  11.421  3.1990 -1.0270  0.8551
   9623SM  H22G13064   2.594   2.698  11.513  1.1479 -1.2429  1.4441
   9623SM  C23F13065   2.789   2.637  11.577  0.7150  0.0010  0.4917
   9623SM  H23F13066   2.884   2.596  11.536 -0.2134 -3.1625  1.2298
   9623SM  H23G13067   2.751   2.555  11.641  0.7450 -0.1651  0.2991
   9623SM  H23H13068   2.808   2.731  11.632 -0.3535  1.4284 -1.4163
   9723SM     N13069   5.010   1.056   8.488 -0.3219  0.0866  0.7198
   9723SM   C1513070   4.940   1.165   8.565 -0.3438 -0.1752 -0.0194
   9723SM  H15A13071   4.906   1.248   8.505  0.3311  0.0945 -0.0287
   9723SM  H15B13072   5.005   1.212   8.637 -2.4252  2.0929  0.5493
   9723SM  H15C13073   4.852   1.118   8.606 -0.4451 -0.1458 -0.2030
   9723SM   C1413074   4.912   1.006   8.385  0.3599 -0.1586  0.2975
   9723SM  H14A13075   4.845   0.933   8.428 -1.9135  1.0555 -0.9934
   9723SM  H14B13076   4.960   0.957   8.302  2.4523  0.9203  0.7923
   9723SM  H14C13077   4.849   1.082   8.341  1.9085  0.7171 -0.4924
   9723SM   C1313078   5.124   1.126   8.418  0.5393 -0.4068 -0.0997
   9723SM  H13A13079   5.164   1.057   8.345  0.1683  0.3788 -1.0554
   9723SM  H13B13080   5.198   1.144   8.494 -0.0305  1.7174 -0.0114
   9723SM  H13C13081   5.097   1.219   8.372  2.0128 -0.1369 -0.4567
   9723SM   C1213082   5.070   0.943   8.569  0.1568  0.0848  0.2036
   9723SM  H12A13083   5.151   0.990   8.624 -1.7390  2.5752  1.0557
   9723SM  H12B13084   5.121   0.872   8.505 -1.4600 -2.2527  1.3604
   9723SM   C1113085   4.980   0.853   8.664  0.0833  0.5579 -0.0760
   9723SM  H11A13086   4.938   0.922   8.741  1.0555 -0.6792  1.6539
   9723SM  H11B13087   5.038   0.772   8.713 -1.0733 -0.3631 -0.1858
   9723SM     P13088   4.737   0.749   8.647 -0.4414  0.1008  0.2490
   9723SM   O1313089   4.646   0.864   8.633 -0.3291 -0.3445 -0.3356
   9723SM   O1413090   4.677   0.627   8.587  0.4016  0.0271 -0.0408
   9723SM   O1113091   4.761   0.724   8.798 -0.3422  0.3710 -0.0887
   9723SM   O1213092   4.884   0.781   8.588  1.0165 -0.4010  0.4261
   9723SM   C1S13093   4.661   0.660   8.884 -0.5452 -0.5171  0.6410
   9723SM   H1S13094   4.678   0.551   8.898 -0.2432 -0.7191 -1.0934
   9723SM   H1T13095   4.558   0.666   8.842 -0.3645 -1.6060 -0.0087
   9723SM    NF13096   4.544   0.684   9.106 -0.7168  0.1873 -0.1319
   9723SM   HNF13097   4.466   0.745   9.120 -1.4287 -0.7795  0.2779
   9723SM   C2S13098   4.652   0.730   9.025  0.2728  0.6045  0.0961
   9723SM   H2S13099   4.743   0.710   9.085  0.8477 -0.5654 -1.1156
   9723SM   C3S13100   4.655   0.884   9.012 -0.1270 -0.3113  0.0552
   9723SM   H3S13101   4.567   0.920   8.954 -0.7802  0.7958  1.6523
   9723SM    O313102   4.763   0.940   8.946 -0.0335 -0.3716 -0.0089
   9723SM   HO313103   4.798   0.861   8.903  0.6399  1.4547 -3.1036
   9723SM   C4S13104   4.627   0.948   9.154  0.0090 -0.3285  0.7193
   9723SM   H4S13105   4.539   1.015   9.153  1.7171  2.0837 -0.6915
   9723SM   C5S13106   4.716   0.949   9.257  0.5839  0.1025 -0.2533
   9723SM   H5S13107   4.813   0.902   9.232  0.1194 -1.2010  0.2786
   9723SM   C6S13108   4.719   1.018   9.392 -0.8278 -0.3833 -0.2149
   9723SM   H6S13109   4.619   1.064   9.411  0.2517  2.0840 -0.2427
   9723SM   H6T13110   4.792   1.101   9.394  0.8372 -1.8135  0.4730
   9723SM   C7S13111   4.766   0.934   9.514  0.1494  0.2190 -0.3376
   9723SM   H7S13112   4.871   0.909   9.486  0.0241 -0.9514  0.2004
   9723SM   H7T13113   4.713   0.838   9.528  0.3275  0.1195 -0.3367
   9723SM   C8S13114   4.766   1.024   9.645 -0.0478  0.0031  0.0334
   9723SM   H8S13115   4.665   1.070   9.639 -0.1949 -0.5106 -2.5559
   9723SM   H8T13116   4.841   1.106   9.634  0.1309 -0.4524 -2.7129
   9723SM   C9S13117   4.785   0.930   9.772 -0.5872  0.5523  0.7651
   9723SM   H9S13118   4.886   0.885   9.766 -1.1146 -0.5133 -0.9385
   9723SM   H9T13119   4.713   0.847   9.788 -1.4600  1.2762  0.6563
   9723SM  C10S13120   4.770   1.011   9.901  0.1687  0.3472 -0.4134
   9723SM  H10S13121   4.671   1.060   9.912  1.0639  2.0068  0.6835
   9723SM  H10T13122   4.849   1.088   9.885  0.1373 -0.1863 -3.9479
   9723SM  C11S13123   4.807   0.913  10.019  0.6715  0.2691 -0.6304
   9723SM  H11S13124   4.905   0.863  10.005  0.6214 -0.0139  0.0101
   9723SM  H11T13125   4.730   0.833  10.027 -0.0365  1.0349  0.5371
   9723SM  C12S13126   4.797   0.979  10.153 -0.0859  0.0593 -0.2214
   9723SM  H12S13127   4.689   1.004  10.164 -0.1402 -0.6978  1.1491
   9723SM  H12T13128   4.858   1.070  10.165  0.8129 -0.6324  0.5558
   9723SM  C13S13129   4.855   0.890  10.273  0.1703 -0.3303 -0.2571
   9723SM  H13S13130   4.965   0.885  10.259  0.2526 -1.5697  0.6984
   9723SM  H13T13131   4.809   0.790  10.264 -0.8764  0.2612 -2.4655
   9723SM  C14S13132   4.820   0.942  10.414 -0.7281 -0.4399  0.7088
   9723SM  H14S13133   4.709   0.949  10.417 -0.6756  2.3386 -0.3537
   9723SM  H14T13134   4.860   1.046  10.418 -0.4476 -0.4614 -0.9821
   9723SM  C15S13135   4.890   0.860  10.519  0.4394  0.4396 -0.3461
   9723SM  H15S13136   5.001   0.869  10.513  0.6679 -1.9226 -0.4236
   9723SM  H15T13137   4.873   0.751  10.512  0.2003  0.3151  1.5997
   9723SM  C16S13138   4.840   0.904  10.658 -0.4220  0.1873  0.7259
   9723SM  H16S13139   4.733   0.883  10.676 -0.7039 -0.5046 -1.4155
   9723SM  H16T13140   4.847   1.015  10.649 -1.3717  0.1761 -0.6440
   9723SM  C17S13141   4.927   0.863  10.782  0.4445  0.6314  0.8248
   9723SM  H17S13142   5.031   0.891  10.754  0.2283  0.2755 -0.3971
   9723SM  H17T13143   4.924   0.752  10.784  1.0753  0.5975  0.4933
   9723SM  C18S13144   4.879   0.915  10.914  0.1919  0.2366 -0.2324
   9723SM  H18S13145   4.791   0.855  10.948 -0.7028  1.1330 -0.9164
   9723SM  H18T13146   4.850   1.021  10.899  0.6791  0.3668 -0.2786
   9723SM  H18U13147   4.955   0.919  10.995  0.4510 -0.1512 -0.4539
   9723SM   C1F13148   4.532   0.558   9.155 -0.5450 -0.4139  0.6255
   9723SM    OF13149   4.616   0.468   9.131  0.0950  0.7066 -0.3224
   9723SM   C2F13150   4.408   0.523   9.237 -0.1231  0.5692  0.4399
   9723SM   H2F13151   4.420   0.427   9.292  0.8095 -0.8991 -2.1206
   9723SM   H2G13152   4.326   0.505   9.164 -1.3036  1.2806  1.5536
   9723SM   C3F13153   4.367   0.637   9.334  0.4006 -0.2232  0.1553
   9723SM   H3F13154   4.277   0.595   9.384  0.3399  1.2640  1.3781
   9723SM   H3G13155   4.332   0.724   9.274 -0.1283 -0.8064 -0.4069
   9723SM   C4F13156   4.466   0.674   9.442 -0.1645 -0.5036  0.2165
   9723SM   H4F13157   4.532   0.752   9.397 -0.8342 -0.6735 -1.1024
   9723SM   H4G13158   4.535   0.590   9.466 -0.0964 -0.8007 -0.9144
   9723SM   C5F13159   4.388   0.718   9.565  0.3975 -0.2918  0.1319
   9723SM   H5F13160   4.314   0.640   9.592  2.0071 -1.4929  1.2430
   9723SM   H5G13161   4.329   0.810   9.544  2.9049  1.7590  1.4753
   9723SM   C6F13162   4.474   0.737   9.688 -0.7143 -0.5095 -0.7038
   9723SM   H6F13163   4.525   0.833   9.666  0.1259 -1.4077 -2.9523
   9723SM   H6G13164   4.554   0.660   9.701 -0.4054  0.0733  1.3108
   9723SM   C7F13165   4.388   0.752   9.815  0.1014 -0.0659  0.2616
   9723SM   H7F13166   4.316   0.667   9.823 -2.0583  1.6936  0.3693
   9723SM   H7G13167   4.314   0.832   9.792 -2.2253 -2.9637 -3.6009
   9723SM   C8F13168   4.476   0.780   9.933  0.1417 -0.9995 -0.0108
   9723SM   H8F13169   4.496   0.889   9.937 -0.2639 -0.9428  0.6077
   9723SM   H8G13170   4.573   0.726   9.936  1.5210  1.3107 -0.6785
   9723SM   C9F13171   4.409   0.746  10.070 -0.3928  0.5030 -0.6573
   9723SM   H9F13172   4.369   0.644  10.051 -0.1496  0.4398 -0.8354
   9723SM   H9G13173   4.314   0.803  10.075 -0.9339 -0.4323  0.1483
   9723SM  C10F13174   4.503   0.753  10.189  0.3195 -0.1542 -0.6160
   9723SM  H10F13175   4.559   0.848  10.205  1.2211 -0.5124 -1.5442
   9723SM  H10G13176   4.583   0.682  10.161  1.7908  2.1539 -2.7020
   9723SM  C11F13177   4.422   0.718  10.317  0.0668 -0.1154 -0.3778
   9723SM  H11F13178   4.359   0.631  10.286  1.2512 -1.0380 -0.2481
   9723SM  H11G13179   4.355   0.800  10.351  1.0905  0.7509 -0.4229
   9723SM  C12F13180   4.506   0.693  10.440 -0.1818  0.6605 -0.1660
   9723SM  H12F13181   4.587   0.768  10.447  1.9067 -1.3614 -1.4216
   9723SM  H12G13182   4.570   0.606  10.414  1.9945  2.0879  0.2178
   9723SM  C13F13183   4.420   0.682  10.570  0.1246 -0.2631 -0.3598
   9723SM  H13F13184   4.366   0.586  10.550  1.7433 -1.9213  2.4402
   9723SM  H13G13185   4.353   0.771  10.569 -2.0681 -1.7899 -2.3184
   9723SM  C14F13186   4.501   0.654  10.696  0.0394  0.1925  0.2013
   9723SM  H14F13187   4.569   0.741  10.708 -1.5461  1.8956 -2.1820
   9723SM  H14G13188   4.573   0.570  10.685 -0.3432  0.0849 -1.8388
   9723SM  C15F13189   4.412   0.658  10.817 -0.1041 -0.2704 -0.2554
   9723SM  H15F13190   4.340   0.576  10.797 -1.6968  1.3432 -1.4516
   9723SM  H15G13191   4.355   0.753  10.820  1.7528  0.8620  0.2957
   9723SM  C16F13192   4.487   0.650  10.941  0.3757  0.1941  0.1491
   9723SM  H16F13193   4.425   0.683  11.026 -0.1872  0.6654 -0.4397
   9723SM  H16G13194   4.573   0.721  10.939 -1.1450  2.1269  0.9023
   9723SM  C17F13195   4.544   0.511  10.971 -0.3636  0.0754 -0.9662
   9723SM  H17F13196   4.631   0.488  10.906  1.5149  0.4958  1.2686
   9723SM  H17G13197   4.454   0.447  10.959 -2.1489  1.1597  4.0852
   9723SM  C18F13198   4.587   0.512  11.119 -0.0932  0.5276 -0.8693
   9723SM  H18F13199   4.515   0.564  11.184 -0.4879  1.0986 -1.7436
   9723SM  H18G13200   4.676   0.578  11.120 -0.0544  0.5775 -2.9646
   9723SM  C19F13201   4.641   0.373  11.165  0.2500 -0.5543  0.4038
   9723SM  H19F13202   4.701   0.383  11.258  2.2633 -1.3306 -0.7536
   9723SM  H19G13203   4.721   0.344  11.095 -0.8959 -1.0590 -0.7384
   9723SM  C20F13204   4.536   0.264  11.172  0.3973  0.1120  0.9672
   9723SM  H20F13205   4.490   0.246  11.072  0.7992 -0.0431  0.8111
   9723SM  H20G13206   4.451   0.302  11.233 -1.3473 -0.0326 -1.2654
   9723SM  C21F13207   4.592   0.137  11.232 -0.1631  0.4800 -0.3087
   9723SM  H21F13208   4.514   0.059  11.245  1.6617 -1.2973  0.4722
   9723SM  H21G13209   4.631   0.168  11.331  0.2760  1.7899 -0.8662
   9723SM  C22F13210   4.711   0.074  11.164  0.4346 -0.4862  0.2410
   9723SM  H22F13211   4.743  -0.016  11.221 -0.5247  0.0158  1.6500
   9723SM  H22G13212   4.798   0.142  11.164  0.0554  0.1483  3.2172
   9723SM  C23F13213   4.675   0.019  11.026  0.3223 -0.3702  0.7314
   9723SM  H23F13214   4.755  -0.050  10.992  0.5850  0.6479 -0.8442
   9723SM  H23G13215   4.662   0.106  10.958 -0.5949 -0.3729  0.8910
   9723SM  H23H13216   4.578  -0.034  11.027 -0.3988  0.5873 -3.1470
   9823SM     N13217   6.466   0.256   8.146  0.0130 -0.3998 -0.7797
   9823SM   C1513218   6.466   0.376   8.057 -0.4360 -0.1479 -0.5185
   9823SM  H15A13219   6.531   0.447   8.105  1.1064 -2.3444  0.8133
   9823SM  H15B13220   6.371   0.426   8.043 -0.3388  0.4887  0.9452
   9823SM  H15C13221   6.525   0.361   7.967  1.9813 -1.2428  1.1424
   9823SM   C1413222   6.374   0.158   8.085 -0.3828  0.2944  0.2633
   9823SM  H14A13223   6.279   0.205   8.064 -1.9269 -2.3163  0.8642
   9823SM  H14B13224   6.352   0.073   8.149 -1.0068 -0.0534 -0.4040
   9823SM  H14C13225   6.398   0.119   7.988  0.3447 -2.4163  1.4448
   9823SM   C1313226   6.598   0.183   8.156  0.4170 -0.2859  0.0402
   9823SM  H13A13227   6.586   0.094   8.217  0.4503 -1.2839 -1.3717
   9823SM  H13B13228   6.665   0.248   8.210 -0.8794  2.1910 -1.1924
   9823SM  H13C13229   6.629   0.154   8.057 -0.7579 -0.7224 -0.2192
   9823SM   C1213230   6.405   0.294   8.286 -0.1458  0.5487 -0.2263
   9823SM  H12A13231   6.307   0.338   8.274 -0.2086  0.2645 -0.8244
   9823SM  H12B13232   6.470   0.368   8.329  1.0434  0.2218 -1.3896
   9823SM   C1113233   6.402   0.179   8.389  0.1863  0.8451 -0.2923
   9823SM  H11A13234   6.347   0.214   8.479  0.3974 -0.0844  0.2211
   9823SM  H11B13235   6.507   0.168   8.425  1.0472 -0.6155 -2.9540
   9823SM     P13236   6.405  -0.077   8.373  0.1712  0.2021  0.0918
   9823SM   O1313237   6.296  -0.180   8.353  0.1421  0.5301  0.2673
   9823SM   O1413238   6.524  -0.087   8.283 -0.0881 -0.5879  0.3864
   9823SM   O1113239   6.453  -0.073   8.524  0.8777 -0.2781 -0.0302
   9823SM   O1213240   6.332   0.062   8.351 -0.3126 -0.4288 -0.3281
   9823SM   C1S13241   6.345  -0.073   8.621 -0.4876 -0.3253 -0.8563
   9823SM   H1S13242   6.265  -0.148   8.606  0.4404 -1.2896 -1.1251
   9823SM   H1T13243   6.296   0.026   8.613  1.0228  0.3319 -2.4859
   9823SM    NF13244   6.302  -0.115   8.866 -0.5104  0.3381 -0.6005
   9823SM   HNF13245   6.266  -0.042   8.923 -1.2428 -1.2037  1.0133
   9823SM   C2S13246   6.402  -0.087   8.765  0.1370 -0.3961  0.2350
   9823SM   H2S13247   6.466  -0.178   8.763 -1.5639 -1.6563  0.2435
   9823SM   C3S13248   6.483   0.037   8.795  0.3530  0.5397 -0.2762
   9823SM   H3S13249   6.423   0.127   8.768 -1.1209  0.4542  2.3613
   9823SM    O313250   6.599   0.047   8.707 -0.2925 -0.0176  0.0944
   9823SM   HO313251   6.572  -0.001   8.628 -1.2946 -0.5476  0.7452
   9823SM   C4S13252   6.534   0.043   8.937  0.1794  0.3892 -0.4352
   9823SM   H4S13253   6.608  -0.036   8.958 -0.3138  0.0769  0.1559
   9823SM   C5S13254   6.520   0.140   9.028  0.5651 -0.0735 -0.1767
   9823SM   H5S13255   6.475   0.234   8.995 -2.6153 -1.2793  0.3791
   9823SM   C6S13256   6.571   0.134   9.169 -0.1984 -0.0916 -0.6259
   9823SM   H6S13257   6.657   0.205   9.175 -0.6659  0.3706  1.0128
   9823SM   H6T13258   6.616   0.035   9.193  1.9515  0.7989 -0.7644
   9823SM   C7S13259   6.465   0.173   9.277  0.3494  0.0067  0.6364
   9823SM   H7S13260   6.378   0.105   9.269 -0.5548  1.1101  0.8127
   9823SM   H7T13261   6.430   0.274   9.246  3.0006 -0.0679 -3.3812
   9823SM   C8S13262   6.524   0.171   9.419  0.5906 -0.5759  0.3146
   9823SM   H8S13263   6.599   0.253   9.418  0.7884 -0.7393 -1.7429
   9823SM   H8T13264   6.580   0.075   9.429  0.6946 -0.5710 -0.2185
   9823SM   C9S13265   6.410   0.177   9.518 -0.3973 -0.2936  0.6138
   9823SM   H9S13266   6.442   0.127   9.612  0.1181  0.4167  0.8217
   9823SM   H9T13267   6.318   0.126   9.481  1.0592 -1.3736 -1.7488
   9823SM  C10S13268   6.361   0.320   9.549 -0.8176  0.2026 -0.3071
   9823SM  H10S13269   6.279   0.306   9.623  0.5453 -1.7149  0.9396
   9823SM  H10T13270   6.307   0.374   9.468 -1.2718  1.2246  0.6487
   9823SM  C11S13271   6.468   0.411   9.605  0.6533 -0.5156  0.1861
   9823SM  H11S13272   6.420   0.505   9.638  0.0055 -1.0268  0.7089
   9823SM  H11T13273   6.533   0.451   9.524  0.8196 -0.7217  0.2191
   9823SM  C12S13274   6.566   0.355   9.709  0.6992 -0.0907 -0.1142
   9823SM  H12S13275   6.623   0.270   9.665  1.5929 -0.0258  0.8564
   9823SM  H12T13276   6.503   0.318   9.792  3.2002  0.2548  2.0733
   9823SM  C13S13277   6.662   0.456   9.774 -0.2256 -1.0687  0.5973
   9823SM  H13S13278   6.612   0.554   9.785  0.5343 -0.4606 -1.1119
   9823SM  H13T13279   6.736   0.480   9.695 -1.3108 -0.8119 -0.3747
   9823SM  C14S13280   6.730   0.408   9.901 -0.8241 -0.3785 -0.5643
   9823SM  H14S13281   6.820   0.473   9.907 -0.7005 -0.4769 -1.3139
   9823SM  H14T13282   6.757   0.301   9.882 -3.2884 -0.9770 -1.0533
   9823SM  C15S13283   6.637   0.416  10.026 -0.2450 -0.1799 -0.4395
   9823SM  H15S13284   6.544   0.359  10.006  0.5884 -1.5350 -0.5814
   9823SM  H15T13285   6.603   0.522  10.034  0.8442  0.1106  0.6728
   9823SM  C16S13286   6.694   0.368  10.154 -1.2718 -0.2671 -1.1001
   9823SM  H16S13287   6.789   0.420  10.178 -1.4711 -1.3172  2.6092
   9823SM  H16T13288   6.722   0.261  10.143 -1.0560 -0.1143 -2.2110
   9823SM  C17S13289   6.596   0.354  10.276 -0.7985  0.3413 -0.3845
   9823SM  H17S13290   6.505   0.300  10.242 -1.6554  0.1334  2.0698
   9823SM  H17T13291   6.578   0.458  10.308 -1.2373  0.1158  0.1111
   9823SM  C18S13292   6.646   0.273  10.395  0.6088 -0.3309 -0.4340
   9823SM  H18S13293   6.557   0.260  10.460  0.7746 -0.1363 -0.1696
   9823SM  H18T13294   6.726   0.317  10.458  0.2419  1.3751 -1.1043
   9823SM  H18U13295   6.675   0.173  10.356  0.7222 -0.0095 -1.1907
   9823SM   C1F13296   6.228  -0.224   8.861  0.2506 -0.6992 -0.9259
   9823SM    OF13297   6.234  -0.300   8.769 -0.1755 -0.6355  0.2224
   9823SM   C2F13298   6.142  -0.250   8.981  0.4300 -0.4574 -0.5483
   9823SM   H2F13299   6.146  -0.163   9.051 -1.6256 -0.7694  0.0323
   9823SM   H2G13300   6.179  -0.343   9.029  2.3231  0.6607  0.2918
   9823SM   C3F13301   5.997  -0.266   8.944  0.2674  0.0672 -0.3353
   9823SM   H3F13302   5.978  -0.329   8.855  0.3351 -0.1209 -0.2176
   9823SM   H3G13303   5.953  -0.166   8.926 -0.2415  0.2015  1.4524
   9823SM   C4F13304   5.914  -0.322   9.058  0.6256 -0.1683 -0.2713
   9823SM   H4F13305   5.958  -0.416   9.097 -0.0812  0.3739  2.0044
   9823SM   H4G13306   5.808  -0.340   9.030  0.6805 -0.7598 -0.1148
   9823SM   C5F13307   5.907  -0.240   9.184 -0.1552  0.2288  0.8051
   9823SM   H5F13308   5.890  -0.130   9.174  2.9687  0.9214  1.7732
   9823SM   H5G13309   6.007  -0.253   9.232  0.1354 -1.0347 -0.1082
   9823SM   C6F13310   5.811  -0.302   9.283  0.5387  0.0133 -0.3484
   9823SM   H6F13311   5.816  -0.413   9.288  0.3727  0.0637  2.0416
   9823SM   H6G13312   5.709  -0.280   9.244  1.5175  2.7013 -1.6424
   9823SM   C7F13313   5.824  -0.247   9.418  0.0266 -0.0892  0.3162
   9823SM   H7F13314   5.780  -0.147   9.437  1.2992  0.4976  0.2639
   9823SM   H7G13315   5.934  -0.250   9.434  0.1283  0.3195 -0.3021
   9823SM   C8F13316   5.770  -0.344   9.521  0.3116  0.1074  0.5924
   9823SM   H8F13317   5.808  -0.445   9.497  2.0969  0.5042  1.5791
   9823SM   H8G13318   5.660  -0.347   9.508 -0.1551  0.4695  3.6691
   9823SM   C9F13319   5.798  -0.305   9.667  0.0647  0.3959 -0.1396
   9823SM   H9F13320   5.737  -0.217   9.699 -0.5447 -0.7662  2.0674
   9823SM   H9G13321   5.904  -0.275   9.674  0.0387  0.6155 -0.6240
   9823SM  C10F13322   5.768  -0.419   9.763  0.1833  0.3750  0.8316
   9823SM  H10F13323   5.834  -0.506   9.740  0.6360  0.4970  1.6333
   9823SM  H10G13324   5.663  -0.453   9.769  0.5388 -0.5032  2.7500
   9823SM  C11F13325   5.799  -0.386   9.913 -0.7417 -0.2169 -0.2854
   9823SM  H11F13326   5.900  -0.339   9.911  0.1237 -2.0239 -0.9104
   9823SM  H11G13327   5.786  -0.460   9.994 -0.9105  1.4701  1.3094
   9823SM  C12F13328   5.706  -0.274   9.961 -0.2643 -0.3211  0.1632
   9823SM  H12F13329   5.602  -0.301   9.932 -0.1333  1.1817 -1.9050
   9823SM  H12G13330   5.742  -0.179   9.916  0.9385 -1.1622 -0.7249
   9823SM  C13F13331   5.729  -0.252  10.107 -0.3539  0.1434 -0.3798
   9823SM  H13F13332   5.837  -0.235  10.125 -0.7597  2.6212  0.0099
   9823SM  H13G13333   5.701  -0.345  10.162 -1.1688  1.5012  1.6579
   9823SM  C14F13334   5.657  -0.130  10.159  0.0168 -0.2563 -0.1662
   9823SM  H14F13335   5.582  -0.105  10.081  0.3642 -0.8652 -0.7096
   9823SM  H14G13336   5.725  -0.047  10.186  1.8788 -1.7482 -0.0179
   9823SM  C15F13337   5.573  -0.161  10.287 -0.3293 -0.3425  0.5200
   9823SM  H15F13338   5.497  -0.233  10.247 -1.0658  1.5174 -1.6857
   9823SM  H15G13339   5.517  -0.077  10.333  1.8323  0.9241  0.9774
   9823SM  C16F13340   5.658  -0.215  10.401 -0.2910  0.0575  0.2409
   9823SM  H16F13341   5.705  -0.312  10.373 -0.6016 -0.1263  0.3494
   9823SM  H16G13342   5.590  -0.235  10.487 -1.4117  0.9201 -0.4181
   9823SM  C17F13343   5.758  -0.110  10.442 -0.3256 -0.0599  0.5884
   9823SM  H17F13344   5.726  -0.007  10.412  0.5218  0.0494  0.0091
   9823SM  H17G13345   5.855  -0.127  10.390 -0.0599 -1.4596  1.5072
   9823SM  C18F13346   5.785  -0.100  10.591 -0.0483  0.5646 -0.0954
   9823SM  H18F13347   5.831  -0.194  10.630  0.2480  0.4369 -0.7440
   9823SM  H18G13348   5.699  -0.074  10.656 -0.2794  0.6430 -0.4307
   9823SM  C19F13349   5.886   0.002  10.634  1.7140  0.3300  0.0257
   9823SM  H19F13350   5.850   0.106  10.615  3.2260  0.4422 -2.6572
   9823SM  H19G13351   5.974  -0.002  10.567  1.2397 -0.5096 -0.5657
   9823SM  C20F13352   5.948  -0.012  10.778 -0.6608  0.3000 -0.2156
   9823SM  H20F13353   5.971  -0.120  10.787 -2.3343 -0.1635 -1.0547
   9823SM  H20G13354   5.867   0.025  10.845 -2.0762 -2.8363 -0.0094
   9823SM  C21F13355   6.070   0.079  10.807  0.3564  0.6819  0.7515
   9823SM  H21F13356   6.155   0.047  10.743  0.6749  2.7793  0.0470
   9823SM  H21G13357   6.101   0.061  10.912 -2.5623  1.3780  1.8210
   9823SM  C22F13358   6.047   0.236  10.798 -0.5855 -0.0372  0.0652
   9823SM  H22F13359   5.985   0.260  10.709  0.0992 -2.8662 -1.3275
   9823SM  H22G13360   6.144   0.289  10.789 -0.8989  0.8046  1.3880
   9823SM  C23F13361   5.997   0.289  10.929  0.4644 -0.3365 -0.3650
   9823SM  H23F13362   6.078   0.285  11.006  0.1088 -0.5438  0.0040
   9823SM  H23G13363   5.913   0.227  10.967  1.4202 -0.7419  1.1823
   9823SM  H23H13364   5.967   0.393  10.907  0.7772 -0.2891 -0.5633
   9923SM     N13365   0.548   0.292   8.715 -0.6297 -0.7926 -1.1320
   9923SM   C1513366   0.406   0.264   8.694  0.3470 -1.3595 -0.3487
   9923SM  H15A13367   0.372   0.166   8.726 -1.9724  0.1848  2.4684
   9923SM  H15B13368   0.388   0.274   8.588 -0.0799  1.5701 -0.0776
   9923SM  H15C13369   0.343   0.344   8.729  1.7892  0.4755 -1.7550
   9923SM   C1413370   0.625   0.166   8.701 -0.4891  0.2242 -0.5770
   9923SM  H14A13371   0.572   0.085   8.751  2.3953 -1.3527  0.1687
   9923SM  H14B13372   0.726   0.173   8.739 -1.2031 -0.5700  1.6891
   9923SM  H14C13373   0.638   0.149   8.596 -2.0856  1.2309 -0.9732
   9923SM   C1313374   0.606   0.387   8.620 -0.2274 -0.6352  0.5471
   9923SM  H13A13375   0.584   0.358   8.518 -0.5502 -0.2116  0.4947
   9923SM  H13B13376   0.714   0.390   8.624  0.1853  0.9362 -4.5669
   9923SM  H13C13377   0.556   0.482   8.632 -0.7474 -1.0003  1.2789
   9923SM   C1213378   0.565   0.345   8.858  0.6074  0.1539  0.7914
   9923SM  H12A13379   0.540   0.271   8.932 -0.3327 -1.1686 -0.7602
   9923SM  H12B13380   0.496   0.426   8.876  0.8320  1.2369 -2.4851
   9923SM   C1113381   0.699   0.396   8.909  0.7023  0.9167  0.2504
   9923SM  H11A13382   0.782   0.324   8.889  0.7368  0.6642  1.2232
   9923SM  H11B13383   0.696   0.409   9.019 -2.0415 -0.7378  0.4701
   9923SM     P13384   0.686   0.658   8.884  0.6394 -0.3050  0.2741
   9923SM   O1313385   0.811   0.733   8.912  0.1963  0.6806  0.2999
   9923SM   O1413386   0.594   0.711   8.781  0.1031  0.2327 -0.2095
   9923SM   O1113387   0.601   0.634   9.020  0.4334  0.5964 -0.6212
   9923SM   O1213388   0.733   0.516   8.849 -0.6318  0.4171 -0.2636
   9923SM   C1S13389   0.588   0.756   9.101 -0.1360  0.4161 -0.8737
   9923SM   H1S13390   0.521   0.834   9.059  1.1405  4.0917  3.0775
   9923SM   H1T13391   0.684   0.812   9.109  0.9460 -1.2107 -1.9525
   9923SM    NF13392   0.454   0.839   9.287  0.0949 -0.0557  0.8841
   9923SM   HNF13393   0.492   0.906   9.349  0.4322 -1.0377  1.7776
   9923SM   C2S13394   0.543   0.735   9.245 -0.0768 -0.1933  0.4981
   9923SM   H2S13395   0.488   0.638   9.247 -0.5603 -0.0054  4.5322
   9923SM   C3S13396   0.674   0.708   9.325 -0.5614 -0.6010  0.8612
   9923SM   H3S13397   0.721   0.809   9.324 -0.1625 -0.7698 -1.1482
   9923SM    O313398   0.784   0.634   9.265 -0.2896  0.0653 -0.1944
   9923SM   HO313399   0.753   0.609   9.177 -0.0356  1.3596 -0.6808
   9923SM   C4S13400   0.648   0.675   9.473  0.0062  0.6711 -0.3165
   9923SM   H4S13401   0.610   0.574   9.494  1.3678  0.0963 -0.5181
   9923SM   C5S13402   0.661   0.758   9.577  0.8481  0.2159 -0.1340
   9923SM   H5S13403   0.675   0.867   9.568 -0.8892  0.7367  2.4717
   9923SM   C6S13404   0.626   0.730   9.721  0.2049  0.1477  0.9206
   9923SM   H6S13405   0.561   0.641   9.738 -0.5264  0.5322  0.2007
   9923SM   H6T13406   0.571   0.812   9.772 -2.7601 -1.1186  0.0206
   9923SM   C7S13407   0.756   0.702   9.803 -0.0407  0.3734 -0.1033
   9923SM   H7S13408   0.806   0.801   9.806  1.1739 -0.2091 -0.5642
   9923SM   H7T13409   0.825   0.634   9.749 -1.1657  0.1601 -1.3319
   9923SM   C8S13410   0.743   0.644   9.947 -0.1297  0.7762  0.5519
   9923SM   H8S13411   0.843   0.627   9.994 -0.6554  0.0588  1.4386
   9923SM   H8T13412   0.687   0.549   9.940 -0.5657  1.0113  0.8493
   9923SM   C9S13413   0.645   0.715  10.044  0.1073 -0.3936 -0.2138
   9923SM   H9S13414   0.554   0.732   9.983 -0.5064 -2.1489  0.1562
   9923SM   H9T13415   0.683   0.813  10.080 -2.9374  1.3298 -1.4058
   9923SM  C10S13416   0.610   0.634  10.170  0.4897  0.0993 -0.1235
   9923SM  H10S13417   0.573   0.533  10.141 -1.5917  0.1228  2.1324
   9923SM  H10T13418   0.523   0.681  10.220  0.1043 -0.6054 -0.1189
   9923SM  C11S13419   0.714   0.624  10.283  0.8753 -0.0350 -0.1947
   9923SM  H11S13420   0.751   0.728  10.296  0.2586  0.2781 -0.9196
   9923SM  H11T13421   0.795   0.566  10.234  0.1065 -1.1506 -0.1701
   9923SM  C12S13422   0.675   0.554  10.416 -0.4066  0.5541  0.5606
   9923SM  H12S13423   0.767   0.532  10.473  1.2995  1.2762 -1.7546
   9923SM  H12T13424   0.626   0.456  10.398 -0.2847  0.6665 -0.4619
   9923SM  C13S13425   0.588   0.651  10.498 -0.3979  0.2221 -0.7000
   9923SM  H13S13426   0.503   0.695  10.441 -0.1873  1.7831  0.1320
   9923SM  H13T13427   0.650   0.737  10.534 -0.0800 -0.6580  0.9422
   9923SM  C14S13428   0.536   0.582  10.628  0.0467  0.1869  0.6707
   9923SM  H14S13429   0.620   0.558  10.697  0.8671  1.1372  0.0225
   9923SM  H14T13430   0.493   0.487  10.589  1.5256  0.9922 -3.4790
   9923SM  C15S13431   0.435   0.669  10.691  0.2464 -0.1176 -0.2580
   9923SM  H15S13432   0.358   0.702  10.618  1.9643 -0.9254 -2.5412
   9923SM  H15T13433   0.465   0.766  10.737 -0.1064  0.8055 -1.8846
   9923SM  C16S13434   0.350   0.592  10.801  0.1745  0.2205  0.4773
   9923SM  H16S13435   0.308   0.501  10.753 -0.8642  0.6261  0.5991
   9923SM  H16T13436   0.271   0.664  10.833 -0.0460 -0.1932  0.8735
   9923SM  C17S13437   0.437   0.567  10.920 -0.4120  0.4046 -0.1685
   9923SM  H17S13438   0.485   0.658  10.962  1.0164 -0.8198  0.9680
   9923SM  H17T13439   0.515   0.498  10.884 -0.1039  1.0283 -0.7175
   9923SM  C18S13440   0.382   0.503  11.041  0.0585  0.3556 -0.4446
   9923SM  H18S13441   0.452   0.497  11.127 -0.0047 -0.2497 -0.4321
   9923SM  H18T13442   0.340   0.403  11.016 -0.2331  0.2501  0.4244
   9923SM  H18U13443   0.286   0.549  11.071  0.2357 -0.1003  0.8741
   9923SM   C1F13444   0.328   0.854   9.239 -0.5884  0.2346 -0.4055
   9923SM    OF13445   0.287   0.780   9.147 -0.2414  0.3866 -0.0593
   9923SM   C2F13446   0.247   0.962   9.306 -0.1337  0.1232  0.1329
   9923SM   H2F13447   0.177   1.010   9.234  0.5777  0.3424 -0.4188
   9923SM   H2G13448   0.316   1.037   9.350  1.3089 -0.9160 -0.2712
   9923SM   C3F13449   0.161   0.898   9.423  0.5931 -0.2773  0.1715
   9923SM   H3F13450   0.090   0.825   9.379  2.4955 -1.9914 -0.2266
   9923SM   H3G13451   0.099   0.981   9.462 -1.7842 -0.8672 -2.1221
   9923SM   C4F13452   0.247   0.842   9.535  0.2444  0.1781  0.2029
   9923SM   H4F13453   0.338   0.906   9.535  0.3251  0.1011  1.7625
   9923SM   H4G13454   0.280   0.741   9.501  0.5766  0.4857 -0.4045
   9923SM   C5F13455   0.172   0.842   9.667 -0.2403  0.1609  0.4655
   9923SM   H5F13456   0.095   0.762   9.662 -0.3855  0.3664 -0.8148
   9923SM   H5G13457   0.134   0.944   9.690  3.2874  1.8607 -0.5072
   9923SM   C6F13458   0.261   0.804   9.784 -0.3898  0.2323  0.6280
   9923SM   H6F13459   0.342   0.878   9.802  0.1148 -0.6757  2.3551
   9923SM   H6G13460   0.298   0.705   9.750 -1.1376  0.4169 -0.8091
   9923SM   C7F13461   0.178   0.797   9.911  0.0003 -0.5252  0.3796
   9923SM   H7F13462   0.119   0.703   9.917  0.4453 -0.7654  1.4294
   9923SM   H7G13463   0.119   0.891   9.914 -0.2361 -0.6817  0.6009
   9923SM   C8F13464   0.276   0.779  10.028  0.5807  0.4775  0.1065
   9923SM   H8F13465   0.327   0.873  10.057 -1.7372  1.6731  0.5922
   9923SM   H8G13466   0.353   0.709   9.990 -0.8625  0.2181 -2.6280
   9923SM   C9F13467   0.215   0.717  10.155 -0.5911 -0.1414 -0.0079
   9923SM   H9F13468   0.298   0.703  10.227  0.8536 -0.3544 -1.6439
   9923SM   H9G13469   0.176   0.616  10.131  2.5558 -1.4802  0.0062
   9923SM  C10F13470   0.118   0.814  10.220  0.6757 -0.2857 -0.7980
   9923SM  H10F13471   0.025   0.824  10.161  0.4550 -0.0807 -0.4196
   9923SM  H10G13472   0.162   0.917  10.220  0.3935 -0.1640 -0.4058
   9923SM  C11F13473   0.076   0.767  10.366 -0.8025  0.4789  0.5278
   9923SM  H11F13474   0.176   0.758  10.415 -0.0422  1.1089 -0.8526
   9923SM  H11G13475   0.042   0.661  10.362  2.1476 -0.5692  0.0412
   9923SM  C12F13476  -0.009   0.864  10.456  0.2842 -0.9355 -0.1848
   9923SM  H12F13477  -0.084   0.923  10.400  1.9685  0.4116 -1.1514
   9923SM  H12G13478   0.053   0.945  10.501 -0.6760 -0.5390  0.4542
   9923SM  C13F13479  -0.061   0.794  10.586  0.1324  0.3274 -0.1575
   9923SM  H13F13480  -0.115   0.701  10.556  0.2345  0.4025 -0.5788
   9923SM  H13G13481  -0.128   0.869  10.634  2.4259  1.7654  1.0265
   9923SM  C14F13482   0.043   0.756  10.693 -0.5130 -0.7445 -0.5307
   9923SM  H14F13483   0.113   0.842  10.697 -0.5995 -0.6961  0.0220
   9923SM  H14G13484   0.086   0.661  10.655  0.9038  0.4114 -1.9239
   9923SM  C15F13485  -0.013   0.738  10.838 -0.3308 -0.1182  0.2175
   9923SM  H15F13486   0.061   0.683  10.899 -0.0822 -2.3220 -1.8864
   9923SM  H15G13487  -0.103   0.672  10.845  0.2214 -0.7284  1.9721
   9923SM  C16F13488  -0.053   0.871  10.898  0.0477  0.9829  0.1573
   9923SM  H16F13489  -0.142   0.913  10.848 -0.2522  1.0889  0.7745
   9923SM  H16G13490   0.028   0.945  10.877 -2.1046  3.5741  0.4986
   9923SM  C17F13491  -0.074   0.857  11.042 -0.1994 -0.7335 -1.0489
   9923SM  H17F13492   0.018   0.852  11.103 -1.4984  0.9413  1.1710
   9923SM  H17G13493  -0.128   0.766  11.075 -1.8923  1.1232  1.6563
   9923SM  C18F13494  -0.139   0.985  11.097  0.3125 -0.5229 -0.2257
   9923SM  H18F13495  -0.242   1.007  11.062  0.2579  0.1949  0.3763
   9923SM  H18G13496  -0.077   1.072  11.067 -1.4337  1.2687  1.1420
   9923SM  C19F13497  -0.140   0.980  11.259  0.2765  0.6135 -0.1964
   9923SM  H19F13498  -0.210   1.056  11.301  0.2890  1.4490 -1.6314
   9923SM  H19G13499  -0.038   0.993  11.301  0.2649 -0.4903  0.2040
   9923SM  C20F13500  -0.194   0.837  11.319  0.1962 -0.4801 -0.5559
   9923SM  H20F13501  -0.206   0.845  11.429  1.3773  0.6745 -0.4918
   9923SM  H20G13502  -0.115   0.764  11.291  1.7583  0.9828 -0.1524
   9923SM  C21F13503  -0.336   0.817  11.262 -0.5556  0.2211 -0.4029
   9923SM  H21F13504  -0.337   0.805  11.151 -1.8341 -5.2172 -0.0926
   9923SM  H21G13505  -0.402   0.899  11.296 -1.4011 -0.5882 -0.0320
   9923SM  C22F13506  -0.391   0.683  11.308  0.1837 -0.6073 -0.4685
   9923SM  H22F13507  -0.498   0.697  11.282 -0.1779  0.3347  1.3611
   9923SM  H22G13508  -0.384   0.684  11.419 -0.6719  0.5628 -0.4092
   9923SM  C23F13509  -0.328   0.562  11.237  0.1145 -0.9038  0.3002
   9923SM  H23F13510  -0.368   0.471  11.285  1.3378 -1.7367 -0.2072
   9923SM  H23G13511  -0.218   0.561  11.255  0.0585 -0.6765  0.6672
   9923SM  H23H13512  -0.343   0.580  11.128  1.6039  2.7969  0.5671
  10023SM     N13513   0.276   1.004   8.756 -0.4220  0.3060 -0.3262
  10023SM   C1513514   0.146   1.055   8.808 -0.3989 -0.2771 -0.7021
  10023SM  H15A13515   0.068   0.983   8.786  0.8892 -2.4781  1.3435
  10023SM  H15B13516   0.119   1.143   8.753 -3.5760 -0.1992  0.7064
  10023SM  H15C13517   0.149   1.075   8.915  0.9624 -1.1429 -0.5524
  10023SM   C1413518   0.309   0.886   8.832 -0.0062 -0.6177 -0.4313
  10023SM  H14A13519   0.303   0.905   8.938 -1.4836 -2.2393 -0.1958
  10023SM  H14B13520   0.403   0.843   8.800  0.0455 -2.6536  2.0983
  10023SM  H14C13521   0.228   0.815   8.830 -0.4150 -0.4260  3.0507
  10023SM   C1313522   0.255   0.962   8.614 -0.4082 -0.0303 -0.2106
  10023SM  H13A13523   0.344   0.918   8.572 -1.4158 -1.5972 -0.7905
  10023SM  H13B13524   0.220   1.054   8.568 -2.8205  0.4083  2.2312
  10023SM  H13C13525   0.169   0.896   8.611 -1.1790  0.9326 -0.0546
  10023SM   C1213526   0.389   1.107   8.772  0.5162  0.4351 -0.4806
  10023SM  H12A13527   0.354   1.199   8.729  3.4562  2.7357  1.5943
  10023SM  H12B13528   0.480   1.077   8.721  1.2904  1.1978  0.4041
  10023SM   C1113529   0.424   1.137   8.921 -0.3133 -0.5753 -0.2550
  10023SM  H11A13530   0.466   1.056   8.985  0.7237  0.3849  0.3323
  10023SM  H11B13531   0.328   1.157   8.973  0.0143 -1.8947  0.9013
  10023SM     P13532   0.658   1.236   8.907 -0.0380  0.0096 -0.1959
  10023SM   O1313533   0.680   1.172   8.777  0.1390  0.2311 -0.0048
  10023SM   O1413534   0.732   1.359   8.932 -0.0782 -0.8546 -0.7526
  10023SM   O1113535   0.700   1.133   9.024  0.4310 -0.1713 -0.0788
  10023SM   O1213536   0.505   1.258   8.937  0.4492  0.5316  0.7148
  10023SM   C1S13537   0.655   1.169   9.159 -0.3466  0.1160  0.3378
  10023SM   H1S13538   0.555   1.126   9.182  0.6847 -2.6455 -0.0309
  10023SM   H1T13539   0.647   1.280   9.171  0.5079  0.0516  1.7738
  10023SM    NF13540   0.718   1.203   9.395 -0.3994 -0.4019  1.0282
  10023SM   HNF13541   0.736   1.300   9.407 -0.5467 -0.3677  0.9806
  10023SM   C2S13542   0.765   1.141   9.265 -0.1267  0.4297 -0.6748
  10023SM   H2S13543   0.766   1.031   9.278 -4.1689  0.5079  2.0370
  10023SM   C3S13544   0.909   1.196   9.231  0.1842  0.0445  0.3261
  10023SM   H3S13545   0.892   1.305   9.221 -0.6967 -0.1943 -1.1321
  10023SM    O313546   0.951   1.142   9.108  0.2406 -0.2267  0.3453
  10023SM   HO313547   0.870   1.127   9.057  0.7595  1.1246 -0.9617
  10023SM   C4S13548   1.011   1.155   9.339  0.1603  0.4378  0.2474
  10023SM   H4S13549   1.015   1.045   9.341 -0.7974  0.3177 -1.7393
  10023SM   C5S13550   1.087   1.234   9.407 -0.5715  0.3851 -0.2740
  10023SM   H5S13551   1.074   1.343   9.411  0.9731  0.7605 -3.2777
  10023SM   C6S13552   1.184   1.174   9.510  0.2062  0.7184  0.2817
  10023SM   H6S13553   1.286   1.208   9.482  0.3638 -1.9620 -3.2127
  10023SM   H6T13554   1.206   1.068   9.486  4.9091  1.6482 -0.6300
  10023SM   C7S13555   1.153   1.183   9.659 -0.0000  0.0818 -0.5951
  10023SM   H7S13556   1.166   1.286   9.698 -0.6900 -1.4781  4.6391
  10023SM   H7T13557   1.221   1.116   9.715  0.6289  0.2202 -1.1862
  10023SM   C8S13558   1.010   1.138   9.695  0.1047  0.5885  0.3862
  10023SM   H8S13559   0.974   1.080   9.608  2.3446 -0.6633  0.2326
  10023SM   H8T13560   0.942   1.223   9.715  0.1979  0.7680 -0.0578
  10023SM   C9S13561   1.001   1.044   9.816 -0.0564  0.4160  0.1333
  10023SM   H9S13562   1.063   0.955   9.794  0.1935  0.8440 -0.9151
  10023SM   H9T13563   0.895   1.010   9.807  0.0713  0.5732 -2.5571
  10023SM  C10S13564   1.029   1.104   9.952 -0.4947 -0.2913 -0.2627
  10023SM  H10S13565   0.942   1.170   9.976 -1.0732 -0.5434 -1.5558
  10023SM  H10T13566   1.119   1.169   9.958  0.7695 -1.7256 -2.4730
  10023SM  C11S13567   1.053   1.005  10.063  0.0615  0.6136  0.3657
  10023SM  H11S13568   1.139   0.939  10.039 -0.6842 -0.0497 -0.5498
  10023SM  H11T13569   0.979   0.925  10.082  0.9180 -0.0251  1.0650
  10023SM  C12S13570   1.070   1.074  10.197  0.3306 -0.6722 -0.0185
  10023SM  H12S13571   0.980   1.133  10.223 -1.3463 -3.6005  1.3015
  10023SM  H12T13572   1.157   1.142  10.196 -1.3816  1.6740  1.2760
  10023SM  C13S13573   1.089   0.983  10.324 -0.1509 -0.2554  0.1009
  10023SM  H13S13574   1.113   1.041  10.416 -0.1122  0.6466 -0.4612
  10023SM  H13T13575   1.175   0.915  10.308 -0.5622 -0.5724 -0.8355
  10023SM  C14S13576   0.973   0.890  10.351  0.3613 -0.4723 -0.5067
  10023SM  H14S13577   0.962   0.814  10.272 -1.3043  2.1866 -3.0478
  10023SM  H14T13578   0.878   0.948  10.345  0.9621  1.1167  2.9369
  10023SM  C15S13579   0.972   0.832  10.491  0.1965 -0.2791  0.4280
  10023SM  H15S13580   1.067   0.786  10.526 -0.1974 -0.2595  1.5654
  10023SM  H15T13581   0.904   0.746  10.479 -0.0158 -0.0689  0.1204
  10023SM  C16S13582   0.912   0.933  10.593  0.4162  0.4453 -0.1156
  10023SM  H16S13583   0.808   0.962  10.570  0.0115 -0.9385 -0.1033
  10023SM  H16T13584   0.972   1.027  10.594  2.9471 -1.0792  1.0880
  10023SM  C17S13585   0.919   0.882  10.743 -0.1648 -1.5962 -0.7985
  10023SM  H17S13586   0.870   0.964  10.800  0.1187 -0.4287 -2.1668
  10023SM  H17T13587   1.026   0.888  10.773 -0.8638 -0.1516  1.6519
  10023SM  C18S13588   0.860   0.746  10.772  0.4402  0.8324  0.1619
  10023SM  H18S13589   0.882   0.674  10.690 -0.0165 -2.1904  2.5087
  10023SM  H18T13590   0.749   0.749  10.775  0.2909 -2.1284  2.8886
  10023SM  H18U13591   0.879   0.700  10.871  0.1507 -1.7108 -0.8699
  10023SM   C1F13592   0.613   1.161   9.465  0.2018 -0.3810 -0.2317
  10023SM    OF13593   0.565   1.051   9.449 -0.4020  0.6664 -0.5599
  10023SM   C2F13594   0.551   1.263   9.556  0.9131  0.4414 -0.6936
  10023SM   H2F13595   0.466   1.314   9.506 -0.4904  0.5460  1.6703
  10023SM   H2G13596   0.620   1.335   9.603 -0.5396  0.6133  1.2815
  10023SM   C3F13597   0.514   1.188   9.688 -0.1761 -0.0858  0.0492
  10023SM   H3F13598   0.450   1.099   9.670 -0.0313 -0.0968 -0.4499
  10023SM   H3G13599   0.446   1.263   9.734 -0.9874  1.1519 -2.9306
  10023SM   C4F13600   0.641   1.136   9.767  0.4009 -0.4735  0.3787
  10023SM   H4F13601   0.701   1.228   9.782 -1.3443  1.0696 -1.4762
  10023SM   H4G13602   0.697   1.069   9.698  0.6691  0.9553 -0.8282
  10023SM   C5F13603   0.599   1.074   9.900  0.1063 -0.1353  0.9739
  10023SM   H5F13604   0.687   1.021   9.941  0.1904 -0.1363  0.7969
  10023SM   H5G13605   0.525   1.000   9.863  1.2349  0.3751 -2.7552
  10023SM   C6F13606   0.533   1.184   9.986 -0.7988 -0.7328 -0.3483
  10023SM   H6F13607   0.440   1.237   9.956  0.9041  3.0188  0.5009
  10023SM   H6G13608   0.613   1.261   9.992 -1.0544 -0.5929  2.1978
  10023SM   C7F13609   0.492   1.140  10.132  0.1248  0.1896  1.0978
  10023SM   H7F13610   0.421   1.054  10.131  0.1375  0.1822  0.5136
  10023SM   H7G13611   0.441   1.221  10.188 -1.0548  2.1669 -2.5535
  10023SM   C8F13612   0.604   1.089  10.215 -0.3160  0.0768  0.4724
  10023SM   H8F13613   0.686   1.160  10.238  0.2775 -0.6488  0.6446
  10023SM   H8G13614   0.647   1.010  10.149 -2.7283  0.3234 -1.5643
  10023SM   C9F13615   0.554   1.012  10.338  0.4069 -0.3181 -0.2316
  10023SM   H9F13616   0.636   0.947  10.376  2.4701  1.3991 -1.4985
  10023SM   H9G13617   0.470   0.942  10.318  1.6231 -2.4086  1.5482
  10023SM  C10F13618   0.505   1.100  10.450 -0.1635 -0.3418 -0.2317
  10023SM  H10F13619   0.430   1.171  10.411 -0.3470  2.1104  4.0129
  10023SM  H10G13620   0.586   1.160  10.496  0.7133 -1.7156  0.0728
  10023SM  C11F13621   0.438   1.029  10.570 -0.4007  0.3689 -0.3307
  10023SM  H11F13622   0.500   0.954  10.623 -2.9471 -0.6988  1.3727
  10023SM  H11G13623   0.347   0.980  10.528  0.6456 -0.3654 -1.8062
  10023SM  C12F13624   0.404   1.138  10.681  0.4270 -0.2091 -0.4013
  10023SM  H12F13625   0.310   1.177  10.638  0.6827  0.3387 -0.4692
  10023SM  H12G13626   0.481   1.219  10.684  0.9719 -0.7318  0.0382
  10023SM  C13F13627   0.378   1.080  10.825 -0.1228 -0.1768 -0.2412
  10023SM  H13F13628   0.320   0.986  10.814  1.3735 -1.2359  0.4739
  10023SM  H13G13629   0.326   1.160  10.881 -0.6478 -0.3568 -0.4729
  10023SM  C14F13630   0.510   1.054  10.900  0.5575  0.0359  0.0866
  10023SM  H14F13631   0.553   1.154  10.925  4.6634 -1.0921 -1.7300
  10023SM  H14G13632   0.570   0.988  10.835 -1.2371  0.0575 -1.6830
  10023SM  C15F13633   0.472   0.978  11.019 -0.3668  0.5596 -1.0545
  10023SM  H15F13634   0.418   0.889  10.983  0.2292  0.7910 -2.6193
  10023SM  H15G13635   0.401   1.040  11.078 -2.2739  0.1564 -2.8213
  10023SM  C16F13636   0.590   0.923  11.102 -0.1552 -0.3879  0.5564
  10023SM  H16F13637   0.657   1.010  11.122 -0.3480 -0.1406  0.1444
  10023SM  H16G13638   0.646   0.847  11.043  0.2796 -0.6073  1.2395
  10023SM  C17F13639   0.537   0.846  11.226  0.4851  0.0234 -0.0041
  10023SM  H17F13640   0.474   0.758  11.198 -1.1180  0.7635  1.1241
  10023SM  H17G13641   0.469   0.911  11.285  0.5922 -0.0553  0.2084
  10023SM  C18F13642   0.643   0.794  11.325 -0.0138 -0.1166 -0.0903
  10023SM  H18F13643   0.607   0.791  11.430  0.6115 -2.7633  0.1348
  10023SM  H18G13644   0.720   0.872  11.310 -0.9389  1.0089  0.8589
  10023SM  C19F13645   0.689   0.643  11.306 -0.0436 -0.2138  0.2160
  10023SM  H19F13646   0.606   0.577  11.338 -1.1909  0.8102 -0.5483
  10023SM  H19G13647   0.766   0.621  11.383  1.5279 -2.2904 -1.8335
  10023SM  C20F13648   0.760   0.600  11.173 -0.2054  0.0904 -0.2788
  10023SM  H20F13649   0.856   0.656  11.172  0.9828 -1.6482  2.5804
  10023SM  H20G13650   0.697   0.628  11.087 -0.4490 -0.6280 -0.3413
  10023SM  C21F13651   0.795   0.453  11.167 -0.2599 -0.5043  0.1657
  10023SM  H21F13652   0.701   0.400  11.194 -2.8598  1.8010 -3.4435
  10023SM  H21G13653   0.870   0.435  11.247 -0.2667  1.9807  0.8272
  10023SM  C22F13654   0.847   0.403  11.038  0.2854  0.2032 -0.4042
  10023SM  H22F13655   0.786   0.445  10.955  0.6624 -0.9701 -1.3064
  10023SM  H22G13656   0.826   0.295  11.045  2.9878 -0.3878 -0.1575
  10023SM  C23F13657   0.998   0.423  10.997  0.4181 -0.3271 -0.0757
  10023SM  H23F13658   1.026   0.528  11.017  0.1768  0.6851 -4.2279
  10023SM  H23G13659   1.014   0.421  10.887 -0.0445  1.3490 -0.1952
  10023SM  H23H13660   1.068   0.355  11.051  0.7318 -0.2124 -0.3361
  101CHL1    C313661   3.613   4.968  12.937 -0.0007 -0.0721  0.1216
  101CHL1    H313662   3.558   5.062  12.917 -1.6046 -0.4153  2.4399
  101CHL1    O313663   3.639   4.946  13.074 -0.1203  0.4307  0.0104
  101CHL1   H3'13664   3.675   4.857  13.071 -1.1182  0.0283 -2.6809
  101CHL1    C413665   3.530   4.851  12.886 -0.3839 -0.3575 -0.3313
  101CHL1   H4A13666   3.580   4.757  12.918 -0.9566 -0.4815  0.2208
  101CHL1   H4B13667   3.429   4.867  12.930  0.1011  0.7422  0.4413
  101CHL1    C513668   3.520   4.837  12.734 -0.3388  0.3573  0.6227
  101CHL1    C613669   3.404   4.835  12.673 -0.2239  0.2800  0.1726
  101CHL1    H613670   3.311   4.824  12.731 -0.0803  0.6045  0.4662
  101CHL1    C713671   3.388   4.823  12.522  0.5122 -0.8568  0.0250
  101CHL1   H7A13672   3.307   4.752  12.495  0.0087  0.1731 -1.2927
  101CHL1   H7B13673   3.366   4.925  12.484 -1.7232 -1.4185 -0.3521
  101CHL1    C813674   3.519   4.793  12.443 -0.3804  0.3927  0.7706
  101CHL1    H813675   3.540   4.685  12.453 -0.1897  0.2707 -0.7539
  101CHL1   C1413676   3.505   4.820  12.294 -0.3032 -0.1732 -0.4705
  101CHL1   H1413677   3.477   4.927  12.293 -0.4966 -0.1875  0.8587
  101CHL1   C1513678   3.387   4.760  12.220 -0.1059 -0.2759 -0.2051
  101CHL1  H15A13679   3.366   4.658  12.260  0.4320  0.1399  1.2054
  101CHL1  H15B13680   3.295   4.820  12.232  0.3614  0.9120 -2.1738
  101CHL1   C1613681   3.430   4.755  12.075  0.1206 -0.2714  0.2706
  101CHL1  H16A13682   3.415   4.654  12.033 -0.4803  0.1448 -0.5559
  101CHL1  H16B13683   3.366   4.813  12.005  1.0634 -1.0587 -1.2931
  101CHL1   C1713684   3.576   4.811  12.068  0.2875 -0.6500 -0.3521
  101CHL1   H1713685   3.570   4.921  12.054  0.6628 -0.6087 -0.1911
  101CHL1   C1313686   3.633   4.798  12.209  0.0791 -0.2538 -0.3648
  101CHL1   C1813687   3.675   4.650  12.227 -0.2040 -0.4652 -0.3430
  101CHL1  H18A13688   3.761   4.626  12.161  0.7493  0.0530  0.6718
  101CHL1  H18B13689   3.696   4.624  12.333  0.9384 -0.8352 -0.6455
  101CHL1  H18C13690   3.587   4.586  12.207 -0.6484  0.0979 -0.1922
  101CHL1   C1213691   3.737   4.902  12.263 -0.0385  0.4023 -0.8982
  101CHL1  H12A13692   3.830   4.888  12.204  0.8530  0.3026  0.4602
  101CHL1  H12B13693   3.699   5.006  12.248  2.4698  1.2958 -1.5739
  101CHL1   C1113694   3.771   4.882  12.411 -0.3728 -0.4381 -0.0742
  101CHL1  H11A13695   3.838   4.796  12.433  4.4909  3.5877  2.8962
  101CHL1  H11B13696   3.829   4.969  12.447 -0.5124  0.5513 -2.1201
  101CHL1    C913697   3.633   4.873  12.495 -0.2162 -0.8168 -0.0325
  101CHL1    H913698   3.607   4.981  12.484 -0.4792 -0.9302 -0.5394
  101CHL1   C1013699   3.656   4.852  12.652 -0.3563 -0.3156  0.0150
  101CHL1   C1913700   3.728   4.719  12.663 -0.0144  0.7285 -0.0371
  101CHL1  H19A13701   3.696   4.635  12.598 -0.2814 -0.3149  1.3759
  101CHL1  H19B13702   3.835   4.728  12.637  0.0927  1.0410  0.4928
  101CHL1  H19C13703   3.731   4.686  12.769 -0.8200  1.4895  0.2306
  101CHL1    C113704   3.744   4.965  12.718 -0.1769  0.4329 -0.2129
  101CHL1   H1A13705   3.848   4.950  12.681 -0.9631  1.0919 -2.9092
  101CHL1   H1B13706   3.707   5.062  12.677  0.5014  0.5272 -0.6303
  101CHL1    C213707   3.746   4.955  12.870  0.1108 -0.5366 -0.2712
  101CHL1   H2A13708   3.810   5.035  12.912 -1.1086  0.8352 -0.9305
  101CHL1   H2B13709   3.796   4.860  12.899  2.1124 -0.2791 -2.5485
  101CHL1   C2013710   3.643   4.754  11.942 -0.2663  0.0767 -0.1732
  101CHL1   H2013711   3.646   4.643  11.943  0.0133  0.0716 -0.8728
  101CHL1   C2113712   3.785   4.805  11.944 -0.3062  0.2355  0.1148
  101CHL1  H21A13713   3.802   4.914  11.932  0.5139  0.0881 -0.1547
  101CHL1  H21B13714   3.843   4.751  11.866  0.6930  1.2830  0.1008
  101CHL1  H21C13715   3.836   4.764  12.034  0.2201 -0.0163 -0.2885
  101CHL1   C2213716   3.575   4.789  11.807  0.5089  0.6268 -0.0407
  101CHL1  H22A13717   3.466   4.768  11.804  0.6648 -0.1462 -0.7144
  101CHL1  H22B13718   3.582   4.898  11.787  1.7473  0.8448  1.4763
  101CHL1   C2313719   3.630   4.710  11.692 -0.1256  0.2331  0.0988
  101CHL1  H23A13720   3.739   4.695  11.700 -0.1866  0.0837  0.7165
  101CHL1  H23B13721   3.581   4.610  11.697  0.8428 -0.2475  0.0844
  101CHL1   C2413722   3.588   4.767  11.551  0.2840  0.1141 -0.6912
  101CHL1  H24A13723   3.478   4.779  11.542  0.5305  1.9345 -1.7476
  101CHL1  H24B13724   3.624   4.872  11.549  1.4725 -0.2877 -1.0996
  101CHL1   C2513725   3.634   4.672  11.439  0.4466  0.0702  0.0145
  101CHL1   H2513726   3.740   4.642  11.456  0.4902 -0.7718 -1.5428
  101CHL1   C2613727   3.537   4.555  11.427  0.9350 -0.5726 -0.1439
  101CHL1  H26A13728   3.565   4.478  11.351 -1.7095 -0.8929 -0.8991
  101CHL1  H26B13729   3.547   4.492  11.518  0.9129  0.4438  0.5822
  101CHL1  H26C13730   3.437   4.600  11.411  0.6672 -0.5905  1.3686
  101CHL1   C2713731   3.631   4.732  11.299  0.6846 -0.7164  0.7406
  101CHL1  H27A13732   3.630   4.651  11.223 -0.6393  0.2126 -0.2900
  101CHL1  H27B13733   3.541   4.796  11.283  1.2887 -0.0627 -0.1425
  101CHL1  H27C13734   3.722   4.795  11.284  0.8361 -0.6237  1.9568
  102CHL1    C313735   2.512   5.678  12.959  0.2553 -0.2531 -0.0831
  102CHL1    H313736   2.611   5.650  12.917  0.1200  0.3432 -0.8027
  102CHL1    O313737   2.526   5.666  13.098 -0.2952 -0.0803 -0.3117
  102CHL1   H3'13738   2.541   5.573  13.116  1.2493  0.2916  0.4769
  102CHL1    C413739   2.474   5.822  12.932  0.3465  0.3868 -0.2502
  102CHL1   H4A13740   2.380   5.842  12.987  1.4802  2.7293  0.9995
  102CHL1   H4B13741   2.552   5.887  12.978  0.3385 -2.3065  4.0586
  102CHL1    C513742   2.462   5.848  12.785  0.4269  0.3425 -0.1060
  102CHL1    C613743   2.534   5.945  12.729 -0.0889 -0.2430 -0.4396
  102CHL1    H613744   2.594   6.017  12.786 -2.1541  3.1221 -2.2170
  102CHL1    C713745   2.538   5.970  12.580  1.0047  0.3502 -0.3466
  102CHL1   H7A13746   2.530   6.080  12.565  3.8940  0.2681 -3.6249
  102CHL1   H7B13747   2.631   5.931  12.534  0.7962 -1.0935  0.4071
  102CHL1    C813748   2.410   5.904  12.508 -0.3062 -0.0267  0.2665
  102CHL1    H813749   2.323   5.967  12.538  0.8744  0.8656  1.9958
  102CHL1   C1413750   2.434   5.909  12.356 -0.3707  0.3364  0.0896
  102CHL1   H1413751   2.529   5.856  12.336 -0.4358  0.6061 -1.0148
  102CHL1   C1513752   2.456   6.043  12.273  0.2947  0.5160 -1.1119
  102CHL1  H15A13753   2.406   6.137  12.304  0.6534  1.0053 -1.9865
  102CHL1  H15B13754   2.563   6.072  12.273  0.0978  1.2535 -1.3101
  102CHL1   C1613755   2.434   6.013  12.131 -0.3067 -0.1667  0.2297
  102CHL1  H16A13756   2.350   6.069  12.084 -1.4295 -1.7756  0.2548
  102CHL1  H16B13757   2.527   6.024  12.072 -0.5980  1.0976 -0.0209
  102CHL1   C1713758   2.390   5.862  12.122 -0.1194  0.4674  0.0627
  102CHL1   H1713759   2.486   5.807  12.118  0.5278  1.6647 -1.5384
  102CHL1   C1313760   2.331   5.836  12.271 -0.5380 -0.2243 -0.2246
  102CHL1   C1813761   2.183   5.896  12.290 -0.1404  0.0581 -0.0281
  102CHL1  H18A13762   2.159   5.887  12.398 -1.2298  2.4056 -0.0159
  102CHL1  H18B13763   2.177   6.004  12.266 -2.2933 -0.7329 -3.7996
  102CHL1  H18C13764   2.105   5.850  12.226  0.3645  0.0781 -0.6585
  102CHL1   C1213765   2.337   5.685  12.313  0.0692 -0.4374 -0.4299
  102CHL1  H12A13766   2.264   5.609  12.277 -0.4742 -0.8209  1.3378
  102CHL1  H12B13767   2.440   5.653  12.288  1.0682  1.7320  0.5950
  102CHL1   C1113768   2.309   5.666  12.464  0.6561  0.3622 -0.7540
  102CHL1  H11A13769   2.204   5.679  12.497  0.4237  0.8474 -1.6390
  102CHL1  H11B13770   2.344   5.565  12.491 -3.4200 -0.4368  2.4919
  102CHL1    C913771   2.401   5.758  12.555  0.1064 -0.1575 -0.5089
  102CHL1    H913772   2.504   5.717  12.546  0.6648  1.2030 -0.6398
  102CHL1   C1013773   2.367   5.753  12.707 -0.3328  0.8394 -0.2649
  102CHL1   C1913774   2.226   5.794  12.740 -0.0762 -0.6565 -0.2817
  102CHL1  H19A13775   2.207   5.761  12.845  1.0936  3.5803  1.4663
  102CHL1  H19B13776   2.214   5.904  12.732  2.5324 -0.0966  1.9077
  102CHL1  H19C13777   2.152   5.741  12.677  0.0860  0.1654 -1.1846
  102CHL1    C113778   2.397   5.594  12.754 -0.0996  0.0314 -0.0595
  102CHL1   H1A13779   2.327   5.522  12.705  0.2478 -0.1188 -0.3416
  102CHL1   H1B13780   2.488   5.560  12.700 -0.4059  0.8525 -1.1380
  102CHL1    C213781   2.408   5.576  12.899 -0.1026  0.3568  0.2462
  102CHL1   H2A13782   2.430   5.472  12.931 -0.2531 -0.0820 -1.0438
  102CHL1   H2B13783   2.307   5.587  12.945  0.1709 -3.1069  2.0169
  102CHL1   C2013784   2.313   5.830  11.998 -0.2313  0.6764 -0.1296
  102CHL1   H2013785   2.215   5.883  11.992 -0.5089  0.1354 -0.6116
  102CHL1   C2113786   2.294   5.679  12.006  0.2569  0.0761  0.3729
  102CHL1  H21A13787   2.388   5.638  12.049  0.7873 -0.1851 -0.9821
  102CHL1  H21B13788   2.285   5.635  11.904  0.0910  0.4024  0.2432
  102CHL1  H21C13789   2.207   5.650  12.068  0.5211  0.5557  0.9770
  102CHL1   C2213790   2.397   5.860  11.868  0.0842 -0.7896 -0.4317
  102CHL1  H22A13791   2.422   5.968  11.873 -1.2144 -0.5037  0.8242
  102CHL1  H22B13792   2.490   5.800  11.857 -0.0104 -1.0944  0.3723
  102CHL1   C2313793   2.308   5.847  11.743  0.3467  0.1511  1.0970
  102CHL1  H23A13794   2.286   5.739  11.725  0.3152  0.0194  1.8931
  102CHL1  H23B13795   2.217   5.906  11.763  0.4792  1.4597 -1.6521
  102CHL1   C2413796   2.372   5.911  11.621  0.4497 -0.4758 -0.1429
  102CHL1  H24A13797   2.393   6.016  11.652  1.1777 -0.2497 -1.3205
  102CHL1  H24B13798   2.470   5.859  11.608  0.4856 -0.5237  0.3050
  102CHL1   C2513799   2.295   5.913  11.491  0.3197  0.5836  1.0509
  102CHL1   H2513800   2.195   5.959  11.505  0.4569  0.5558  2.2310
  102CHL1   C2613801   2.364   5.999  11.386  0.0233 -0.2626 -0.9202
  102CHL1  H26A13802   2.459   5.947  11.362  0.3499  0.2692 -0.8162
  102CHL1  H26B13803   2.306   6.015  11.293  1.3547 -1.3526 -1.9742
  102CHL1  H26C13804   2.387   6.095  11.438 -0.0719  0.4451 -2.1498
  102CHL1   C2713805   2.262   5.770  11.446 -0.4457 -0.7181  0.3036
  102CHL1  H27A13806   2.351   5.703  11.449  0.8467  0.6846 -2.5478
  102CHL1  H27B13807   2.182   5.723  11.507 -1.0804  0.4419  0.3895
  102CHL1  H27C13808   2.219   5.787  11.345 -0.7426 -2.6149  0.0693
  103CHL1    C313809   2.058   3.859  13.506  0.0543  0.0436  0.3565
  103CHL1    H313810   2.038   3.753  13.477  0.4439  0.4899 -1.6796
  103CHL1    O313811   2.052   3.867  13.646  0.1087 -0.4700  0.1866
  103CHL1   H3'13812   1.967   3.834  13.674  0.1201 -0.2819  0.4498
  103CHL1    C413813   2.202   3.892  13.459  0.3435  0.6231 -0.0001
  103CHL1   H4A13814   2.237   3.985  13.509 -1.0483  0.8094  0.6982
  103CHL1   H4B13815   2.270   3.817  13.505  0.4719  0.6876 -0.0870
  103CHL1    C513816   2.216   3.900  13.309 -0.3257  0.7616 -0.0690
  103CHL1    C613817   2.308   3.830  13.239  0.3820  0.6546  0.7931
  103CHL1    H613818   2.382   3.769  13.293 -0.2795 -0.9015  0.0302
  103CHL1    C713819   2.327   3.837  13.086  0.1660 -1.4090 -0.3798
  103CHL1   H7A13820   2.434   3.860  13.073 -0.3059  0.9701 -0.4419
  103CHL1   H7B13821   2.311   3.738  13.037 -0.8112 -1.5036  0.1061
  103CHL1    C813822   2.242   3.951  13.024  0.4996  0.2833  0.2200
  103CHL1    H813823   2.299   4.045  13.038 -2.7495  2.5047 -0.3792
  103CHL1   C1413824   2.227   3.942  12.877  0.2731 -0.2781 -0.5738
  103CHL1   H1413825   2.175   3.847  12.851  2.1650 -1.1767 -1.2774
  103CHL1   C1513826   2.356   3.917  12.803  0.2455 -1.3536  0.0671
  103CHL1  H15A13827   2.426   3.990  12.849 -0.6344 -0.1974 -0.3878
  103CHL1  H15B13828   2.388   3.812  12.816 -0.3274 -1.4400  0.7853
  103CHL1   C1613829   2.338   3.967  12.661 -0.2471 -0.4197  0.1728
  103CHL1  H16A13830   2.404   4.054  12.641 -1.5655  0.4141 -0.7980
  103CHL1  H16B13831   2.357   3.890  12.584  1.7510 -0.5231  0.7170
  103CHL1   C1713832   2.187   4.020  12.667  0.4068  0.3732 -0.4578
  103CHL1   H1713833   2.125   3.931  12.645  1.4275 -0.3582 -0.4579
  103CHL1   C1313834   2.149   4.054  12.810  0.5788 -0.6911 -0.1118
  103CHL1   C1813835   2.208   4.195  12.842  0.2932  0.1307 -0.1267
  103CHL1  H18A13836   2.139   4.271  12.801  0.4543 -0.2868 -1.1995
  103CHL1  H18B13837   2.208   4.211  12.952  1.2600  0.4384 -0.1596
  103CHL1  H18C13838   2.315   4.207  12.812  0.4999  2.1451  1.2086
  103CHL1   C1213839   1.997   4.034  12.852  0.1647 -0.7395 -0.1241
  103CHL1  H12A13840   1.918   4.101  12.812 -1.9386 -0.9704  3.2750
  103CHL1  H12B13841   1.970   3.932  12.814 -2.0312 -0.3842  0.3616
  103CHL1   C1113842   1.994   4.047  13.010 -0.5585 -0.0622  0.6635
  103CHL1  H11A13843   2.010   4.156  13.026 -1.2288 -0.0177  1.0675
  103CHL1  H11B13844   1.895   4.024  13.054 -0.1339 -0.8101  1.2436
  103CHL1    C913845   2.099   3.959  13.082 -0.5251 -0.0259 -0.6736
  103CHL1    H913846   2.060   3.856  13.066  0.4090 -0.5550  0.2866
  103CHL1   C1013847   2.103   3.979  13.236 -0.1526 -0.3113  0.0404
  103CHL1   C1913848   2.116   4.130  13.267 -0.3136 -0.9275 -0.2970
  103CHL1  H19A13849   2.021   4.182  13.244 -0.8854 -0.6453  2.3768
  103CHL1  H19B13850   2.137   4.146  13.375 -1.7321 -3.1152  0.3636
  103CHL1  H19C13851   2.194   4.180  13.205 -1.1629  1.4564  0.4647
  103CHL1    C113852   1.960   3.944  13.295  0.2407  0.5018  0.6608
  103CHL1   H1A13853   1.884   4.014  13.255  1.7453  1.1417 -1.2039
  103CHL1   H1B13854   1.937   3.839  13.266 -1.1286  0.7512  0.8003
  103CHL1    C213855   1.949   3.941  13.450  0.2643  0.1353  0.2733
  103CHL1   H2A13856   1.853   3.898  13.484  0.1319  0.5960  0.4890
  103CHL1   H2B13857   1.952   4.049  13.476  0.4426 -0.1630  1.5408
  103CHL1   C2013858   2.159   4.120  12.555  0.2708 -0.3143 -0.1909
  103CHL1   H2013859   2.228   4.205  12.575 -0.4339  0.5217 -1.2244
  103CHL1   C2113860   2.023   4.190  12.559 -0.3254  0.1660  0.3867
  103CHL1  H21A13861   1.954   4.114  12.516  1.7369 -0.7540 -1.4879
  103CHL1  H21B13862   2.023   4.284  12.499 -3.5759 -0.1748 -0.3520
  103CHL1  H21C13863   2.008   4.223  12.664  2.1230  0.9514  0.5518
  103CHL1   C2213864   2.179   4.063  12.411 -0.4919  0.4713  0.0360
  103CHL1  H22A13865   2.287   4.038  12.412 -0.5679  0.1343  1.1383
  103CHL1  H22B13866   2.125   3.967  12.394  0.0599  0.3431 -1.0902
  103CHL1   C2313867   2.180   4.165  12.291  0.4760  0.1355  0.4181
  103CHL1  H23A13868   2.078   4.206  12.276 -0.2536 -1.3296  1.1768
  103CHL1  H23B13869   2.241   4.249  12.330 -0.1731 -0.8082  3.7281
  103CHL1   C2413870   2.231   4.101  12.160  0.1235  0.2905  0.2459
  103CHL1  H24A13871   2.253   4.183  12.088  2.3064  0.8753  1.5118
  103CHL1  H24B13872   2.324   4.042  12.173 -1.7199 -2.8180  0.2035
  103CHL1   C2513873   2.136   4.007  12.084  0.0706  0.1221  0.3910
  103CHL1   H2513874   2.116   3.916  12.144 -0.7274  1.4714  2.2492
  103CHL1   C2613875   2.000   4.074  12.052 -0.0821  0.2519 -0.2754
  103CHL1  H26A13876   2.008   4.178  12.016  0.3377  0.8772  1.5407
  103CHL1  H26B13877   1.950   4.008  11.977 -0.8716 -0.7910  1.1344
  103CHL1  H26C13878   1.940   4.075  12.145  0.7274  0.1088  0.2584
  103CHL1   C2713879   2.198   3.961  11.958  0.6854  0.1308 -0.4092
  103CHL1  H27A13880   2.219   4.047  11.891 -0.1889  0.0785 -0.7689
  103CHL1  H27B13881   2.293   3.907  11.977  0.1717 -0.9220 -0.7773
  103CHL1  H27C13882   2.120   3.904  11.904  2.0866 -0.5613 -1.7670
  104CHL1    C313883   6.670   0.625  12.810 -0.1574 -1.2503  0.1908
  104CHL1    H313884   6.764   0.580  12.773 -0.5535 -3.1891  1.3702
  104CHL1    O313885   6.683   0.670  12.947 -0.0512 -0.6120  0.7863
  104CHL1   H3'13886   6.722   0.598  12.997  3.6075  0.4001 -0.2863
  104CHL1    C413887   6.638   0.742  12.715  0.6091 -0.2876 -0.2994
  104CHL1   H4A13888   6.547   0.776  12.769 -0.1792 -2.3576 -0.2188
  104CHL1   H4B13889   6.717   0.818  12.726  0.5814 -0.1406 -1.0519
  104CHL1    C513890   6.596   0.695  12.576  0.1051 -0.1717 -0.2542
  104CHL1    C613891   6.661   0.732  12.471  0.2967  1.1069  0.3357
  104CHL1    H613892   6.754   0.790  12.477  0.9944  0.1863 -1.0975
  104CHL1    C713893   6.624   0.706  12.325  0.0564 -0.4130 -0.1998
  104CHL1   H7A13894   6.632   0.793  12.257  0.4479 -0.7053 -0.5267
  104CHL1   H7B13895   6.697   0.629  12.294  2.1743 -0.0784  3.3707
  104CHL1    C813896   6.476   0.661  12.308  0.4672 -0.2677  0.4229
  104CHL1    H813897   6.409   0.745  12.335  0.5282 -0.4259  1.0988
  104CHL1   C1413898   6.445   0.607  12.170  0.3484  0.0333 -0.1051
  104CHL1   H1413899   6.517   0.525  12.149 -0.5353 -1.2685  1.7196
  104CHL1   C1513900   6.475   0.691  12.047  0.0571  0.4180 -0.6412
  104CHL1  H15A13901   6.428   0.791  12.059 -3.9964 -1.4341  0.4363
  104CHL1  H15B13902   6.585   0.708  12.040  0.4740 -0.5776  2.1359
  104CHL1   C1613903   6.398   0.618  11.937 -0.3531 -0.2787 -0.6121
  104CHL1  H16A13904   6.326   0.687  11.888  1.0666  2.6365  1.0569
  104CHL1  H16B13905   6.475   0.585  11.864 -0.2246  1.8209 -1.4969
  104CHL1   C1713906   6.321   0.498  12.003  0.1622 -0.4919 -0.4168
  104CHL1   H1713907   6.392   0.412  12.000 -0.0162 -0.6706  0.4002
  104CHL1   C1313908   6.313   0.545  12.147  0.1608  0.8314  0.3170
  104CHL1   C1813909   6.202   0.649  12.173  0.2773 -0.0712  0.2060
  104CHL1  H18A13910   6.187   0.676  12.280 -0.1387 -0.2838  0.2052
  104CHL1  H18B13911   6.225   0.740  12.114  0.5993 -0.4629 -0.2789
  104CHL1  H18C13912   6.107   0.609  12.130  1.2649 -0.7535 -1.4592
  104CHL1   C1213913   6.305   0.424  12.255 -1.0445 -1.1431  0.3732
  104CHL1  H12A13914   6.212   0.364  12.242 -2.8949  1.6072  0.1569
  104CHL1  H12B13915   6.397   0.367  12.231  0.3450  1.5411 -1.0421
  104CHL1   C1113916   6.319   0.471  12.399 -0.0104 -0.4119  0.1572
  104CHL1  H11A13917   6.237   0.546  12.406  1.6658  1.3393  2.1630
  104CHL1  H11B13918   6.296   0.400  12.481 -2.7971  1.8170  1.5013
  104CHL1    C913919   6.450   0.553  12.423  0.1013 -0.4175 -0.0099
  104CHL1    H913920   6.532   0.480  12.404 -0.7952 -2.5156  3.2978
  104CHL1   C1013921   6.475   0.608  12.569 -0.3734 -0.3866 -0.1543
  104CHL1   C1913922   6.353   0.673  12.618  0.5687 -0.7988 -0.1046
  104CHL1  H19A13923   6.261   0.617  12.590  0.9187 -0.4497 -2.0543
  104CHL1  H19B13924   6.348   0.685  12.728 -0.1903  1.6821 -0.3433
  104CHL1  H19C13925   6.341   0.775  12.575 -0.0882 -0.5904  0.5362
  104CHL1    C113926   6.511   0.485  12.663 -0.1530 -0.3751  0.4188
  104CHL1   H1A13927   6.415   0.429  12.670 -0.2130 -0.5210 -1.1279
  104CHL1   H1B13928   6.594   0.420  12.626 -0.3052 -0.7273  0.6886
  104CHL1    C213929   6.551   0.527  12.810 -0.1242 -0.1644  0.7879
  104CHL1   H2A13930   6.584   0.431  12.855  1.5346  0.7887  1.7127
  104CHL1   H2B13931   6.458   0.568  12.857 -1.7615  0.6352 -2.8146
  104CHL1   C2013932   6.194   0.472  11.921  0.1032  0.4728 -0.4296
  104CHL1   H2013933   6.134   0.565  11.927 -0.3292  0.2892 -1.6856
  104CHL1   C2113934   6.102   0.365  11.983 -0.0478  0.3087  0.1887
  104CHL1  H21A13935   6.152   0.270  12.009 -0.1256 -0.3395 -1.8742
  104CHL1  H21B13936   6.018   0.343  11.914 -0.2004  0.5385  0.2981
  104CHL1  H21C13937   6.052   0.405  12.074  1.2349 -1.8722  1.9549
  104CHL1   C2213938   6.221   0.450  11.763  0.1091 -0.4855  0.3847
  104CHL1  H22A13939   6.126   0.417  11.717  1.0632  0.6511 -2.6236
  104CHL1  H22B13940   6.244   0.550  11.720 -0.7036  0.2437  1.5718
  104CHL1   C2313941   6.338   0.361  11.727  0.3301  0.8123  0.5447
  104CHL1  H23A13942   6.427   0.424  11.750 -0.6075  2.2521  0.4009
  104CHL1  H23B13943   6.341   0.281  11.804 -0.2813  1.6460  1.4601
  104CHL1   C2413944   6.346   0.311  11.582  0.7694 -0.3016 -0.2746
  104CHL1  H24A13945   6.254   0.250  11.575  0.9966 -1.1784  2.8457
  104CHL1  H24B13946   6.331   0.400  11.516 -1.1564 -0.8514 -0.6435
  104CHL1   C2513947   6.471   0.238  11.535 -0.3402 -0.1193  0.4658
  104CHL1   H2513948   6.488   0.154  11.606  0.0188 -0.3291  0.1356
  104CHL1   C2613949   6.450   0.185  11.388 -0.0821  0.2350 -0.5135
  104CHL1  H26A13950   6.350   0.137  11.386 -0.3202  0.7258 -0.5410
  104CHL1  H26B13951   6.460   0.272  11.318  1.2787  0.9448  0.5192
  104CHL1  H26C13952   6.532   0.114  11.363  0.0806 -0.2799  1.3416
  104CHL1   C2713953   6.594   0.333  11.554  0.6375 -0.3308 -0.1071
  104CHL1  H27A13954   6.625   0.325  11.660  2.3555 -0.9526 -0.6136
  104CHL1  H27B13955   6.678   0.282  11.502  0.3923  0.3491 -1.1866
  104CHL1  H27C13956   6.585   0.435  11.511  0.9237 -0.9839 -1.7797
  105CHL1    C313957   5.273   4.463  13.114 -0.5437  0.0988  0.2120
  105CHL1    H313958   5.206   4.544  13.079 -1.9083 -0.6640  0.9997
  105CHL1    O313959   5.254   4.465  13.253  0.2309  0.1201 -0.3289
  105CHL1   H3'13960   5.161   4.448  13.264 -0.3121  0.6895 -3.3170
  105CHL1    C413961   5.233   4.336  13.056 -0.8587  0.0177 -0.0316
  105CHL1   H4A13962   5.290   4.243  13.080 -1.2936 -0.4134 -0.6557
  105CHL1   H4B13963   5.130   4.310  13.088  0.0621 -2.2122  1.4097
  105CHL1    C513964   5.243   4.345  12.906 -0.3679 -0.4504 -1.3712
  105CHL1    C613965   5.142   4.327  12.824 -0.0316 -0.2036 -0.3009
  105CHL1    H613966   5.042   4.313  12.866 -0.0307  2.0815  0.5917
  105CHL1    C713967   5.160   4.322  12.673  0.2201  0.4198  0.0581
  105CHL1   H7A13968   5.107   4.233  12.632 -0.5445  1.5865 -1.6150
  105CHL1   H7B13969   5.112   4.407  12.620  3.0852  2.1473  0.0305
  105CHL1    C813970   5.307   4.320  12.623 -0.4237  0.5483  0.3741
  105CHL1    H813971   5.336   4.213  12.635 -1.7245  0.2844  1.4012
  105CHL1   C1413972   5.322   4.363  12.478 -0.0389  0.0407  1.0117
  105CHL1   H1413973   5.291   4.469  12.467 -0.3333  0.0729  1.9836
  105CHL1   C1513974   5.229   4.280  12.386 -0.0808 -0.5269 -0.2244
  105CHL1  H15A13975   5.256   4.176  12.412  4.6094  0.7018  0.8696
  105CHL1  H15B13976   5.124   4.317  12.388  0.5393  1.4604 -1.3627
  105CHL1   C1613977   5.290   4.315  12.250 -0.3764 -0.8010  0.2680
  105CHL1  H16A13978   5.294   4.224  12.187 -0.2155 -0.4684 -0.2177
  105CHL1  H16B13979   5.227   4.391  12.198 -1.3899 -1.0186  1.1477
  105CHL1   C1713980   5.437   4.368  12.276  0.1447 -0.0170  0.9798
  105CHL1   H1713981   5.437   4.479  12.281 -1.5357  0.0099  1.0462
  105CHL1   C1313982   5.463   4.339  12.428  0.4645  0.2771  0.6301
  105CHL1   C1813983   5.512   4.194  12.448  0.4675  0.0103  0.5175
  105CHL1  H18A13984   5.615   4.185  12.406  0.3366 -2.0403  0.5464
  105CHL1  H18B13985   5.516   4.161  12.554  0.9687 -1.6560  0.0000
  105CHL1  H18C13986   5.449   4.114  12.405  4.7050 -3.6145  0.3662
  105CHL1   C1213987   5.548   4.452  12.501  0.0519 -0.0449  0.1074
  105CHL1  H12A13988   5.654   4.455  12.469  0.2998  2.5039  0.8879
  105CHL1  H12B13989   5.519   4.556  12.475  3.4741  1.1153  0.4205
  105CHL1   C1113990   5.542   4.422  12.658  0.0009 -0.2027  0.4447
  105CHL1  H11A13991   5.605   4.333  12.679 -0.9147 -2.1551 -3.9481
  105CHL1  H11B13992   5.589   4.509  12.707 -0.1757  0.1233  0.0483
  105CHL1    C913993   5.394   4.408  12.709 -0.4663  0.2499 -0.2113
  105CHL1    H913994   5.347   4.508  12.698 -0.2670  0.4159  0.4120
  105CHL1   C1013995   5.389   4.362  12.858  0.3514 -0.7845 -0.3521
  105CHL1   C1913996   5.463   4.233  12.878  0.3999  0.5014 -0.0540
  105CHL1  H19A13997   5.570   4.257  12.859  0.2650  0.2518 -1.1915
  105CHL1  H19B13998   5.465   4.205  12.986 -1.1635 -1.3243 -0.4503
  105CHL1  H19C13999   5.430   4.147  12.816  1.1652  0.5101 -0.4844
  105CHL1    C114000   5.452   4.483  12.937  0.1347 -0.4177  0.0461
  105CHL1   H1A14001   5.560   4.503  12.921  0.7469 -0.3527  3.4545
  105CHL1   H1B14002   5.407   4.573  12.890 -1.4114  0.5561  3.1342
  105CHL1    C214003   5.426   4.487  13.089  0.4801 -0.4992  0.3007
  105CHL1   H2A14004   5.444   4.589  13.129 -1.9625  0.8489 -1.7551
  105CHL1   H2B14005   5.495   4.417  13.140  1.3314 -0.1571 -0.3542
  105CHL1   C2014006   5.538   4.324  12.174 -0.8130  0.5552 -0.1387
  105CHL1   H2014007   5.539   4.213  12.169 -0.5054  0.4456  1.7097
  105CHL1   C2114008   5.682   4.382  12.212  0.2407  0.1658 -0.1749
  105CHL1  H21A14009   5.720   4.335  12.306 -0.8592  0.4393  0.4277
  105CHL1  H21B14010   5.672   4.491  12.229  2.4879  0.4733 -0.5435
  105CHL1  H21C14011   5.756   4.364  12.132 -0.4187 -2.3794 -0.3235
  105CHL1   C2214012   5.492   4.381  12.036 -0.2844 -0.1071 -0.0448
  105CHL1  H22A14013   5.382   4.364  12.033 -0.1245 -1.1235 -0.4586
  105CHL1  H22B14014   5.509   4.491  12.034  1.5481 -0.3428 -2.8908
  105CHL1   C2314015   5.561   4.325  11.910 -0.0978 -0.3649  0.1209
  105CHL1  H23A14016   5.668   4.331  11.939  0.2985 -1.3905 -1.0267
  105CHL1  H23B14017   5.531   4.218  11.906 -2.4807  0.2797 -1.1403
  105CHL1   C2414018   5.543   4.409  11.784 -0.2959 -0.2408 -0.0121
  105CHL1  H24A14019   5.604   4.499  11.805 -0.2959 -0.6607  1.9553
  105CHL1  H24B14020   5.576   4.358  11.690 -0.9732 -5.0309  2.0357
  105CHL1   C2514021   5.398   4.456  11.758  0.3277  0.3565  0.1112
  105CHL1   H2514022   5.372   4.515  11.849  1.0602 -0.0900  0.6219
  105CHL1   C2614023   5.392   4.541  11.637 -0.3994 -0.3485  0.2593
  105CHL1  H26A14024   5.414   4.480  11.546  0.9890  2.7524 -1.6669
  105CHL1  H26B14025   5.290   4.584  11.624 -0.9845 -0.7663  3.0036
  105CHL1  H26C14026   5.466   4.623  11.638 -1.0423  0.2387  1.3693
  105CHL1   C2714027   5.298   4.343  11.735  0.2202 -0.6261  0.2022
  105CHL1  H27A14028   5.260   4.289  11.825 -1.4927  1.1020  0.5918
  105CHL1  H27B14029   5.212   4.381  11.675  0.8738 -0.5510 -0.7211
  105CHL1  H27C14030   5.344   4.271  11.663 -3.4104 -0.9617 -2.0616
  106CHL1    C314031   1.509   4.782  13.344  0.2687  1.4099 -0.1466
  106CHL1    H314032   1.614   4.768  13.311  0.0886  1.2121 -0.6542
  106CHL1    O314033   1.531   4.841  13.466 -0.1955 -0.2015 -0.1052
  106CHL1   H3'14034   1.453   4.893  13.486  0.8079  1.8707 -1.3167
  106CHL1    C414035   1.435   4.871  13.238 -1.2322 -0.4378 -0.4577
  106CHL1   H4A14036   1.336   4.899  13.280 -0.1813 -0.7593  2.5083
  106CHL1   H4B14037   1.500   4.961  13.229 -0.6528 -0.8173 -0.2194
  106CHL1    C514038   1.423   4.800  13.107 -0.5123  0.6085  0.2865
  106CHL1    C614039   1.482   4.855  12.994  0.1503  0.0188 -0.1598
  106CHL1    H614040   1.535   4.951  12.999  3.1957 -1.5741  0.6558
  106CHL1    C714041   1.471   4.796  12.856 -0.0166  0.3584  0.0299
  106CHL1   H7A14042   1.449   4.879  12.785 -0.3223  1.4705  1.3590
  106CHL1   H7B14043   1.568   4.756  12.820 -0.0141  0.6270 -0.2676
  106CHL1    C814044   1.364   4.679  12.851 -0.0088  0.0079 -0.2129
  106CHL1    H814045   1.269   4.736  12.848  0.2051  0.4470  0.9700
  106CHL1   C1414046   1.388   4.595  12.725  0.1438  0.2542  0.5898
  106CHL1   H1414047   1.488   4.546  12.735 -0.6913 -1.9760 -1.0999
  106CHL1   C1514048   1.398   4.678  12.593  0.1998  0.3079  0.3941
  106CHL1  H15A14049   1.342   4.773  12.606 -0.5134 -0.1831  0.9332
  106CHL1  H15B14050   1.506   4.706  12.586  0.4694 -0.7167  0.3607
  106CHL1   C1614051   1.347   4.585  12.480  0.3851 -0.2378  0.9774
  106CHL1  H16A14052   1.253   4.629  12.439  0.6204  1.3002  2.0151
  106CHL1  H16B14053   1.430   4.581  12.407 -0.3961  1.8379 -0.1042
  106CHL1   C1714054   1.321   4.450  12.556  0.0174 -0.5064 -0.6270
  106CHL1   H1714055   1.419   4.398  12.561  0.6356  0.7055  0.4685
  106CHL1   C1314056   1.278   4.494  12.702  0.2052  0.1167  0.1215
  106CHL1   C1814057   1.135   4.554  12.700  0.0066  0.5315  0.0466
  106CHL1  H18A14058   1.059   4.474  12.704  1.6691 -1.0809  0.4589
  106CHL1  H18B14059   1.118   4.614  12.793  0.2226  1.4338 -0.4801
  106CHL1  H18C14060   1.103   4.601  12.605 -1.9945 -2.8639 -1.1211
  106CHL1   C1214061   1.304   4.389  12.817 -0.0688 -0.9262 -0.7199
  106CHL1  H12A14062   1.226   4.312  12.807 -0.4912 -0.9364  1.8480
  106CHL1  H12B14063   1.410   4.355  12.811  0.3641  0.4686 -1.4381
  106CHL1   C1114064   1.276   4.460  12.952 -0.7138  0.9183 -0.8268
  106CHL1  H11A14065   1.170   4.493  12.952 -0.1687  2.7898 -0.9451
  106CHL1  H11B14066   1.289   4.387  13.035  1.5093  1.6361 -0.4621
  106CHL1    C914067   1.369   4.589  12.974 -0.0503  1.5189 -0.3817
  106CHL1    H914068   1.472   4.547  12.971 -1.1609 -1.4282 -1.2555
  106CHL1   C1014069   1.350   4.665  13.104 -0.5852  0.0244  0.1434
  106CHL1   C1914070   1.205   4.705  13.126 -0.5382 -0.8887 -0.7214
  106CHL1  H19A14071   1.177   4.745  13.026  3.4653  0.2569 -1.5783
  106CHL1  H19B14072   1.140   4.620  13.157 -0.0428 -0.6945  0.9216
  106CHL1  H19C14073   1.184   4.772  13.212 -1.4798 -1.3457 -0.5754
  106CHL1    C114074   1.403   4.588  13.231 -0.0359 -0.3085  0.0342
  106CHL1   H1A14075   1.352   4.492  13.256  0.3367 -0.6566 -0.5360
  106CHL1   H1B14076   1.506   4.559  13.201 -0.2913  0.3533 -1.5669
  106CHL1    C214077   1.428   4.654  13.368  0.6628 -0.2466  0.8276
  106CHL1   H2A14078   1.486   4.596  13.442 -1.7382 -1.9232  1.5262
  106CHL1   H2B14079   1.331   4.691  13.407  1.9057  0.7770  3.1309
  106CHL1   C2014080   1.220   4.361  12.479 -0.0347 -0.1955 -0.2361
  106CHL1   H2014081   1.126   4.419  12.465 -0.6980 -1.3602 -0.8118
  106CHL1   C2114082   1.205   4.228  12.547 -0.2364  0.0946  0.8656
  106CHL1  H21A14083   1.309   4.196  12.569  0.6784 -0.1594 -3.0756
  106CHL1  H21B14084   1.158   4.145  12.491 -0.3619  0.5570  0.2769
  106CHL1  H21C14085   1.142   4.231  12.638 -4.0143  0.1017 -1.5130
  106CHL1   C2214086   1.280   4.336  12.335  0.0432 -0.4013 -0.1842
  106CHL1  H22A14087   1.307   4.436  12.295 -0.3627 -0.6558 -1.1026
  106CHL1  H22B14088   1.380   4.288  12.336  0.0035 -0.4840  0.0267
  106CHL1   C2314089   1.172   4.281  12.247  1.0203  0.5092  0.6191
  106CHL1  H23A14090   1.109   4.206  12.299 -0.4371  1.5157  0.3395
  106CHL1  H23B14091   1.106   4.368  12.227  0.8108  0.5863  1.6079
  106CHL1   C2414092   1.211   4.222  12.111 -0.6110  0.4133  0.3096
  106CHL1  H24A14093   1.288   4.142  12.118 -1.2261 -0.3788 -1.4735
  106CHL1  H24B14094   1.118   4.181  12.069  0.0958  0.4030 -1.3020
  106CHL1   C2514095   1.276   4.319  12.006 -0.3302  0.1464 -0.2597
  106CHL1   H2514096   1.363   4.350  12.068  0.1800 -0.4797 -0.6407
  106CHL1   C2614097   1.307   4.244  11.878  0.3152 -0.6215  0.6844
  106CHL1  H26A14098   1.209   4.224  11.830 -0.0730  1.5677  0.4506
  106CHL1  H26B14099   1.362   4.315  11.814 -0.0715 -1.7493 -0.9519
  106CHL1  H26C14100   1.376   4.157  11.880  2.9124  1.1328 -2.9663
  106CHL1   C2714101   1.186   4.443  11.983 -0.2889 -0.2124  1.0559
  106CHL1  H27A14102   1.168   4.507  12.072  0.2024  2.5454 -0.6840
  106CHL1  H27B14103   1.219   4.515  11.905 -2.8201  1.2698  1.2512
  106CHL1  H27C14104   1.086   4.407  11.951  0.4550 -3.1601  1.7937
  107CHL1    C314105   3.265   0.070  12.732  0.1325  0.3110  0.4425
  107CHL1    H314106   3.162   0.092  12.698  0.6518  1.7723 -0.2736
  107CHL1    O314107   3.274   0.071  12.874  0.8484  0.3035 -0.4331
  107CHL1   H3'14108   3.217  -0.002  12.899  0.8641 -0.8545 -3.3615
  107CHL1    C414109   3.317  -0.067  12.686  0.2238 -0.4280  0.2900
  107CHL1   H4A14110   3.418  -0.089  12.726  0.4576 -0.6581 -0.4067
  107CHL1   H4B14111   3.240  -0.137  12.724  1.7815 -1.9582  0.7967
  107CHL1    C514112   3.330  -0.075  12.530  0.2279  0.4578 -0.2049
  107CHL1    C614113   3.266  -0.172  12.463 -0.7010 -0.5508  0.5688
  107CHL1    H614114   3.213  -0.244  12.528  0.2510 -0.6824  1.2109
  107CHL1    C714115   3.263  -0.190  12.310  0.6798  0.1739  0.0725
  107CHL1   H7A14116   3.264  -0.300  12.294  1.3336  0.1112  0.5108
  107CHL1   H7B14117   3.166  -0.147  12.278  0.2996 -0.1217  0.7993
  107CHL1    C814118   3.377  -0.108  12.245 -0.4785 -0.3244 -0.3658
  107CHL1    H814119   3.472  -0.162  12.264 -0.4055  0.5137  1.8800
  107CHL1   C1414120   3.356  -0.084  12.098 -0.1989  0.1556 -0.8895
  107CHL1   H1414121   3.274  -0.012  12.077  0.5711  1.4595  0.3995
  107CHL1   C1514122   3.322  -0.211  12.026  0.0078 -0.2554 -0.1011
  107CHL1  H15A14123   3.394  -0.288  12.062  0.4276  0.2537  0.1556
  107CHL1  H15B14124   3.218  -0.242  12.049  0.6780 -1.8407  0.9447
  107CHL1   C1614125   3.346  -0.188  11.876  0.0113  0.1675  0.4647
  107CHL1  H16A14126   3.404  -0.268  11.824  0.1465  0.4934  0.1038
  107CHL1  H16B14127   3.256  -0.172  11.812  1.5486 -0.2736 -1.9602
  107CHL1   C1714128   3.418  -0.046  11.883 -0.8485 -0.0369  0.1810
  107CHL1   H1714129   3.340   0.030  11.860 -0.0178  1.2297  1.3810
  107CHL1   C1314130   3.469  -0.023  12.022  0.0681 -0.2694 -0.1951
  107CHL1   C1814131   3.600  -0.114  12.028  0.0732  0.4438  0.1691
  107CHL1  H18A14132   3.584  -0.214  11.983  2.1890  0.5284 -0.8866
  107CHL1  H18B14133   3.687  -0.056  11.991 -0.7487  1.2173 -0.6170
  107CHL1  H18C14134   3.630  -0.125  12.135 -1.2985 -0.5174  0.4858
  107CHL1   C1214135   3.493   0.117  12.081 -0.0082 -0.5778 -0.4725
  107CHL1  H12A14136   3.586   0.158  12.036 -0.1985 -0.4925 -0.7934
  107CHL1  H12B14137   3.408   0.185  12.057  0.1284  0.1091  0.8667
  107CHL1   C1114138   3.504   0.106  12.238 -0.1315 -0.2039  0.4469
  107CHL1  H11A14139   3.606   0.066  12.254  0.0857  0.1182 -0.0930
  107CHL1  H11B14140   3.501   0.214  12.265  0.9900 -0.1313  0.3118
  107CHL1    C914141   3.391   0.031  12.311 -0.4821  0.5570  0.3203
  107CHL1    H914142   3.298   0.085  12.283  0.0979  1.8340  0.7680
  107CHL1   C1014143   3.413   0.033  12.467 -0.1230 -0.6935 -0.1493
  107CHL1   C1914144   3.560   0.008  12.505  0.2040 -0.1101 -0.0774
  107CHL1  H19A14145   3.589  -0.087  12.456  2.3269  0.1833  0.4828
  107CHL1  H19B14146   3.628   0.083  12.460 -0.1519  0.0980 -0.2701
  107CHL1  H19C14147   3.576   0.012  12.615  1.6119  1.0112 -0.2905
  107CHL1    C114148   3.363   0.175  12.516 -0.4046 -0.7130 -0.5845
  107CHL1   H1A14149   3.432   0.253  12.479 -1.0506  0.3634  0.4031
  107CHL1   H1B14150   3.263   0.197  12.475 -0.4756  1.2063  0.5074
  107CHL1    C214151   3.356   0.183  12.669  0.4174  0.3169 -0.3955
  107CHL1   H2A14152   3.342   0.286  12.709  0.5650  0.6695 -1.2408
  107CHL1   H2B14153   3.458   0.169  12.710  0.0426 -0.0338  0.4516
  107CHL1   C2014154   3.514  -0.023  11.762 -0.0142  0.0473  0.3180
  107CHL1   H2014155   3.588  -0.106  11.763  1.2904  1.1571 -0.0831
  107CHL1   C2114156   3.577   0.119  11.760  0.4327 -0.1446  0.0799
  107CHL1  H21A14157   3.503   0.200  11.775  1.1040  0.6936 -0.9546
  107CHL1  H21B14158   3.631   0.146  11.666  0.2883 -1.2169 -0.3198
  107CHL1  H21C14159   3.649   0.138  11.843  1.1832  2.2923 -1.0099
  107CHL1   C2214160   3.436  -0.042  11.629  0.1928  0.1150  0.6214
  107CHL1  H22A14161   3.391  -0.143  11.634 -1.0821  0.6153 -0.0810
  107CHL1  H22B14162   3.350   0.027  11.612  0.2729 -0.0428 -0.4929
  107CHL1   C2314163   3.520  -0.040  11.502 -0.4367 -0.2915  0.6650
  107CHL1  H23A14164   3.580   0.054  11.498  0.2729 -0.7752 -0.6846
  107CHL1  H23B14165   3.584  -0.131  11.501 -0.4541 -0.3185  1.4504
  107CHL1   C2414166   3.434  -0.050  11.381  0.3663  0.4309  0.0880
  107CHL1  H24A14167   3.381  -0.147  11.377 -0.0326  0.6761 -2.2250
  107CHL1  H24B14168   3.361   0.031  11.356  0.5165  0.1726 -1.2890
  107CHL1   C2514169   3.516  -0.055  11.244  0.1023 -0.5602 -0.0833
  107CHL1   H2514170   3.592   0.024  11.261  0.4654 -1.0231  0.4706
  107CHL1   C2614171   3.599  -0.181  11.226  0.0522 -0.3543 -0.5820
  107CHL1  H26A14172   3.655  -0.183  11.130  0.1196  0.8049 -0.5814
  107CHL1  H26B14173   3.675  -0.210  11.302 -0.0585 -1.6666 -0.9359
  107CHL1  H26C14174   3.535  -0.272  11.219  0.1561 -0.4675 -0.1054
  107CHL1   C2714175   3.431  -0.033  11.125  0.2706  0.1073 -0.2718
  107CHL1  H27A14176   3.503  -0.038  11.040 -0.4903  0.2993 -0.9330
  107CHL1  H27B14177   3.352  -0.109  11.110  0.4747 -0.1050 -0.2854
  107CHL1  H27C14178   3.389   0.070  11.126 -0.2457 -0.1004  0.2537
  108CHL1    C314179   5.241   3.349  13.356  0.1763  0.1518 -0.1378
  108CHL1    H314180   5.247   3.244  13.322  0.5568 -0.3949  1.4938
  108CHL1    O314181   5.234   3.356  13.503 -0.0575  0.1940 -0.1855
  108CHL1   H3'14182   5.251   3.265  13.528 -1.6619  0.2928  1.4501
  108CHL1    C414183   5.370   3.426  13.324 -0.2460  0.2265 -0.6250
  108CHL1   H4A14184   5.358   3.531  13.356 -3.0868 -0.2904  0.2947
  108CHL1   H4B14185   5.447   3.374  13.385  0.0465  1.2950 -0.0630
  108CHL1    C514186   5.400   3.432  13.179  0.0277  0.7204 -0.5712
  108CHL1    C614187   5.506   3.371  13.120  0.2674 -0.2664 -0.1500
  108CHL1    H614188   5.567   3.317  13.193  0.2965  0.4643  0.3821
  108CHL1    C714189   5.536   3.364  12.972 -0.0384 -0.4054 -0.4361
  108CHL1   H7A14190   5.635   3.411  12.958 -1.6144  2.9519 -1.4247
  108CHL1   H7B14191   5.536   3.256  12.946 -1.0478 -0.4838 -0.1643
  108CHL1    C814192   5.447   3.460  12.894  0.7265 -0.6333  0.5921
  108CHL1    H814193   5.486   3.564  12.895 -0.7284  0.0032 -1.4309
  108CHL1   C1414194   5.432   3.403  12.746 -0.2015 -0.2360 -0.3426
  108CHL1   H1414195   5.374   3.308  12.754 -0.6996 -0.0658 -1.7116
  108CHL1   C1514196   5.567   3.363  12.673  0.2922  0.0308  0.6981
  108CHL1  H15A14197   5.618   3.461  12.665  2.1578 -0.8642  1.0530
  108CHL1  H15B14198   5.611   3.273  12.721  0.5686  0.2599  0.8739
  108CHL1   C1614199   5.513   3.345  12.530 -0.6543 -0.3806  0.5841
  108CHL1  H16A14200   5.581   3.408  12.468 -0.0291 -3.8932 -2.6991
  108CHL1  H16B14201   5.518   3.238  12.500 -0.7765 -0.8496  2.1755
  108CHL1   C1714202   5.372   3.398  12.525  0.5187 -0.0325  0.5889
  108CHL1   H1714203   5.315   3.305  12.546  0.9438 -0.2068  1.0095
  108CHL1   C1314204   5.351   3.489  12.646  0.2759  0.1650 -0.0733
  108CHL1   C1814205   5.410   3.631  12.620  0.4712 -0.1385  0.2966
  108CHL1  H18A14206   5.512   3.640  12.577  0.5885  0.7821  0.7520
  108CHL1  H18B14207   5.339   3.692  12.561 -1.0814 -0.4687  1.7557
  108CHL1  H18C14208   5.418   3.698  12.707 -1.5635  1.5383 -0.7155
  108CHL1   C1214209   5.209   3.508  12.701 -0.2728 -0.0419 -0.4870
  108CHL1  H12A14210   5.151   3.586  12.647  0.6717  1.2244  0.2536
  108CHL1  H12B14211   5.160   3.409  12.690  0.6094 -0.2469 -3.2864
  108CHL1   C1114212   5.222   3.555  12.850  0.1565  0.1886 -0.5464
  108CHL1  H11A14213   5.273   3.654  12.845 -0.6061  0.5912 -0.4829
  108CHL1  H11B14214   5.120   3.580  12.885  0.0998 -2.5879  1.6041
  108CHL1    C914215   5.303   3.466  12.949 -0.4491 -0.4306 -0.1215
  108CHL1    H914216   5.266   3.362  12.941  1.1912 -1.3522  2.8484
  108CHL1   C1014217   5.287   3.489  13.096  0.1328 -0.1219  0.0702
  108CHL1   C1914218   5.278   3.636  13.114  0.0511  0.0939  0.5538
  108CHL1  H19A14219   5.206   3.694  13.052 -0.5712 -0.9246  0.3073
  108CHL1  H19B14220   5.245   3.651  13.219  0.7745 -1.1671  0.9734
  108CHL1  H19C14221   5.376   3.684  13.092  0.4946 -1.0394 -0.0454
  108CHL1    C114222   5.143   3.433  13.141 -0.5939  0.7467  0.0449
  108CHL1   H1A14223   5.072   3.493  13.081 -1.3202 -1.8353 -1.8621
  108CHL1   H1B14224   5.142   3.329  13.100 -0.3677  1.1675 -1.0450
  108CHL1    C214225   5.122   3.424  13.293 -0.3119  0.7409  0.2740
  108CHL1   H2A14226   5.036   3.359  13.320  1.4372 -1.5234  0.6836
  108CHL1   H2B14227   5.104   3.525  13.334 -1.1659  1.7735 -2.4404
  108CHL1   C2014228   5.316   3.447  12.383 -0.1045  0.2629 -0.4658
  108CHL1   H2014229   5.330   3.556  12.374 -2.1501  0.4580 -1.9007
  108CHL1   C2114230   5.168   3.413  12.377  0.4961 -0.2093  0.0063
  108CHL1  H21A14231   5.152   3.303  12.384  1.9892 -0.4354  0.2276
  108CHL1  H21B14232   5.138   3.440  12.274 -0.7220  0.9908  0.6386
  108CHL1  H21C14233   5.112   3.463  12.459  3.9778 -0.2497  2.6651
  108CHL1   C2214234   5.402   3.388  12.268  0.0222 -0.1115  0.4768
  108CHL1  H22A14235   5.508   3.419  12.280  0.6336 -2.4854  1.9543
  108CHL1  H22B14236   5.400   3.277  12.274 -0.5373 -0.0888  0.8671
  108CHL1   C2314237   5.346   3.424  12.126  0.2904 -0.0956  0.1061
  108CHL1  H23A14238   5.257   3.359  12.117  1.3917 -1.5557 -0.5146
  108CHL1  H23B14239   5.308   3.529  12.126 -0.6711 -0.4323  0.4962
  108CHL1   C2414240   5.433   3.404  12.002  0.5017 -0.1348  0.9450
  108CHL1  H24A14241   5.532   3.452  12.015  0.6022 -0.2748  0.7149
  108CHL1  H24B14242   5.447   3.294  11.988 -1.7263 -0.9501  4.1403
  108CHL1   C2514243   5.379   3.472  11.870 -0.2409 -0.5050  0.4492
  108CHL1   H2514244   5.350   3.577  11.891  1.4757  0.2588 -0.7513
  108CHL1   C2614245   5.487   3.468  11.759 -0.1189  0.4613  0.3824
  108CHL1  H26A14246   5.443   3.509  11.665 -1.0189 -0.1179  0.5341
  108CHL1  H26B14247   5.583   3.516  11.788  0.3618 -0.2910  0.0624
  108CHL1  H26C14248   5.508   3.362  11.731  0.1198  0.1699  1.6246
  108CHL1   C2714249   5.248   3.419  11.813 -0.2840 -0.4317 -0.1596
  108CHL1  H27A14250   5.169   3.435  11.890  1.3111 -0.6945  1.5967
  108CHL1  H27B14251   5.224   3.471  11.718 -1.0805  2.3050  1.4228
  108CHL1  H27C14252   5.257   3.310  11.796  0.5467 -0.8006  2.2269
  109CHL1    C314253   1.859   0.099  13.125 -0.2574  0.6499  0.0633
  109CHL1    H314254   1.807   0.001  13.113  2.6075 -1.0381  0.2569
  109CHL1    O314255   1.866   0.124  13.264 -0.1821  0.3488  0.2620
  109CHL1   H3'14256   1.903   0.212  13.268 -0.9171  0.6021  2.1983
  109CHL1    C414257   2.004   0.089  13.065 -0.7533  0.0569  0.3177
  109CHL1   H4A14258   2.053   0.188  13.084  0.8214 -0.6825  0.2649
  109CHL1   H4B14259   2.060   0.010  13.118  0.4945 -0.6328 -1.9078
  109CHL1    C514260   2.012   0.080  12.912 -0.4494 -0.2868  0.2653
  109CHL1    C614261   2.090  -0.017  12.856  0.2854 -0.4915  0.6470
  109CHL1    H614262   2.154  -0.074  12.925  2.5145  1.2563  0.1298
  109CHL1    C714263   2.095  -0.038  12.709  0.5762 -0.1895 -0.2521
  109CHL1   H7A14264   2.196  -0.051  12.663  1.5591 -0.7792  1.9349
  109CHL1   H7B14265   2.051  -0.137  12.682 -1.6299  1.1616 -1.9541
  109CHL1    C814266   2.027   0.082  12.629 -0.5489  0.1197 -0.1652
  109CHL1    H814267   2.097   0.168  12.621  1.3660 -1.4528 -1.4348
  109CHL1   C1414268   2.021   0.046  12.481 -0.5444  0.2502  0.0609
  109CHL1   H1414269   1.969  -0.052  12.469  2.3933 -1.3063 -1.0645
  109CHL1   C1514270   2.156   0.003  12.406  0.1404  0.4930  0.5616
  109CHL1  H15A14271   2.233   0.078  12.436 -0.7548  1.1031  1.4273
  109CHL1  H15B14272   2.179  -0.103  12.431 -4.1463 -1.5434 -2.8343
  109CHL1   C1614273   2.108   0.010  12.261 -0.1943 -0.6093  1.2479
  109CHL1  H16A14274   2.176   0.070  12.197 -3.4564  2.0037 -0.1250
  109CHL1  H16B14275   2.112  -0.096  12.228  0.1693 -0.5091  0.9614
  109CHL1   C1714276   1.965   0.076  12.254 -0.1218 -0.4671  0.2850
  109CHL1   H1714277   1.888  -0.003  12.244 -3.8490  2.9682 -1.0521
  109CHL1   C1314278   1.952   0.143  12.391 -0.0923 -0.0269 -0.1882
  109CHL1   C1814279   2.031   0.280  12.377  0.1850  0.1672 -0.5320
  109CHL1  H18A14280   2.134   0.279  12.335  1.5165  0.0387  2.4878
  109CHL1  H18B14281   1.963   0.348  12.322 -1.0097  0.1782  0.8974
  109CHL1  H18C14282   2.043   0.321  12.480  1.1664 -0.8085 -0.2302
  109CHL1   C1214283   1.803   0.160  12.443 -0.3656  0.3316 -1.0176
  109CHL1  H12A14284   1.758   0.235  12.376 -1.3029  0.8402  0.1547
  109CHL1  H12B14285   1.755   0.060  12.446  0.1782  0.0941  1.1073
  109CHL1   C1114286   1.815   0.210  12.594  0.1566 -0.1717  0.1677
  109CHL1  H11A14287   1.867   0.309  12.593  1.8714 -1.0319  0.8918
  109CHL1  H11B14288   1.714   0.212  12.641  0.7270 -1.3470  1.4824
  109CHL1    C914289   1.894   0.116  12.687 -0.4888 -0.0496 -0.5672
  109CHL1    H914290   1.841   0.019  12.684 -0.2565 -0.1779 -0.5624
  109CHL1   C1014291   1.912   0.167  12.834  0.3648  0.0141  0.2038
  109CHL1   C1914292   1.970   0.308  12.838  0.5847  0.7007 -0.7539
  109CHL1  H19A14293   1.973   0.347  12.942 -1.0128  2.0337 -1.1501
  109CHL1  H19B14294   2.070   0.314  12.789  0.9636  1.1956  0.0453
  109CHL1  H19C14295   1.910   0.391  12.795  5.1609  4.6025 -0.4922
  109CHL1    C114296   1.774   0.164  12.902  0.4106  0.3615  1.0588
  109CHL1   H1A14297   1.716   0.243  12.850  2.2279  0.9815 -0.0967
  109CHL1   H1B14298   1.724   0.067  12.884 -2.8695  1.7012  2.0475
  109CHL1    C214299   1.767   0.199  13.054  0.2168 -0.0455 -0.0617
  109CHL1   H2A14300   1.660   0.190  13.081  0.3835  0.4481  0.8213
  109CHL1   H2B14301   1.796   0.305  13.070  1.5930  0.2654 -3.8059
  109CHL1   C2014302   1.944   0.157  12.120 -0.5430  0.5213 -0.6125
  109CHL1   H2014303   2.022   0.232  12.094  1.0326 -1.5093 -2.0369
  109CHL1   C2114304   1.807   0.225  12.113 -0.4356  0.8437  0.4249
  109CHL1  H21A14305   1.807   0.262  12.008 -2.2197 -1.3921 -0.4685
  109CHL1  H21B14306   1.788   0.309  12.183 -2.3474 -1.5742  3.0699
  109CHL1  H21C14307   1.725   0.150  12.124  1.2909 -1.7382 -2.5166
  109CHL1   C2214308   1.960   0.064  11.993  0.1164  0.6572 -0.7495
  109CHL1  H22A14309   2.011  -0.033  12.010 -2.0274 -0.2542  0.9934
  109CHL1  H22B14310   1.860   0.024  11.964  0.8718 -1.5801 -0.4614
  109CHL1   C2314311   2.023   0.135  11.870  0.5664 -0.2200  0.1950
  109CHL1  H23A14312   1.954   0.211  11.827 -1.8435 -1.8744  0.9018
  109CHL1  H23B14313   2.108   0.188  11.916 -0.6162  0.7382  1.3539
  109CHL1   C2414314   2.071   0.037  11.769  0.0319  0.8403  0.5589
  109CHL1  H24A14315   2.143  -0.028  11.823  0.4741  0.4807 -0.4455
  109CHL1  H24B14316   1.988  -0.032  11.745  1.7659 -0.8834 -0.7631
  109CHL1   C2514317   2.152   0.094  11.651  0.2360 -0.0269  0.0485
  109CHL1   H2514318   2.225   0.166  11.693 -0.6366 -0.1809  1.9162
  109CHL1   C2614319   2.225  -0.022  11.571 -0.0394  0.0694  0.4073
  109CHL1  H26A14320   2.255   0.019  11.472 -0.8371 -0.8501 -0.2405
  109CHL1  H26B14321   2.319  -0.044  11.625  0.4964  2.1739  0.4153
  109CHL1  H26C14322   2.172  -0.116  11.545 -0.0893  0.6254 -1.7508
  109CHL1   C2714323   2.064   0.170  11.550 -0.1772 -0.0563 -0.1648
  109CHL1  H27A14324   2.025   0.264  11.595 -1.1304 -0.4481 -0.1482
  109CHL1  H27B14325   2.129   0.192  11.462  1.3830  1.3628  1.2694
  109CHL1  H27C14326   1.976   0.106  11.527  0.3223 -1.3304  1.2716
  110CHL1    C314327   0.908   6.040  13.032  0.2061  0.5803  0.3285
  110CHL1    H314328   0.985   6.109  12.991 -0.5624  1.4279  0.2844
  110CHL1    O314329   0.900   6.041  13.174  0.5633 -0.0793  0.0561
  110CHL1   H3'14330   0.843   6.117  13.190 -0.6808 -1.1602  0.9868
  110CHL1    C414331   0.768   6.057  12.969  0.5500  0.3306  0.4359
  110CHL1   H4A14332   0.707   5.972  13.007 -1.2313  0.3182 -2.1824
  110CHL1   H4B14333   0.717   6.148  13.007 -1.9704 -0.3981 -0.9645
  110CHL1    C514334   0.774   6.049  12.818 -0.1555  0.0710 -0.3528
  110CHL1    C614335   0.747   6.154  12.744  0.2713 -0.7545 -0.6130
  110CHL1    H614336   0.715   6.249  12.788 -2.0267 -1.3408 -0.8912
  110CHL1    C714337   0.767   6.158  12.598  1.3393  0.1903 -0.3546
  110CHL1   H7A14338   0.673   6.207  12.562 -1.4331 -1.9574  3.1887
  110CHL1   H7B14339   0.858   6.215  12.570  0.7369  1.4405  0.1405
  110CHL1    C814340   0.773   6.022  12.526  0.5234 -0.4101  0.2427
  110CHL1    H814341   0.668   5.991  12.545 -0.2009  2.0972  0.6557
  110CHL1   C1414342   0.813   6.037  12.380 -0.1251 -0.0169  0.1857
  110CHL1   H1414343   0.922   6.057  12.384 -0.0957 -0.1858  0.2591
  110CHL1   C1514344   0.750   6.145  12.290  0.4478  0.1820  0.3836
  110CHL1  H15A14345   0.640   6.151  12.305  0.1410 -0.6701 -1.3224
  110CHL1  H15B14346   0.788   6.247  12.315 -0.2337  0.1397  1.6846
  110CHL1   C1614347   0.787   6.099  12.150 -0.1698  0.1024  0.1209
  110CHL1  H16A14348   0.691   6.086  12.095 -0.3658 -2.4491  0.9230
  110CHL1  H16B14349   0.859   6.168  12.101  2.6845  0.2915  4.1038
  110CHL1   C1714350   0.852   5.954  12.166  0.0863  0.2690 -0.4479
  110CHL1   H1714351   0.961   5.970  12.174 -0.2309  2.6929 -0.1591
  110CHL1   C1314352   0.809   5.905  12.306 -0.0006  0.3909 -0.3463
  110CHL1   C1814353   0.669   5.842  12.300  0.2975  0.0773 -0.2964
  110CHL1  H18A14354   0.627   5.829  12.402 -0.3247 -0.1396 -0.5695
  110CHL1  H18B14355   0.598   5.911  12.249  1.1276  0.0814 -1.4877
  110CHL1  H18C14356   0.666   5.747  12.242 -0.7091  0.3549 -0.7239
  110CHL1   C1214357   0.916   5.808  12.373  0.4791  0.0017 -0.6346
  110CHL1  H12A14358   0.909   5.702  12.341 -0.4318  0.4326 -1.9576
  110CHL1  H12B14359   1.016   5.853  12.360 -0.8397  3.0327 -1.2870
  110CHL1   C1114360   0.897   5.800  12.529  0.1300  0.3849 -0.1411
  110CHL1  H11A14361   0.811   5.732  12.548 -0.0663  0.5093 -0.5659
  110CHL1  H11B14362   0.990   5.757  12.572  0.8085  1.8890 -0.0372
  110CHL1    C914363   0.872   5.931  12.605 -0.5078  0.3486  0.1138
  110CHL1    H914364   0.966   5.991  12.608 -0.5253  0.3369  2.6908
  110CHL1   C1014365   0.832   5.919  12.759 -0.9585 -0.1089  0.3596
  110CHL1   C1914366   0.719   5.810  12.767 -0.3518 -0.8695  0.9364
  110CHL1  H19A14367   0.629   5.838  12.707 -0.3955  3.4959  2.6759
  110CHL1  H19B14368   0.764   5.709  12.752  3.6714  0.8665 -0.0860
  110CHL1  H19C14369   0.669   5.814  12.866  0.5975  0.8331  1.3829
  110CHL1    C114370   0.964   5.882  12.841 -0.6522 -0.2369  0.5815
  110CHL1   H1A14371   0.984   5.775  12.817 -1.7581 -0.8797  2.3166
  110CHL1   H1B14372   1.037   5.957  12.805 -2.2751  2.6549  2.9112
  110CHL1    C214373   0.965   5.905  12.993  0.2832 -1.0406  0.7386
  110CHL1   H2A14374   1.066   5.900  13.041  0.0719 -1.1907  1.1739
  110CHL1   H2B14375   0.901   5.828  13.041  0.5653 -1.9456 -0.2998
  110CHL1   C2014376   0.828   5.865  12.046  0.4270  0.0976  0.0137
  110CHL1   H2014377   0.720   5.845  12.037  0.8776 -2.3499 -0.8399
  110CHL1   C2114378   0.906   5.728  12.065 -0.1971 -0.1516 -0.2133
  110CHL1  H21A14379   0.860   5.677  12.152 -0.8231  0.2996 -0.2737
  110CHL1  H21B14380   1.016   5.739  12.078 -0.0567 -2.5207  1.3291
  110CHL1  H21C14381   0.886   5.670  11.973 -0.4727  0.2487 -0.4083
  110CHL1   C2214382   0.873   5.933  11.914 -0.7789  0.0743 -0.2116
  110CHL1  H22A14383   0.795   6.003  11.877 -0.0751  0.9339 -0.1069
  110CHL1  H22B14384   0.968   5.989  11.932 -0.7596 -0.3425  1.1089
  110CHL1   C2314385   0.907   5.836  11.798  0.3161  0.5110 -0.5552
  110CHL1  H23A14386   1.006   5.792  11.824  0.3846 -0.0185 -1.6224
  110CHL1  H23B14387   0.834   5.756  11.775  1.4185  0.3305 -4.0267
  110CHL1   C2414388   0.926   5.914  11.673  0.0811  0.0883 -0.0637
  110CHL1  H24A14389   0.831   5.964  11.647  0.8205  1.0933 -0.9163
  110CHL1  H24B14390   0.998   5.996  11.693  0.6875 -0.7889  1.5139
  110CHL1   C2514391   0.976   5.831  11.556  0.8053 -0.1809  1.0997
  110CHL1   H2514392   1.083   5.808  11.574  1.0714  1.6382  2.0866
  110CHL1   C2614393   0.893   5.698  11.536  0.2722 -0.3418  0.5501
  110CHL1  H26A14394   0.916   5.621  11.613  1.4122  0.8087  1.4190
  110CHL1  H26B14395   0.785   5.721  11.540  0.3680  0.4494 -0.8348
  110CHL1  H26C14396   0.917   5.656  11.437  1.5977  2.5443 -0.4798
  110CHL1   C2714397   0.967   5.921  11.427 -0.0807  0.0088  0.7071
  110CHL1  H27A14398   1.019   5.874  11.341  0.5351 -0.2409  1.2116
  110CHL1  H27B14399   0.861   5.949  11.411  0.5403  2.2637  0.1332
  110CHL1  H27C14400   1.011   6.021  11.448 -2.6788  1.4927 -0.3517
  111CHL1    C314401   1.442   1.820  13.137 -0.4162 -0.4611 -0.3155
  111CHL1    H314402   1.394   1.912  13.096  1.7562  0.8915  0.0278
  111CHL1    O314403   1.418   1.824  13.276 -0.3695 -0.1472 -0.4445
  111CHL1   H3'14404   1.337   1.777  13.295 -0.6474  0.8423  1.0021
  111CHL1    C414405   1.362   1.701  13.084 -0.1018  0.4048 -0.3141
  111CHL1   H4A14406   1.397   1.613  13.142  1.4924  1.2873  0.1348
  111CHL1   H4B14407   1.254   1.710  13.106 -0.2178 -0.9116 -0.3096
  111CHL1    C514408   1.383   1.678  12.937 -0.0953  0.1789  0.5383
  111CHL1    C614409   1.279   1.665  12.852  0.1863 -1.2149 -1.5943
  111CHL1    H614410   1.177   1.661  12.892  0.5233  0.9721 -0.3775
  111CHL1    C714411   1.292   1.645  12.707  0.5154 -0.2983 -0.1811
  111CHL1   H7A14412   1.211   1.572  12.683 -2.1189  1.1406  3.3652
  111CHL1   H7B14413   1.272   1.736  12.647 -1.5892 -0.3038  0.4421
  111CHL1    C814414   1.431   1.593  12.677 -0.2123  0.3484  0.4637
  111CHL1    H814415   1.449   1.490  12.715  2.1011 -1.2996 -4.2584
  111CHL1   C1414416   1.445   1.594  12.523 -0.1635  0.1310 -0.6431
  111CHL1   H1414417   1.442   1.703  12.502  0.7404  0.0287 -1.3620
  111CHL1   C1514418   1.335   1.533  12.438  1.2338  0.3186 -0.1397
  111CHL1  H15A14419   1.284   1.452  12.495  0.6895 -0.0381 -1.1093
  111CHL1  H15B14420   1.258   1.607  12.407  0.6487  0.0298  0.5898
  111CHL1   C1614421   1.402   1.492  12.310  0.1725 -0.1168 -0.7594
  111CHL1  H16A14422   1.385   1.385  12.286 -0.9620  0.5973 -3.5061
  111CHL1  H16B14423   1.361   1.544  12.221 -0.0693  1.6694  0.3530
  111CHL1   C1714424   1.557   1.518  12.319  0.4378 -0.2133 -0.2180
  111CHL1   H1714425   1.577   1.614  12.267  3.8939 -1.0169 -0.6436
  111CHL1   C1314426   1.575   1.540  12.467  0.1337 -0.4836  0.3696
  111CHL1   C1814427   1.594   1.402  12.530  0.0841  0.5330 -1.0828
  111CHL1  H18A14428   1.504   1.339  12.513 -0.5156  1.1853 -0.3950
  111CHL1  H18B14429   1.683   1.348  12.490  1.9528  2.3637  0.4101
  111CHL1  H18C14430   1.619   1.405  12.638  1.4839 -2.2473 -1.2233
  111CHL1   C1214431   1.689   1.637  12.511  0.2936 -0.3492  0.3282
  111CHL1  H12A14432   1.794   1.609  12.489  0.5663  1.0677 -0.2952
  111CHL1  H12B14433   1.667   1.740  12.475 -0.0648 -0.3266  0.6163
  111CHL1   C1114434   1.686   1.652  12.670 -0.8368 -0.0376  0.5685
  111CHL1  H11A14435   1.730   1.557  12.707 -2.0228 -1.2833 -1.0920
  111CHL1  H11B14436   1.751   1.740  12.689 -1.2560  1.0444 -2.4996
  111CHL1    C914437   1.540   1.680  12.734  0.0867 -0.3175  0.3825
  111CHL1    H914438   1.511   1.784  12.710 -0.5151 -0.1871  1.5996
  111CHL1   C1014439   1.533   1.679  12.889  1.3179  0.1796 -0.3859
  111CHL1   C1914440   1.608   1.543  12.935 -0.0079 -1.0155  0.0799
  111CHL1  H19A14441   1.556   1.448  12.910 -0.1851 -1.3695  1.6515
  111CHL1  H19B14442   1.715   1.543  12.908 -0.1275 -0.2107 -0.4271
  111CHL1  H19C14443   1.610   1.527  13.045 -1.2563 -2.1641 -0.0428
  111CHL1    C114444   1.607   1.792  12.959 -0.3868 -0.0466 -0.1742
  111CHL1   H1A14445   1.716   1.789  12.939  0.2666  5.3819  1.1948
  111CHL1   H1B14446   1.579   1.891  12.916  2.2891  0.8398 -0.0097
  111CHL1    C214447   1.592   1.806  13.106  1.0184 -0.7528 -0.4139
  111CHL1   H2A14448   1.652   1.891  13.147  1.3836 -0.6527 -1.1406
  111CHL1   H2B14449   1.631   1.718  13.162  0.5327 -0.0387  1.1142
  111CHL1   C2014450   1.644   1.416  12.247  0.0831  0.4265 -1.1102
  111CHL1   H2014451   1.632   1.313  12.288 -1.9982  0.3334 -1.8434
  111CHL1   C2114452   1.794   1.449  12.271 -0.8325 -0.2783  0.5976
  111CHL1  H21A14453   1.808   1.429  12.379 -1.2560  1.2918  0.9600
  111CHL1  H21B14454   1.796   1.558  12.252 -0.0917 -0.6290 -1.6782
  111CHL1  H21C14455   1.862   1.394  12.202  0.1325  1.7751 -0.1651
  111CHL1   C2214456   1.604   1.407  12.101 -0.1965 -0.3393  0.4732
  111CHL1  H22A14457   1.501   1.366  12.099 -0.2920 -0.0621 -0.5685
  111CHL1  H22B14458   1.611   1.507  12.054  0.9096 -0.9202 -0.6500
  111CHL1   C2314459   1.692   1.308  12.020  0.1685 -0.7784  0.7255
  111CHL1  H23A14460   1.797   1.344  12.023 -0.8050  2.6394 -1.2846
  111CHL1  H23B14461   1.684   1.211  12.074 -0.9254 -0.4169  1.2241
  111CHL1   C2414462   1.630   1.296  11.875  0.3347  0.5235 -0.8864
  111CHL1  H24A14463   1.528   1.254  11.877  0.7298 -0.7258 -3.2879
  111CHL1  H24B14464   1.610   1.398  11.837  0.8330  0.8470 -0.3064
  111CHL1   C2514465   1.725   1.229  11.776 -0.2727  0.4342  0.9265
  111CHL1   H2514466   1.746   1.124  11.804  1.8667  1.0352  1.7411
  111CHL1   C2614467   1.659   1.236  11.633  0.5064 -0.3251 -0.0079
  111CHL1  H26A14468   1.730   1.187  11.563  0.5627  2.6180 -2.2200
  111CHL1  H26B14469   1.566   1.176  11.630 -0.2333  0.7772  0.1979
  111CHL1  H26C14470   1.651   1.342  11.601  0.6747 -0.8331 -1.8890
  111CHL1   C2714471   1.856   1.305  11.761 -0.5112  0.3459 -0.9225
  111CHL1  H27A14472   1.900   1.346  11.854 -1.3738  1.0796 -0.8188
  111CHL1  H27B14473   1.933   1.243  11.711 -2.0987 -2.2842 -0.3427
  111CHL1  H27C14474   1.833   1.398  11.704  2.6819  2.5052  1.0156
  112CHL1    C314475   4.152   2.542  13.083 -0.1447 -0.0132  0.8277
  112CHL1    H314476   4.260   2.517  13.076 -0.2170 -0.2245  0.4313
  112CHL1    O314477   4.119   2.557  13.221  0.2537 -0.1234  0.1641
  112CHL1   H3'14478   4.063   2.481  13.240  2.0011 -1.0972  1.7405
  112CHL1    C414479   4.100   2.664  12.999 -0.1138  0.6211 -0.2358
  112CHL1   H4A14480   3.996   2.693  13.027 -0.0851  0.0002  0.5684
  112CHL1   H4B14481   4.151   2.751  13.046  0.5091 -0.4883  1.2441
  112CHL1    C514482   4.104   2.656  12.849 -0.3537  0.4989  0.2605
  112CHL1    C614483   4.176   2.738  12.776  0.2829  0.2958  0.5056
  112CHL1    H614484   4.232   2.820  12.825  0.3864  2.2494 -2.5828
  112CHL1    C714485   4.193   2.725  12.624  0.2621  0.3788  0.7515
  112CHL1   H7A14486   4.201   2.822  12.571  0.3585  1.1806  2.1832
  112CHL1   H7B14487   4.289   2.675  12.598 -0.5571 -1.1250  0.4582
  112CHL1    C814488   4.084   2.627  12.560 -0.4471 -0.1058 -0.3994
  112CHL1    H814489   3.987   2.681  12.563  0.3918  1.4770 -0.7418
  112CHL1   C1414490   4.129   2.600  12.413 -0.5743 -0.1452 -0.0884
  112CHL1   H1414491   4.229   2.557  12.434 -0.8287  0.0598  1.7512
  112CHL1   C1514492   4.145   2.721  12.320  0.7032  0.0878  0.2020
  112CHL1  H15A14493   4.055   2.784  12.336 -0.4426 -0.9816 -1.7348
  112CHL1  H15B14494   4.233   2.778  12.356  0.7086 -0.2871  0.7905
  112CHL1   C1614495   4.141   2.664  12.182 -0.0293  0.6655  0.6582
  112CHL1  H16A14496   4.066   2.709  12.113  0.0786  2.2150  1.4916
  112CHL1  H16B14497   4.233   2.678  12.120 -0.0280  2.0316  0.9262
  112CHL1   C1714498   4.120   2.513  12.201 -0.3257 -0.4665 -0.2359
  112CHL1   H1714499   4.226   2.479  12.211  0.5045  1.8986 -0.3898
  112CHL1   C1314500   4.047   2.504  12.338  0.7847  0.0319 -0.1631
  112CHL1   C1814501   3.902   2.549  12.313  0.0364 -0.2707 -0.1390
  112CHL1  H18A14502   3.866   2.582  12.413 -0.7862 -2.3750  0.3117
  112CHL1  H18B14503   3.888   2.634  12.243 -1.1099 -0.8387 -0.6182
  112CHL1  H18C14504   3.837   2.469  12.272  1.4110 -0.9438 -1.0566
  112CHL1   C1214505   4.050   2.371  12.415 -0.0257  0.6386 -0.6545
  112CHL1  H12A14506   3.976   2.304  12.365 -0.9034 -0.0417  1.4701
  112CHL1  H12B14507   4.150   2.323  12.422  0.3686  1.3693 -1.0574
  112CHL1   C1114508   3.992   2.395  12.565 -0.4373  0.0699  0.6656
  112CHL1  H11A14509   3.886   2.429  12.559 -0.4410 -0.0822 -0.4405
  112CHL1  H11B14510   3.997   2.293  12.609  2.9209 -0.2637 -0.1658
  112CHL1    C914511   4.075   2.501  12.638  0.1944 -0.2585  0.1208
  112CHL1    H914512   4.178   2.461  12.629  0.9718  1.7112 -0.2747
  112CHL1   C1014513   4.040   2.525  12.792  0.8515  0.5421  0.5452
  112CHL1   C1914514   3.887   2.562  12.813  0.5805  0.2790 -0.5721
  112CHL1  H19A14515   3.827   2.471  12.789  0.1975  0.2346  0.5193
  112CHL1  H19B14516   3.863   2.613  12.909 -0.4658 -0.0494 -0.6472
  112CHL1  H19C14517   3.857   2.638  12.738 -0.8219  0.2871 -0.0197
  112CHL1    C114518   4.091   2.406  12.880  0.2486  0.0792  0.2074
  112CHL1   H1A14519   4.021   2.325  12.850 -0.0893 -0.0367  1.2683
  112CHL1   H1B14520   4.197   2.384  12.858  0.5620  1.3502  0.3460
  112CHL1    C214521   4.073   2.423  13.034 -0.7809  0.0620  0.0138
  112CHL1   H2A14522   4.116   2.336  13.089  4.2420  1.3136 -1.4021
  112CHL1   H2B14523   3.966   2.440  13.058 -1.1588 -0.8661 -0.9695
  112CHL1   C2014524   4.064   2.436  12.076 -0.1077 -1.0763  0.1840
  112CHL1   H2014525   3.957   2.464  12.068 -0.2260 -1.9664 -2.5210
  112CHL1   C2114526   4.088   2.282  12.099  0.3031 -0.7714  0.1620
  112CHL1  H21A14527   4.107   2.230  12.003 -1.7471 -1.4479  0.0777
  112CHL1  H21B14528   3.991   2.247  12.140 -2.2243  2.8628 -2.1851
  112CHL1  H21C14529   4.179   2.278  12.163  2.4893  2.0696 -2.4284
  112CHL1   C2214530   4.129   2.483  11.941  0.0170 -0.1762  0.1663
  112CHL1  H22A14531   4.117   2.593  11.931  0.0644 -0.3452 -2.3200
  112CHL1  H22B14532   4.238   2.460  11.942 -0.1743 -1.1151  0.7849
  112CHL1   C2314533   4.070   2.416  11.812  0.2080 -0.7062 -0.1506
  112CHL1  H23A14534   4.080   2.305  11.809  1.9226 -0.5841  0.1481
  112CHL1  H23B14535   3.963   2.444  11.809 -0.2859 -2.5012 -1.8686
  112CHL1   C2414536   4.136   2.460  11.679  0.4846 -0.2333 -0.0486
  112CHL1  H24A14537   4.084   2.415  11.592 -0.7147  0.2928  0.3792
  112CHL1  H24B14538   4.122   2.570  11.666  0.8246 -0.1534  0.2318
  112CHL1   C2514539   4.290   2.437  11.652 -0.4733  0.2007  0.7578
  112CHL1   H2514540   4.347   2.481  11.737 -0.7419 -1.8541  2.0628
  112CHL1   C2614541   4.302   2.287  11.637 -1.1640 -0.0784  0.2247
  112CHL1  H26A14542   4.215   2.250  11.577  0.6124 -1.9573 -1.3394
  112CHL1  H26B14543   4.397   2.280  11.580  0.5754  2.3223  2.6193
  112CHL1  H26C14544   4.299   2.235  11.735 -1.4551 -0.9170 -0.2166
  112CHL1   C2714545   4.321   2.518  11.522  0.9127  0.3189  0.2409
  112CHL1  H27A14546   4.428   2.502  11.500  1.0815  0.8699  0.6666
  112CHL1  H27B14547   4.257   2.477  11.440  1.2174 -0.7306  0.5194
  112CHL1  H27C14548   4.303   2.627  11.528 -0.7246  0.0289  1.3717
  113CHL1    C314549   0.334   6.366  12.997 -0.0594  0.0601 -0.5377
  113CHL1    H314550   0.410   6.288  12.973 -0.3443 -0.7072  0.9065
  113CHL1    O314551   0.300   6.373  13.137 -0.3114  0.0498  0.0251
  113CHL1   H3'14552   0.228   6.435  13.136 -0.6265 -0.3147 -1.6535
  113CHL1    C414553   0.372   6.504  12.953  0.1134 -0.1937 -0.1945
  113CHL1   H4A14554   0.305   6.583  12.993  0.8250 -0.5292  1.7724
  113CHL1   H4B14555   0.462   6.519  13.016 -1.3339 -0.2671  1.9781
  113CHL1    C514556   0.393   6.501  12.801 -0.0262  0.1810 -0.2225
  113CHL1    C614557   0.518   6.533  12.749  0.7278 -0.2799  0.1580
  113CHL1    H614558   0.602   6.580  12.803  1.6631  1.3108 -2.4443
  113CHL1    C714559   0.554   6.521  12.608 -0.6398  0.1960 -0.2065
  113CHL1   H7A14560   0.613   6.609  12.573  1.0876 -1.2773 -1.1561
  113CHL1   H7B14561   0.626   6.437  12.599  0.2206  0.7522  1.2089
  113CHL1    C814562   0.430   6.509  12.523 -0.0226 -0.4496  0.5315
  113CHL1    H814563   0.394   6.614  12.526 -0.7321 -0.6969  1.0221
  113CHL1   C1414564   0.473   6.464  12.382  0.0014  0.8761 -0.4065
  113CHL1   H1414565   0.501   6.359  12.405 -0.4936  0.7377 -0.4179
  113CHL1   C1514566   0.597   6.516  12.315 -0.4863  0.2720 -0.2706
  113CHL1  H15A14567   0.601   6.626  12.328  1.0761  0.0378  1.9875
  113CHL1  H15B14568   0.695   6.489  12.361 -0.0728  1.0082 -0.6880
  113CHL1   C1614569   0.580   6.475  12.170 -0.5876  0.7446  0.4610
  113CHL1  H16A14570   0.622   6.551  12.101  0.9022 -1.4599 -1.2255
  113CHL1  H16B14571   0.634   6.379  12.157  0.8806  1.2278  2.4969
  113CHL1   C1714572   0.427   6.432  12.149 -0.1186  0.4902  0.9375
  113CHL1   H1714573   0.446   6.322  12.150 -0.6140  0.4018  2.5475
  113CHL1   C1314574   0.358   6.472  12.278  0.3079  0.4338  0.7001
  113CHL1   C1814575   0.313   6.619  12.259 -0.2791 -0.4444 -0.4944
  113CHL1  H18A14576   0.299   6.658  12.362 -1.3510 -0.5161 -0.5993
  113CHL1  H18B14577   0.388   6.676  12.200 -1.3806 -1.4952 -3.0320
  113CHL1  H18C14578   0.210   6.625  12.217 -0.3154  1.6982 -0.2271
  113CHL1   C1214579   0.245   6.377  12.327  0.7465  0.5426  0.8161
  113CHL1  H12A14580   0.157   6.357  12.262 -0.5629 -2.5264  3.2892
  113CHL1  H12B14581   0.281   6.272  12.328 -1.4312 -0.4882 -3.2961
  113CHL1   C1114582   0.202   6.411  12.468 -1.0260 -0.8186 -0.2589
  113CHL1  H11A14583   0.148   6.507  12.458 -1.3538 -1.0337 -0.5895
  113CHL1  H11B14584   0.130   6.330  12.494 -0.6123 -1.9880 -2.4804
  113CHL1    C914585   0.320   6.418  12.571 -0.6559  0.8783  0.2850
  113CHL1    H914586   0.360   6.314  12.565 -1.7668  0.4081  0.7694
  113CHL1   C1014587   0.278   6.439  12.718 -1.1190 -0.0459  0.0463
  113CHL1   C1914588   0.164   6.542  12.729 -0.4590 -0.4318  0.0335
  113CHL1  H19A14589   0.189   6.631  12.667 -0.9421  0.4382  1.0567
  113CHL1  H19B14590   0.066   6.499  12.696 -1.0517  0.3357  0.7554
  113CHL1  H19C14591   0.145   6.585  12.829  0.7643  1.9290 -0.6856
  113CHL1    C114592   0.231   6.308  12.781  0.5888  0.1799  0.5766
  113CHL1   H1A14593   0.136   6.281  12.731  0.9185 -1.1679  0.6212
  113CHL1   H1B14594   0.301   6.227  12.752  0.0703  0.8289 -2.9242
  113CHL1    C214595   0.205   6.324  12.929  0.1609 -0.7485 -0.5445
  113CHL1   H2A14596   0.170   6.226  12.968  1.0912  0.3432  3.5519
  113CHL1   H2B14597   0.127   6.400  12.948  0.6714  0.0310 -1.4827
  113CHL1   C2014598   0.366   6.466  12.015 -0.5270  0.2833 -0.5354
  113CHL1   H2014599   0.376   6.576  12.007 -2.7744  0.5970  0.3966
  113CHL1   C2114600   0.220   6.421  12.017 -0.7889 -0.1108  0.1109
  113CHL1  H21A14601   0.187   6.430  11.911  0.5213 -0.6545 -0.3683
  113CHL1  H21B14602   0.152   6.497  12.061 -1.4993  2.4356 -4.6534
  113CHL1  H21C14603   0.214   6.319  12.060 -0.8628 -1.7457 -3.4636
  113CHL1   C2214604   0.453   6.403  11.907  0.0257  0.1226  0.5597
  113CHL1  H22A14605   0.560   6.431  11.922  1.4467 -2.1616 -3.6289
  113CHL1  H22B14606   0.448   6.292  11.909  2.8767 -0.0725  0.7640
  113CHL1   C2314607   0.424   6.446  11.761 -0.2109 -0.3302  0.9947
  113CHL1  H23A14608   0.319   6.426  11.730  0.0115  1.7956 -1.4993
  113CHL1  H23B14609   0.435   6.556  11.768  1.8109 -0.3740 -0.6094
  113CHL1   C2414610   0.529   6.385  11.663  0.2290  0.3052  0.2389
  113CHL1  H24A14611   0.633   6.419  11.684  0.3421 -1.1206  2.2527
  113CHL1  H24B14612   0.530   6.274  11.670  1.2564  0.4003  3.2438
  113CHL1   C2514613   0.499   6.421  11.514 -0.1394 -0.6078  0.3523
  113CHL1   H2514614   0.391   6.393  11.508 -0.4391  0.3091  1.0793
  113CHL1   C2614615   0.504   6.574  11.497 -0.3958  0.6366 -0.3336
  113CHL1  H26A14616   0.416   6.621  11.545 -1.1286 -0.4500 -0.5736
  113CHL1  H26B14617   0.593   6.620  11.544 -1.9433  2.6889  0.7184
  113CHL1  H26C14618   0.508   6.597  11.388  2.8960 -0.0599 -0.4637
  113CHL1   C2714619   0.596   6.346  11.420  0.1354 -0.2608 -0.3995
  113CHL1  H27A14620   0.599   6.236  11.438  0.2689 -0.4441 -1.4660
  113CHL1  H27B14621   0.567   6.342  11.313 -1.1202 -1.2842 -0.0553
  113CHL1  H27C14622   0.699   6.387  11.427  0.4386 -1.1452  0.7514
  114CHL1    C314623   4.300   0.637  12.899  0.6528  0.2129  0.1802
  114CHL1    H314624   4.394   0.592  12.860  0.2183  0.0838 -0.7239
  114CHL1    O314625   4.297   0.617  13.044  0.5516  0.0671  0.2762
  114CHL1   H3'14626   4.300   0.522  13.055 -0.8698  0.0781  1.0316
  114CHL1    C414627   4.286   0.783  12.859 -0.0263  0.7749  0.6624
  114CHL1   H4A14628   4.193   0.820  12.907 -1.1865 -1.4692  0.2949
  114CHL1   H4B14629   4.366   0.848  12.900  1.1539  1.0673 -1.9131
  114CHL1    C514630   4.274   0.791  12.706 -0.2247  0.6551 -0.7830
  114CHL1    C614631   4.360   0.879  12.646  0.4058  0.6741  0.1816
  114CHL1    H614632   4.429   0.936  12.709  0.8090  0.7996 -0.3659
  114CHL1    C714633   4.370   0.892  12.498 -0.4174  0.4399  0.4091
  114CHL1   H7A14634   4.379   0.997  12.461  0.7431  0.0236 -0.5722
  114CHL1   H7B14635   4.463   0.842  12.462  0.0953  2.8405 -1.9705
  114CHL1    C814636   4.253   0.832  12.415  0.3561 -0.4177 -0.9629
  114CHL1    H814637   4.168   0.902  12.429  1.2521  0.6504 -0.7212
  114CHL1   C1414638   4.286   0.813  12.276 -0.3252 -0.3031  0.1353
  114CHL1   H1414639   4.373   0.744  12.276 -1.1955 -1.4863  2.2260
  114CHL1   C1514640   4.339   0.939  12.204 -0.2459 -0.0171 -0.0630
  114CHL1  H15A14641   4.290   1.030  12.243 -0.9057 -0.1756 -0.4809
  114CHL1  H15B14642   4.447   0.958  12.215 -0.3319  1.2405 -1.1421
  114CHL1   C1614643   4.314   0.906  12.052 -0.1339 -0.7134  0.7402
  114CHL1  H16A14644   4.237   0.974  12.009  0.2281 -1.3750 -1.0696
  114CHL1  H16B14645   4.408   0.921  11.994 -1.7928 -0.7715 -2.1858
  114CHL1   C1714646   4.249   0.763  12.051 -0.1142  0.5229 -0.1580
  114CHL1   H1714647   4.340   0.700  12.056  0.4742  1.2504 -1.2263
  114CHL1   C1314648   4.179   0.750  12.188 -0.6625  0.4512 -0.4242
  114CHL1   C1814649   4.055   0.841  12.191  0.5594  1.1862  0.5593
  114CHL1  H18A14650   4.009   0.836  12.292 -1.7876  1.5827 -0.4480
  114CHL1  H18B14651   4.072   0.948  12.164 -0.5995  0.8803 -1.5844
  114CHL1  H18C14652   3.975   0.804  12.124  0.9565  1.5090 -0.1008
  114CHL1   C1214653   4.145   0.608  12.239 -0.5368  0.3958 -0.0408
  114CHL1  H12A14654   4.055   0.571  12.186  0.0375 -0.6370 -0.3368
  114CHL1  H12B14655   4.228   0.535  12.229 -1.4663 -1.0184  1.9009
  114CHL1   C1114656   4.109   0.619  12.391 -0.4028  0.1462 -0.6526
  114CHL1  H11A14657   4.013   0.674  12.402 -0.1529  0.6117 -0.7703
  114CHL1  H11B14658   4.087   0.518  12.432  1.1824 -0.2923 -0.8024
  114CHL1    C914659   4.215   0.692  12.481  0.3811  0.6602 -0.2700
  114CHL1    H914660   4.311   0.636  12.476  0.5437  0.8369  0.6977
  114CHL1   C1014661   4.175   0.697  12.630  0.6747  0.4401 -0.0485
  114CHL1   C1914662   4.035   0.758  12.650  0.3208  0.3551 -0.2238
  114CHL1  H19A14663   3.961   0.683  12.617 -1.1343  1.3975  0.5217
  114CHL1  H19B14664   4.014   0.789  12.755  0.7210  2.8142 -0.7960
  114CHL1  H19C14665   4.029   0.846  12.582 -0.4740 -1.0538 -2.0533
  114CHL1    C114666   4.191   0.555  12.693 -0.5935 -0.0572  0.0699
  114CHL1   H1A14667   4.117   0.489  12.643 -0.0740  0.4756 -1.4973
  114CHL1   H1B14668   4.291   0.522  12.658 -0.7224 -0.2525 -0.1218
  114CHL1    C214669   4.176   0.563  12.845 -0.4896  0.0351  0.9127
  114CHL1   H2A14670   4.166   0.460  12.884  1.2578 -0.2415  0.6746
  114CHL1   H2B14671   4.083   0.615  12.877  0.0311  2.3673 -1.0326
  114CHL1   C2014672   4.170   0.722  11.929  0.0507 -0.2111 -0.1633
  114CHL1   H2014673   4.061   0.729  11.949 -0.0755  1.4364 -1.2820
  114CHL1   C2114674   4.214   0.575  11.893 -0.3334  0.0646 -0.6479
  114CHL1  H21A14675   4.175   0.500  11.965  1.8448 -0.9556 -0.4528
  114CHL1  H21B14676   4.324   0.555  11.895 -0.5586 -1.1883  1.6724
  114CHL1  H21C14677   4.183   0.539  11.793  0.8328 -0.4631 -0.8422
  114CHL1   C2214678   4.192   0.818  11.813  0.0486 -0.5272  0.2643
  114CHL1  H22A14679   4.157   0.922  11.829  0.0838 -0.8966  3.5033
  114CHL1  H22B14680   4.297   0.835  11.781  0.2008  3.0034  2.1986
  114CHL1   C2314681   4.120   0.771  11.687 -0.1561  0.6998  0.1779
  114CHL1  H23A14682   4.176   0.688  11.638  0.3961  0.6773  0.8273
  114CHL1  H23B14683   4.020   0.727  11.705  0.8021 -1.6240  0.2623
  114CHL1   C2414684   4.105   0.876  11.575 -0.3468 -0.0041  0.4995
  114CHL1  H24A14685   4.022   0.947  11.598 -1.1298 -1.5448  2.7753
  114CHL1  H24B14686   4.191   0.947  11.574 -0.6553  0.3691 -0.0938
  114CHL1   C2514687   4.089   0.825  11.431 -0.1568  0.6563 -0.2037
  114CHL1   H2514688   4.016   0.742  11.437  2.0740 -1.3265  1.9871
  114CHL1   C2614689   4.040   0.933  11.336 -0.0288 -0.3563 -1.0622
  114CHL1  H26A14690   4.017   0.894  11.235 -1.6591 -0.1238 -0.8115
  114CHL1  H26B14691   3.954   0.988  11.380 -0.9348 -2.3048 -0.2734
  114CHL1  H26C14692   4.122   1.006  11.320 -1.2556  2.0096  2.1523
  114CHL1   C2714693   4.219   0.764  11.376 -0.0442 -0.2826 -0.1266
  114CHL1  H27A14694   4.230   0.676  11.443 -0.4756 -0.1568  0.1150
  114CHL1  H27B14695   4.202   0.732  11.271 -0.4360  1.1718 -0.5330
  114CHL1  H27C14696   4.293   0.846  11.385 -3.8695  3.2976  1.8804
  115CHL1    C314697   1.052   2.627  12.946 -0.1227  0.0171  0.8462
  115CHL1    H314698   0.944   2.632  12.922  0.1955 -0.1443 -0.6727
  115CHL1    O314699   1.079   2.632  13.089  0.4360 -0.0503 -0.3417
  115CHL1   H3'14700   1.172   2.612  13.096 -0.1650 -2.5630  3.1580
  115CHL1    C414701   1.095   2.486  12.893 -0.1991 -0.1032 -0.3973
  115CHL1   H4A14702   1.200   2.471  12.926  0.3104  1.4873 -1.1973
  115CHL1   H4B14703   1.035   2.406  12.940 -1.1565  0.5501 -0.4611
  115CHL1    C514704   1.087   2.476  12.742 -0.3727  0.5877 -0.5915
  115CHL1    C614705   1.006   2.385  12.690 -0.1107  1.1811 -0.3597
  115CHL1    H614706   0.949   2.318  12.756  1.0554 -1.6535 -2.0482
  115CHL1    C714707   0.999   2.355  12.539 -0.7014 -0.2887 -1.0392
  115CHL1   H7A14708   1.025   2.246  12.539 -0.1251 -0.2385  2.1857
  115CHL1   H7B14709   0.899   2.375  12.495 -0.1400 -1.4647 -3.0204
  115CHL1    C814710   1.109   2.432  12.463 -0.3214  0.6076  0.3483
  115CHL1    H814711   1.211   2.389  12.476 -0.1463  0.9697  0.2139
  115CHL1   C1414712   1.090   2.428  12.306  0.1892  0.1632 -0.1186
  115CHL1   H1414713   0.991   2.478  12.301  0.1763  0.0661 -0.9621
  115CHL1   C1514714   1.085   2.294  12.231 -0.0699 -0.6070 -0.0195
  115CHL1  H15A14715   1.176   2.234  12.250  0.3230 -0.9087 -2.5653
  115CHL1  H15B14716   0.991   2.240  12.257  0.2226 -0.3429  1.6906
  115CHL1   C1614717   1.097   2.340  12.082  0.3420  0.0808 -0.2082
  115CHL1  H16A14718   1.167   2.267  12.036  1.3495 -0.3611  1.8861
  115CHL1  H16B14719   0.998   2.326  12.035 -0.3832  1.4457  0.8416
  115CHL1   C1714720   1.141   2.489  12.080 -0.1979 -0.4334  0.0945
  115CHL1   H1714721   1.056   2.559  12.063 -1.1152 -1.5775 -0.1090
  115CHL1   C1314722   1.184   2.512  12.228 -0.9576 -0.0707 -0.1535
  115CHL1   C1814723   1.329   2.461  12.246  0.6336 -0.8553 -0.0687
  115CHL1  H18A14724   1.349   2.375  12.178 -0.0758 -1.5580  0.5794
  115CHL1  H18B14725   1.407   2.535  12.218 -0.7839  0.5808 -0.3518
  115CHL1  H18C14726   1.353   2.429  12.349  0.1416  0.2501  0.4036
  115CHL1   C1214727   1.178   2.664  12.279 -0.4960  0.1861  0.5796
  115CHL1  H12A14728   1.258   2.722  12.228 -0.7630  1.3330  1.4202
  115CHL1  H12B14729   1.081   2.705  12.243 -0.2294  2.7785  2.5093
  115CHL1   C1114730   1.210   2.668  12.433  0.8699  0.1746 -0.4996
  115CHL1  H11A14731   1.312   2.625  12.442  0.9425 -0.3891 -3.1350
  115CHL1  H11B14732   1.215   2.771  12.475  1.2090  0.2140 -0.6325
  115CHL1    C914733   1.117   2.581  12.519 -0.3530 -0.2431 -0.4173
  115CHL1    H914734   1.011   2.611  12.505 -0.3488 -0.4202 -0.8396
  115CHL1   C1014735   1.158   2.584  12.667  0.2002  0.0573 -0.0815
  115CHL1   C1914736   1.306   2.551  12.689 -0.3084 -0.5603 -0.0657
  115CHL1  H19A14737   1.367   2.626  12.635 -1.0041  0.7061  0.8578
  115CHL1  H19B14738   1.334   2.555  12.796 -1.5264  2.6023  0.2452
  115CHL1  H19C14739   1.345   2.457  12.643 -0.5347 -0.3598 -0.6863
  115CHL1    C114740   1.135   2.725  12.726 -0.0357  0.2508  0.8224
  115CHL1   H1A14741   1.220   2.785  12.687  0.8485  0.0875  2.4288
  115CHL1   H1B14742   1.043   2.768  12.679 -0.2020 -1.1698 -0.2445
  115CHL1    C214743   1.129   2.736  12.874 -0.0903 -0.3547  0.1739
  115CHL1   H2A14744   1.085   2.835  12.898  1.2592  0.0546  1.0455
  115CHL1   H2B14745   1.231   2.739  12.919 -0.3885  1.8232  0.8148
  115CHL1   C2014746   1.234   2.505  11.963 -0.0750 -0.4827  0.3658
  115CHL1   H2014747   1.317   2.432  11.972 -0.4044 -0.9896 -0.5638
  115CHL1   C2114748   1.300   2.646  11.964  0.3074  0.5215  0.4739
  115CHL1  H21A14749   1.223   2.725  11.952 -0.5883 -0.4993 -0.7698
  115CHL1  H21B14750   1.364   2.667  11.876 -0.3669  2.5547  0.4102
  115CHL1  H21C14751   1.357   2.656  12.059 -0.5907  1.7500  0.9199
  115CHL1   C2214752   1.161   2.480  11.827 -0.3826 -0.3177 -0.6309
  115CHL1  H22A14753   1.099   2.387  11.834 -0.6262 -0.1031  0.2394
  115CHL1  H22B14754   1.083   2.557  11.811 -2.3737 -1.9766  0.4318
  115CHL1   C2314755   1.260   2.462  11.713 -0.1132 -0.3951  0.5895
  115CHL1  H23A14756   1.194   2.475  11.625 -0.7198  0.7929  1.1864
  115CHL1  H23B14757   1.332   2.546  11.706 -1.2657  0.4712 -3.8289
  115CHL1   C2414758   1.326   2.322  11.724 -0.7891 -0.0184  0.0803
  115CHL1  H24A14759   1.383   2.309  11.819  2.0916  0.0423 -1.5373
  115CHL1  H24B14760   1.248   2.242  11.717  1.4921 -2.5981  1.8246
  115CHL1   C2514761   1.415   2.295  11.603  0.4491 -0.2059 -0.7565
  115CHL1   H2514762   1.506   2.358  11.612  0.0003  0.4136 -0.4618
  115CHL1   C2614763   1.452   2.153  11.618 -0.1723  0.3657  0.6036
  115CHL1  H26A14764   1.367   2.090  11.654  0.6492 -0.6823  0.7553
  115CHL1  H26B14765   1.491   2.108  11.524 -0.3310  1.1687  0.1464
  115CHL1  H26C14766   1.546   2.151  11.677  1.2301 -2.2604 -1.4619
  115CHL1   C2714767   1.347   2.323  11.472 -0.1039  0.0057 -0.2895
  115CHL1  H27A14768   1.398   2.271  11.388  0.3794  0.6341 -0.3876
  115CHL1  H27B14769   1.242   2.289  11.485 -0.1891  0.4705  0.2806
  115CHL1  H27C14770   1.345   2.429  11.439  0.0422 -0.1622 -0.8511
  116CHL1    C314771   2.065   1.567  13.145 -0.1501  0.0952  0.5900
  116CHL1    H314772   2.113   1.467  13.147 -0.3006  0.0274  0.7545
  116CHL1    O314773   2.018   1.597  13.273  0.2927 -0.1341  0.7063
  116CHL1   H3'14774   1.971   1.681  13.263 -0.3827 -0.5652  0.1184
  116CHL1    C414775   2.170   1.674  13.108 -0.2213 -0.3003  0.4205
  116CHL1   H4A14776   2.118   1.772  13.118  0.0668  0.1949 -2.2317
  116CHL1   H4B14777   2.250   1.678  13.185  0.3616 -0.0326 -0.1868
  116CHL1    C514778   2.232   1.663  12.968  0.1019  0.2793 -0.4323
  116CHL1    C614779   2.366   1.670  12.946  0.5246  0.4502 -0.1188
  116CHL1    H614780   2.432   1.680  13.034  0.6972 -2.4532  0.2078
  116CHL1    C714781   2.431   1.645  12.812 -1.0600  0.2236  0.1770
  116CHL1   H7A14782   2.523   1.707  12.803 -0.8109 -0.2011 -0.2540
  116CHL1   H7B14783   2.475   1.543  12.805  1.9957  1.4561  0.0862
  116CHL1    C814784   2.330   1.677  12.697 -0.0804  1.1817  0.7747
  116CHL1    H814785   2.303   1.784  12.679  0.6135  1.0500 -1.3202
  116CHL1   C1414786   2.394   1.641  12.560  0.2676  0.1758 -0.0739
  116CHL1   H1414787   2.432   1.537  12.568 -2.3065 -0.9319 -1.0687
  116CHL1   C1514788   2.512   1.730  12.515 -0.5819  0.5475  0.5745
  116CHL1  H15A14789   2.502   1.840  12.523  1.6709  0.8093  0.3611
  116CHL1  H15B14790   2.605   1.705  12.570 -1.2115 -0.0347  1.4024
  116CHL1   C1614791   2.515   1.701  12.364 -0.6456 -0.9437 -0.3911
  116CHL1  H16A14792   2.515   1.801  12.316  0.7137 -0.1329  1.1981
  116CHL1  H16B14793   2.606   1.642  12.339  1.4280  2.3518 -1.2318
  116CHL1   C1714794   2.391   1.615  12.319 -0.3600 -0.8045  0.2559
  116CHL1   H1714795   2.421   1.508  12.317  0.1695 -0.6594  0.3390
  116CHL1   C1314796   2.297   1.643  12.439  0.3666  0.1982  0.6814
  116CHL1   C1814797   2.237   1.784  12.423  0.6033  0.0140  0.0782
  116CHL1  H18A14798   2.303   1.846  12.358 -0.3146  0.0547 -0.8595
  116CHL1  H18B14799   2.145   1.777  12.360  0.5463 -1.2271  0.2831
  116CHL1  H18C14800   2.207   1.827  12.521 -1.1093  1.0751 -0.8578
  116CHL1   C1214801   2.188   1.535  12.474  0.5095 -0.0129 -0.0986
  116CHL1  H12A14802   2.110   1.538  12.396  1.4044  2.0841 -0.9875
  116CHL1  H12B14803   2.235   1.434  12.474 -2.3529 -1.4621 -1.4774
  116CHL1   C1114804   2.109   1.572  12.602 -0.3100  0.6407 -0.1912
  116CHL1  H11A14805   2.047   1.662  12.578  1.9761  2.2046 -0.5094
  116CHL1  H11B14806   2.044   1.487  12.633  0.1281  0.5733  0.5633
  116CHL1    C914807   2.202   1.589  12.726  0.6028 -0.8159  0.0134
  116CHL1    H914808   2.243   1.487  12.747  0.8366 -0.5621  0.8186
  116CHL1   C1014809   2.130   1.642  12.855  0.9711 -0.0843 -0.5160
  116CHL1   C1914810   2.070   1.781  12.821  0.0383 -0.6539 -0.1367
  116CHL1  H19A14811   1.997   1.771  12.737  1.1737 -1.7630 -1.0485
  116CHL1  H19B14812   2.025   1.823  12.913  0.2901  0.5479 -0.5492
  116CHL1  H19C14813   2.146   1.855  12.788 -1.0569  0.0366 -1.1689
  116CHL1    C114814   2.018   1.538  12.897 -0.0295 -0.1195 -0.4122
  116CHL1   H1A14815   1.943   1.548  12.815 -0.8433  0.0290  0.3332
  116CHL1   H1B14816   2.059   1.437  12.879  0.2982  0.2605 -1.9180
  116CHL1    C214817   1.959   1.563  13.034 -0.4669 -0.4256  0.4112
  116CHL1   H2A14818   1.883   1.485  13.054  0.1474 -1.1685 -0.0439
  116CHL1   H2B14819   1.908   1.661  13.032  0.2466 -0.0487 -1.6469
  116CHL1   C2014820   2.345   1.634  12.175 -0.1281 -0.3523 -0.4875
  116CHL1   H2014821   2.298   1.735  12.175  0.5458 -0.0137 -1.7305
  116CHL1   C2114822   2.236   1.527  12.153  0.5824  0.6378  0.5346
  116CHL1  H21A14823   2.211   1.542  12.046  0.8100 -1.7215  0.0920
  116CHL1  H21B14824   2.143   1.558  12.205  0.7373 -1.0149  1.8872
  116CHL1  H21C14825   2.260   1.421  12.179  0.1600  0.4495  0.1716
  116CHL1   C2214826   2.452   1.629  12.069  0.4432  0.5622 -0.2783
  116CHL1  H22A14827   2.540   1.681  12.113  1.3401  0.1417 -1.5109
  116CHL1  H22B14828   2.487   1.525  12.050  0.5223  0.6948 -0.9026
  116CHL1   C2314829   2.419   1.699  11.931 -0.3730  0.1344  0.2377
  116CHL1  H23A14830   2.333   1.647  11.883 -0.1371  0.5309 -0.6391
  116CHL1  H23B14831   2.399   1.808  11.931  1.8387  0.6144 -1.2757
  116CHL1   C2414832   2.547   1.681  11.837 -0.5250 -0.0635 -0.2952
  116CHL1  H24A14833   2.614   1.763  11.872  0.7648 -1.0084 -0.5166
  116CHL1  H24B14834   2.603   1.586  11.849  0.6083  0.6795  0.5944
  116CHL1   C2514835   2.519   1.709  11.694  0.2453  0.3107  0.2210
  116CHL1   H2514836   2.449   1.795  11.688 -0.4000 -0.1963  0.3115
  116CHL1   C2614837   2.650   1.737  11.617 -0.3271  0.3275 -0.0804
  116CHL1  H26A14838   2.731   1.668  11.649 -0.8192 -0.3860 -0.3519
  116CHL1  H26B14839   2.633   1.731  11.507  1.3692  0.9771 -0.4151
  116CHL1  H26C14840   2.688   1.837  11.647  2.1402 -0.0743 -1.6614
  116CHL1   C2714841   2.443   1.597  11.610  0.1078 -0.7495 -0.3213
  116CHL1  H27A14842   2.349   1.576  11.666  0.9335 -0.2028  1.3488
  116CHL1  H27B14843   2.437   1.624  11.503 -0.5953 -3.1937 -0.9737
  116CHL1  H27C14844   2.508   1.507  11.621 -0.2140 -0.7169  2.8999
  117CHL1    C314845   4.282   2.036  13.076  0.0770  0.2796  0.1819
  117CHL1    H314846   4.276   2.143  13.046 -3.0170  0.6986  1.8512
  117CHL1    O314847   4.260   2.026  13.210  0.1023 -0.0929 -0.0420
  117CHL1   H3'14848   4.272   1.933  13.230  1.3211  0.1959  0.6253
  117CHL1    C414849   4.158   1.968  13.015 -0.6387 -0.5836  0.8423
  117CHL1   H4A14850   4.132   1.867  13.053 -1.2459 -1.2403 -1.1494
  117CHL1   H4B14851   4.068   2.031  13.035  1.7916  2.8786  1.8125
  117CHL1    C514852   4.180   1.965  12.865  0.0644 -0.5104 -0.4523
  117CHL1    C614853   4.099   2.031  12.779 -0.3401  0.3664 -0.3574
  117CHL1    H614854   4.006   2.084  12.806 -1.3726  0.5144 -3.7371
  117CHL1    C714855   4.116   2.031  12.633  0.1271  0.1829 -0.6476
  117CHL1   H7A14856   4.019   2.017  12.581 -0.5505  0.8003  0.4070
  117CHL1   H7B14857   4.158   2.131  12.607  0.6826  1.1931  3.4192
  117CHL1    C814858   4.201   1.910  12.583  0.2427 -0.3473 -0.6924
  117CHL1    H814859   4.143   1.816  12.587 -1.1042  0.4467 -0.9588
  117CHL1   C1414860   4.234   1.930  12.434 -0.0239 -0.7790 -0.9880
  117CHL1   H1414861   4.291   2.025  12.425  1.7324 -1.5892  0.6726
  117CHL1   C1514862   4.115   1.932  12.334  0.5006 -0.3786  0.0521
  117CHL1  H15A14863   4.045   1.850  12.360 -2.1541  1.2095 -1.5750
  117CHL1  H15B14864   4.045   2.019  12.339 -0.8436 -1.4708  1.2233
  117CHL1   C1614865   4.190   1.916  12.196 -0.1399  0.1696  0.1753
  117CHL1  H16A14866   4.141   1.832  12.144  0.4547  1.0803 -1.9977
  117CHL1  H16B14867   4.166   2.012  12.145  3.8977  0.8298 -0.8337
  117CHL1   C1714868   4.335   1.876  12.230  0.1175  0.3647  0.2419
  117CHL1   H1714869   4.392   1.971  12.241 -0.0244  0.4423  0.3175
  117CHL1   C1314870   4.328   1.822  12.375  0.2666 -0.2802  0.4466
  117CHL1   C1814871   4.276   1.679  12.369  0.7304 -0.3778  0.2532
  117CHL1  H18A14872   4.202   1.669  12.287  1.3399 -0.3864 -0.2973
  117CHL1  H18B14873   4.350   1.605  12.333  0.9968  0.3911 -0.8261
  117CHL1  H18C14874   4.239   1.646  12.469 -1.0150  1.3447  0.2500
  117CHL1   C1214875   4.460   1.829  12.454  0.1972  1.0979  0.0509
  117CHL1  H12A14876   4.526   1.751  12.411 -0.7409  0.8379 -0.9824
  117CHL1  H12B14877   4.515   1.924  12.435 -2.7114  2.4857 -2.3675
  117CHL1   C1114878   4.435   1.802  12.602 -0.0599 -0.2281 -0.2841
  117CHL1  H11A14879   4.402   1.697  12.616  2.3581 -0.7981  2.0660
  117CHL1  H11B14880   4.525   1.809  12.666 -0.7551 -0.6287  0.7722
  117CHL1    C914881   4.332   1.902  12.664  0.1988  0.1053 -0.4575
  117CHL1    H914882   4.384   2.000  12.662  0.5367 -0.0784 -1.5445
  117CHL1   C1014883   4.308   1.889  12.820  0.0010  0.3296  0.1429
  117CHL1   C1914884   4.282   1.741  12.857  0.7192  0.1453 -0.1331
  117CHL1  H19A14885   4.203   1.698  12.792 -0.6515  0.9118  0.9918
  117CHL1  H19B14886   4.377   1.688  12.833  0.8540  1.1468 -2.0221
  117CHL1  H19C14887   4.252   1.723  12.962 -0.0269 -1.4583 -0.5951
  117CHL1    C114888   4.436   1.945  12.900  0.3647 -0.4126  0.3490
  117CHL1   H1A14889   4.524   1.880  12.879  0.6779  0.3775 -0.8698
  117CHL1   H1B14890   4.452   2.049  12.864  1.0172 -1.4990 -2.8169
  117CHL1    C214891   4.412   1.960  13.051  0.0025 -0.1794 -0.2147
  117CHL1   H2A14892   4.502   1.999  13.105 -0.6617 -1.4315  1.9001
  117CHL1   H2B14893   4.411   1.856  13.088  0.6765 -0.4220 -0.8527
  117CHL1   C2014894   4.406   1.794  12.123  0.3230 -0.0474  0.2078
  117CHL1   H2014895   4.398   1.684  12.139  0.6744  0.0833  1.4612
  117CHL1   C2114896   4.553   1.841  12.133 -0.0745  0.0683 -0.3520
  117CHL1  H21A14897   4.606   1.812  12.226 -0.8814 -0.3535 -0.0208
  117CHL1  H21B14898   4.565   1.952  12.128  1.7388 -0.0738  0.2397
  117CHL1  H21C14899   4.610   1.809  12.043  0.4567  0.9604 -0.3498
  117CHL1   C2214900   4.363   1.810  11.980  0.8556  0.3663  0.1123
  117CHL1  H22A14901   4.258   1.847  11.978 -0.0893 -1.9344  2.2393
  117CHL1  H22B14902   4.427   1.891  11.940  1.6937 -0.2877  0.1116
  117CHL1   C2314903   4.398   1.685  11.898  0.6415 -0.2543  0.4122
  117CHL1  H23A14904   4.502   1.664  11.930  1.0286  1.7418  0.6055
  117CHL1  H23B14905   4.338   1.599  11.936 -2.8917  2.0626  0.5385
  117CHL1   C2414906   4.379   1.688  11.749  0.4829  0.3195  0.7589
  117CHL1  H24A14907   4.399   1.583  11.720  1.9119  1.2845 -2.0863
  117CHL1  H24B14908   4.280   1.726  11.716  0.7144  0.0161 -0.3240
  117CHL1   C2514909   4.490   1.760  11.671  0.1555 -0.3041 -0.0658
  117CHL1   H2514910   4.487   1.723  11.566 -1.7793  0.4777 -0.3287
  117CHL1   C2614911   4.438   1.903  11.647  0.0051 -0.0330 -0.2133
  117CHL1  H26A14912   4.525   1.966  11.618  0.3921 -0.2416  0.4762
  117CHL1  H26B14913   4.352   1.910  11.578  1.1218 -1.7742 -1.9025
  117CHL1  H26C14914   4.402   1.955  11.738 -0.9128 -1.4279  0.2453
  117CHL1   C2714915   4.635   1.746  11.711  0.1803  0.0690 -0.1677
  117CHL1  H27A14916   4.657   1.638  11.730  0.7843  0.4980  1.7865
  117CHL1  H27B14917   4.697   1.794  11.633  0.0771 -0.0787 -0.3433
  117CHL1  H27C14918   4.665   1.801  11.802 -0.7815 -2.1110  1.5559
  118CHL1    C314919   6.511   3.147  13.129  0.5991  0.5210 -0.2045
  118CHL1    H314920   6.587   3.223  13.101 -0.6938  1.8210 -0.3255
  118CHL1    O314921   6.484   3.136  13.270  0.0676 -0.1164  0.1727
  118CHL1   H3'14922   6.403   3.085  13.270 -0.8767  1.3064 -0.7502
  118CHL1    C414923   6.386   3.195  13.055 -0.1267 -0.1645  0.7997
  118CHL1   H4A14924   6.302   3.141  13.103 -1.1293 -0.1745 -0.8969
  118CHL1   H4B14925   6.379   3.304  13.074 -0.7215  0.0960 -0.7231
  118CHL1    C514926   6.381   3.175  12.901 -0.6187  0.3896 -0.5849
  118CHL1    C614927   6.357   3.276  12.820  0.4507  0.7289  0.2764
  118CHL1    H614928   6.345   3.376  12.865 -2.5749  0.7180 -0.2810
  118CHL1    C714929   6.353   3.265  12.671 -0.2156 -0.4191 -0.2697
  118CHL1   H7A14930   6.278   3.325  12.614  1.1868  0.3204 -1.4092
  118CHL1   H7B14931   6.448   3.314  12.641 -0.0952  1.0742  2.2215
  118CHL1    C814932   6.358   3.125  12.619  0.1623  0.3454  0.3643
  118CHL1    H814933   6.255   3.088  12.639 -0.3271  2.3483  1.9172
  118CHL1   C1414934   6.392   3.120  12.473 -0.0988  0.8854  0.6598
  118CHL1   H1414935   6.499   3.144  12.457  0.0742 -0.6734 -0.7884
  118CHL1   C1514936   6.314   3.212  12.374  0.4269  0.3842  0.1812
  118CHL1  H15A14937   6.205   3.198  12.386  0.7377 -1.1964  1.4121
  118CHL1  H15B14938   6.328   3.322  12.380 -1.7090  0.6492  1.3582
  118CHL1   C1614939   6.356   3.150  12.241  0.2633  0.2167 -0.1125
  118CHL1  H16A14940   6.271   3.144  12.170 -0.2473 -0.3180  0.5380
  118CHL1  H16B14941   6.435   3.211  12.191 -2.1810  3.1726 -0.6606
  118CHL1   C1714942   6.404   3.006  12.267 -0.8677 -0.7330  0.4717
  118CHL1   H1714943   6.514   3.022  12.266 -1.0707  1.3819  2.3947
  118CHL1   C1314944   6.382   2.982  12.417 -0.3686  0.5409  0.0345
  118CHL1   C1814945   6.234   2.928  12.434  0.1621  0.4980  0.1049
  118CHL1  H18A14946   6.159   2.985  12.376  0.4518  0.4375 -0.3370
  118CHL1  H18B14947   6.230   2.828  12.386 -0.4098  0.1095  0.9387
  118CHL1  H18C14948   6.207   2.922  12.542  2.2129  1.3775  0.7416
  118CHL1   C1214949   6.486   2.892  12.492 -0.5913 -0.3916  0.1860
  118CHL1  H12A14950   6.473   2.785  12.465 -0.2791 -0.0106 -1.5820
  118CHL1  H12B14951   6.588   2.932  12.477 -0.6884  0.6294  1.9910
  118CHL1   C1114952   6.470   2.894  12.648  0.3528 -0.5241  1.0701
  118CHL1  H11A14953   6.377   2.834  12.658 -0.4975 -0.2352 -3.2603
  118CHL1  H11B14954   6.559   2.837  12.685  0.1461 -1.9498 -0.4865
  118CHL1    C914955   6.456   3.037  12.697  0.5302  0.3810 -0.3931
  118CHL1    H914956   6.551   3.095  12.691  1.6216 -1.3308 -0.4091
  118CHL1   C1014957   6.426   3.033  12.851  0.1397 -0.4498  0.1330
  118CHL1   C1914958   6.310   2.934  12.880 -0.1951  0.3713  0.3347
  118CHL1  H19A14959   6.356   2.833  12.879 -1.8000 -0.3953 -0.7494
  118CHL1  H19B14960   6.265   2.956  12.979  0.8523  0.1127  0.8824
  118CHL1  H19C14961   6.241   2.943  12.793  1.6289 -1.8335 -1.4792
  118CHL1    C114962   6.553   2.996  12.926 -0.4060 -0.0947  0.0218
  118CHL1   H1A14963   6.574   2.889  12.905 -1.4803 -0.2569 -0.2927
  118CHL1   H1B14964   6.638   3.062  12.897 -0.0625  0.4312  2.0644
  118CHL1    C214965   6.548   3.005  13.083  0.0243 -0.2689  0.8209
  118CHL1   H2A14966   6.644   2.980  13.134  0.5881 -1.5343 -0.7498
  118CHL1   H2B14967   6.472   2.933  13.120 -0.9145 -0.1267 -0.7153
  118CHL1   C2014968   6.366   2.900  12.169 -0.2206  0.8342 -0.0757
  118CHL1   H2014969   6.255   2.895  12.180 -0.0692 -1.1532  1.0764
  118CHL1   C2114970   6.419   2.761  12.196  0.0127  0.4043  0.1069
  118CHL1  H21A14971   6.525   2.738  12.219 -0.3249  0.2241  1.6376
  118CHL1  H21B14972   6.386   2.685  12.123 -1.9387 -1.1079  2.4165
  118CHL1  H21C14973   6.364   2.723  12.285 -2.6998  0.6819 -1.3455
  118CHL1   C2214974   6.393   2.932  12.017 -0.7988  0.6521  0.3354
  118CHL1  H22A14975   6.384   3.042  12.005  1.2742  1.1582  2.5321
  118CHL1  H22B14976   6.501   2.916  11.993 -1.0168 -0.0863 -0.2102
  118CHL1   C2314977   6.304   2.872  11.907 -0.1595  0.4536  0.3599
  118CHL1  H23A14978   6.307   2.761  11.903  2.1531  0.5131 -1.9439
  118CHL1  H23B14979   6.200   2.910  11.918 -0.2038  0.3453  0.3204
  118CHL1   C2414980   6.365   2.912  11.772  0.2419 -0.7119  0.1432
  118CHL1  H24A14981   6.385   3.021  11.778 -1.0230 -0.4448 -0.0946
  118CHL1  H24B14982   6.461   2.858  11.757  0.0810 -1.4632  1.6260
  118CHL1   C2514983   6.276   2.893  11.641  0.3318  0.6015  0.1058
  118CHL1   H2514984   6.268   2.785  11.620 -1.5493  0.8113 -0.5069
  118CHL1   C2614985   6.131   2.945  11.664  0.2687 -0.2536  0.3090
  118CHL1  H26A14986   6.124   3.048  11.706 -1.5335 -0.1506 -0.1401
  118CHL1  H26B14987   6.083   2.951  11.563 -0.8636 -2.0294  0.7000
  118CHL1  H26C14988   6.067   2.874  11.720 -1.9876  2.0525  0.8784
  118CHL1   C2714989   6.338   2.955  11.512 -0.1035 -0.0487  0.6759
  118CHL1  H27A14990   6.438   2.922  11.476  1.0824  3.1125  0.7623
  118CHL1  H27B14991   6.265   2.946  11.428  1.2023  1.2446 -0.6461
  118CHL1  H27C14992   6.354   3.062  11.537  1.1616 -0.5391  2.0892
  119CHL1    C314993   0.503   2.275  13.199 -0.0861  0.7075 -0.0861
  119CHL1    H314994   0.395   2.246  13.202  0.6125 -2.0988  1.9301
  119CHL1    O314995   0.541   2.292  13.336  0.0830  0.2181  0.4875
  119CHL1   H3'14996   0.603   2.222  13.355 -1.0768 -0.6851  1.0977
  119CHL1    C414997   0.597   2.168  13.134 -0.3028 -0.2646  0.6361
  119CHL1   H4A14998   0.697   2.215  13.123  0.0164 -1.5042 -3.4881
  119CHL1   H4B14999   0.612   2.073  13.189  1.4996  0.2852  1.1557
  119CHL1    C515000   0.551   2.138  12.991 -0.0319 -0.3656  0.1293
  119CHL1    C615001   0.532   2.014  12.946  0.0424 -0.7322 -0.4004
  119CHL1    H615002   0.523   1.927  13.013 -0.9007 -0.8071 -0.5970
  119CHL1    C715003   0.525   1.980  12.796 -0.0693  0.4340 -0.3044
  119CHL1   H7A15004   0.599   1.907  12.758 -1.3685 -1.5065  0.7609
  119CHL1   H7B15005   0.428   1.928  12.780  0.5501 -0.8633  0.0071
  119CHL1    C815006   0.540   2.112  12.709  0.1093 -0.7418  0.4182
  119CHL1    H815007   0.649   2.124  12.692 -0.1922 -0.0760 -1.2885
  119CHL1   C1415008   0.483   2.093  12.574  0.1607  0.0632 -0.5908
  119CHL1   H1415009   0.377   2.064  12.588  0.1816  0.2767  0.0657
  119CHL1   C1515010   0.527   1.972  12.488 -0.7797  0.5884 -0.6333
  119CHL1  H15A15011   0.636   1.953  12.476 -1.0387 -1.3532 -0.2421
  119CHL1  H15B15012   0.486   1.880  12.533 -1.5171  1.4951  0.5989
  119CHL1   C1615013   0.475   2.004  12.347  0.3518  0.1462  0.0320
  119CHL1  H16A15014   0.559   1.995  12.275 -0.5514 -0.1399 -1.0124
  119CHL1  H16B15015   0.393   1.936  12.317 -2.4463  1.9292  2.8833
  119CHL1   C1715016   0.441   2.153  12.345 -0.0386  0.3963  0.5553
  119CHL1   H1715017   0.332   2.159  12.365  0.0275 -1.1723  1.6062
  119CHL1   C1315018   0.504   2.207  12.472  0.0311 -0.6262  0.7284
  119CHL1   C1815019   0.650   2.231  12.445  0.2169  0.8751 -0.2274
  119CHL1  H18A15020   0.714   2.234  12.536 -0.8744  1.4631  0.5520
  119CHL1  H18B15021   0.694   2.157  12.375  0.5956  1.0259 -0.1530
  119CHL1  H18C15022   0.656   2.327  12.389  0.1692  2.7846  2.8038
  119CHL1   C1215023   0.441   2.334  12.533  0.7166 -0.5861  0.2193
  119CHL1  H12A15024   0.466   2.413  12.459  1.2248 -2.2471 -1.4568
  119CHL1  H12B15025   0.331   2.335  12.543  0.7018  1.3228  0.1088
  119CHL1   C1115026   0.505   2.366  12.662  0.3077  0.4643  0.8959
  119CHL1  H11A15027   0.608   2.404  12.648  0.1334  0.8812  0.7406
  119CHL1  H11B15028   0.444   2.444  12.711 -0.4866 -0.1865  0.9694
  119CHL1    C915029   0.492   2.243  12.766  0.2046  0.6146  0.0712
  119CHL1    H915030   0.384   2.235  12.793  0.7260  0.9876  2.4420
  119CHL1   C1015031   0.554   2.269  12.904 -0.5181  0.3614 -0.3861
  119CHL1   C1915032   0.698   2.320  12.884 -0.4486 -0.3572 -0.0840
  119CHL1  H19A15033   0.747   2.344  12.981  2.3069  0.0800 -1.4928
  119CHL1  H19B15034   0.765   2.260  12.819 -0.4425 -0.0250 -0.3870
  119CHL1  H19C15035   0.686   2.415  12.828 -1.1303  0.0315  0.6884
  119CHL1    C115036   0.466   2.376  12.976 -0.1526 -0.2705 -0.4482
  119CHL1   H1A15037   0.475   2.474  12.923  0.5007 -0.0620  0.0420
  119CHL1   H1B15038   0.361   2.340  12.970 -0.0016 -0.6449 -0.8816
  119CHL1    C215039   0.505   2.408  13.117 -0.3982  0.3914 -0.0921
  119CHL1   H2A15040   0.435   2.489  13.147 -0.6895  0.9884 -2.2386
  119CHL1   H2B15041   0.603   2.458  13.109 -1.7570  2.9071 -3.2670
  119CHL1   C2015042   0.458   2.217  12.209 -0.9774  0.6377  0.4211
  119CHL1   H2015043   0.568   2.221  12.193 -0.9943  2.8501  0.5955
  119CHL1   C2115044   0.413   2.366  12.213 -0.0338 -0.6130  0.1692
  119CHL1  H21A15045   0.478   2.434  12.272 -1.4270  0.0859  0.9564
  119CHL1  H21B15046   0.307   2.373  12.247 -0.6312 -1.2826 -1.4295
  119CHL1  H21C15047   0.424   2.398  12.107  0.2746  0.1403  0.4254
  119CHL1   C2215048   0.394   2.140  12.093  0.1232  0.1631  0.4186
  119CHL1  H22A15049   0.427   2.034  12.095 -0.9297 -0.1885 -0.1223
  119CHL1  H22B15050   0.286   2.147  12.115 -0.0523  1.9074 -0.8660
  119CHL1   C2315051   0.420   2.193  11.954 -0.2091 -0.0434  0.8182
  119CHL1  H23A15052   0.355   2.131  11.889  1.3145  0.2631 -1.0996
  119CHL1  H23B15053   0.368   2.290  11.941 -0.1743 -0.0760  0.4150
  119CHL1   C2415054   0.563   2.196  11.900 -0.2892 -0.4410  0.0445
  119CHL1  H24A15055   0.615   2.266  11.968  2.0465  0.1298 -2.1866
  119CHL1  H24B15056   0.621   2.102  11.912  2.5569  1.4685  2.5149
  119CHL1   C2515057   0.571   2.243  11.757  0.4071  0.5740  0.7074
  119CHL1   H2515058   0.511   2.176  11.692  0.1815  2.6060 -1.3080
  119CHL1   C2615059   0.515   2.382  11.731 -0.0902 -0.1231 -0.3158
  119CHL1  H26A15060   0.577   2.459  11.781 -0.6838  0.0960  0.0957
  119CHL1  H26B15061   0.516   2.403  11.622 -0.5398  2.2427  0.0978
  119CHL1  H26C15062   0.412   2.399  11.769 -0.6395 -1.3760 -1.1457
  119CHL1   C2715063   0.721   2.248  11.715 -1.0425 -0.2191  0.1407
  119CHL1  H27A15064   0.778   2.309  11.789  1.4467 -0.4191 -1.4765
  119CHL1  H27B15065   0.769   2.149  11.708  0.0151  0.1874  1.3038
  119CHL1  H27C15066   0.733   2.303  11.619  0.7613 -0.8912 -0.0587
  120CHL1    C315067   5.970   2.558  13.023  0.7250 -0.0250 -0.9016
  120CHL1    H315068   5.861   2.579  13.019  0.7900  0.7446  0.5820
  120CHL1    O315069   6.006   2.560  13.160  0.4808 -0.0349  0.5922
  120CHL1   H3'15070   6.037   2.473  13.185  0.0606  0.1476  1.8593
  120CHL1    C415071   6.006   2.422  12.973  0.5511  0.3285  0.1122
  120CHL1   H4A15072   6.112   2.402  13.000  0.3657  0.5896  1.0675
  120CHL1   H4B15073   5.943   2.356  13.036  0.8596  0.2395  0.3298
  120CHL1    C515074   5.986   2.419  12.816 -0.6438  0.7043 -0.5610
  120CHL1    C615075   5.910   2.319  12.766 -0.6442 -0.4263  0.3307
  120CHL1    H615076   5.856   2.247  12.829 -1.3865  0.0565  0.2581
  120CHL1    C715077   5.891   2.304  12.617 -0.7069  0.1958  0.4823
  120CHL1   H7A15078   5.907   2.196  12.595  0.8320  0.7497 -1.4126
  120CHL1   H7B15079   5.786   2.314  12.583 -1.1014 -3.9699 -0.0084
  120CHL1    C815080   5.990   2.388  12.527  0.3697  0.3488  0.5674
  120CHL1    H815081   6.096   2.356  12.531  1.5711  3.9388  1.2953
  120CHL1   C1415082   5.941   2.401  12.382  0.1917  0.0937  0.1538
  120CHL1   H1415083   5.848   2.461  12.387  1.0795  1.4562  0.7690
  120CHL1   C1515084   5.913   2.277  12.300  0.1571  0.1172 -0.3058
  120CHL1  H15A15085   5.988   2.197  12.316 -0.0191 -0.1619 -0.8337
  120CHL1  H15B15086   5.818   2.232  12.335  0.6703  0.0946  1.0891
  120CHL1   C1615087   5.909   2.317  12.150 -0.6036 -0.7410  0.7650
  120CHL1  H16A15088   5.991   2.267  12.094 -0.1670  0.4057  0.3359
  120CHL1  H16B15089   5.810   2.304  12.102 -0.0391  0.6781 -0.9181
  120CHL1   C1715090   5.949   2.470  12.151  0.0810 -0.6132  0.4302
  120CHL1   H1715091   5.850   2.520  12.158  0.3632 -0.0861  0.7552
  120CHL1   C1315092   6.013   2.497  12.288 -0.5700  0.2894  0.8407
  120CHL1   C1815093   6.156   2.453  12.278 -0.2649 -0.0811  0.0294
  120CHL1  H18A15094   6.157   2.342  12.270 -4.3968 -0.2572 -0.1188
  120CHL1  H18B15095   6.218   2.504  12.201 -1.7076  1.6149 -0.0807
  120CHL1  H18C15096   6.211   2.471  12.373 -1.9789 -0.7165  1.1917
  120CHL1   C1215097   6.001   2.642  12.343 -0.1400 -0.1760  0.5648
  120CHL1  H12A15098   6.051   2.720  12.281 -0.4707 -1.5051 -1.4670
  120CHL1  H12B15099   5.893   2.667  12.335 -0.1481 -0.5574 -0.7673
  120CHL1   C1115100   6.050   2.646  12.493  0.4701 -0.1601 -0.3276
  120CHL1  H11A15101   6.158   2.631  12.470  0.0780 -0.7800 -1.9164
  120CHL1  H11B15102   6.045   2.742  12.549 -2.2438 -0.3779 -0.0743
  120CHL1    C915103   5.989   2.534  12.584  0.1456  0.5626 -0.3565
  120CHL1    H915104   5.879   2.551  12.585 -0.4656 -2.7979 -0.1414
  120CHL1   C1015105   6.047   2.537  12.727  0.0764 -0.2857  0.1367
  120CHL1   C1915106   6.200   2.528  12.721 -0.0096  0.2419 -0.1703
  120CHL1  H19A15107   6.229   2.432  12.673 -1.5586  0.0319 -0.7351
  120CHL1  H19B15108   6.237   2.625  12.681 -0.6941  0.7146  0.3093
  120CHL1  H19C15109   6.231   2.530  12.828  0.9849  3.1980 -0.4322
  120CHL1    C115110   6.010   2.673  12.803 -0.0615  0.7949  0.4941
  120CHL1   H1A15111   6.070   2.757  12.762 -0.1068  0.5334 -0.1237
  120CHL1   H1B15112   5.903   2.691  12.779 -0.2013 -0.3855  0.1528
  120CHL1    C215113   6.044   2.669  12.956 -0.1516 -0.7353  0.1285
  120CHL1   H2A15114   6.015   2.763  13.006 -1.3482 -1.7931  1.5300
  120CHL1   H2B15115   6.153   2.658  12.974  0.0242 -0.7999 -0.9236
  120CHL1   C2015116   6.025   2.512  12.020  0.6681  0.5996 -0.4125
  120CHL1   H2015117   6.121   2.456  12.015  0.9704  1.1795 -1.4277
  120CHL1   C2115118   6.047   2.665  12.022  0.2414  0.6356 -0.2322
  120CHL1  H21A15119   6.067   2.700  11.918  1.1722 -1.3734 -0.7746
  120CHL1  H21B15120   6.130   2.691  12.090 -0.2735 -0.3876  0.8139
  120CHL1  H21C15121   5.959   2.724  12.056 -1.2616 -2.8006  2.5293
  120CHL1   C2215122   5.955   2.463  11.885  0.0783 -0.6990  0.0285
  120CHL1  H22A15123   6.022   2.480  11.798  1.4600 -0.8320  1.0387
  120CHL1  H22B15124   5.936   2.354  11.890  0.0572 -0.6436  1.7356
  120CHL1   C2315125   5.817   2.526  11.861  0.0350 -0.0254 -0.3162
  120CHL1  H23A15126   5.749   2.467  11.926  2.9400 -2.8195  0.4272
  120CHL1  H23B15127   5.805   2.633  11.890 -1.0568 -0.3421  0.4353
  120CHL1   C2415128   5.760   2.502  11.723 -0.1105 -0.0369 -0.9812
  120CHL1  H24A15129   5.749   2.393  11.706  0.1525 -0.2795  0.2802
  120CHL1  H24B15130   5.659   2.546  11.718  0.0077  0.2480 -0.8722
  120CHL1   C2515131   5.856   2.541  11.606 -0.3716  0.1792 -0.1567
  120CHL1   H2515132   5.953   2.488  11.610  0.3655  1.5352  0.8315
  120CHL1   C2615133   5.781   2.525  11.470 -1.1658  0.9437 -0.5080
  120CHL1  H26A15134   5.846   2.549  11.383 -3.0204  0.8485 -1.9852
  120CHL1  H26B15135   5.750   2.420  11.450 -0.3628  0.9689 -2.0567
  120CHL1  H26C15136   5.700   2.600  11.461 -2.2579  0.0374  1.2593
  120CHL1   C2715137   5.898   2.697  11.613 -0.2283  0.4164  0.0892
  120CHL1  H27A15138   5.988   2.707  11.548  1.4660 -1.0257  2.0519
  120CHL1  H27B15139   5.828   2.771  11.569  1.5181  1.3163 -1.3114
  120CHL1  H27C15140   5.938   2.723  11.713 -0.1377 -1.0556  0.4615
  121CHL1    C315141   4.263   4.947   9.280 -0.1898 -0.3435 -0.1904
  121CHL1    H315142   4.152   4.959   9.281 -0.3250 -1.5334  0.4797
  121CHL1    O315143   4.291   4.938   9.144 -0.0101  0.0784  0.0472
  121CHL1   H3'15144   4.376   4.895   9.139  0.5988  1.3264 -1.2385
  121CHL1    C415145   4.328   5.080   9.338 -0.1721  0.5986 -0.0982
  121CHL1   H4A15146   4.435   5.051   9.329 -0.1147 -1.4807  4.5629
  121CHL1   H4B15147   4.293   5.163   9.272 -0.7272 -1.6858 -2.8706
  121CHL1    C515148   4.302   5.094   9.482 -0.5460 -0.3153 -1.0210
  121CHL1    C615149   4.251   5.208   9.534 -0.0967  0.6416  0.4436
  121CHL1    H615150   4.235   5.298   9.472 -1.1571  0.0693 -0.1290
  121CHL1    C715151   4.238   5.237   9.683 -0.0521  0.5593  0.0990
  121CHL1   H7A15152   4.291   5.325   9.725 -0.2867  0.4984  0.5344
  121CHL1   H7B15153   4.129   5.260   9.690 -0.5513 -1.1308 -1.2636
  121CHL1    C815154   4.288   5.123   9.776 -0.1469 -0.3495  0.0986
  121CHL1    H815155   4.395   5.153   9.788 -0.5181  1.3197 -0.4408
  121CHL1   C1415156   4.206   5.125   9.910  0.3533  0.3592 -0.6233
  121CHL1   H1415157   4.109   5.080   9.883  0.0607 -0.8137  2.0950
  121CHL1   C1515158   4.186   5.255   9.978  0.1822 -0.2060 -0.1852
  121CHL1  H15A15159   4.284   5.305   9.990 -0.0918  0.6070 -1.1663
  121CHL1  H15B15160   4.108   5.327   9.945  1.1761  0.5191 -1.0048
  121CHL1   C1615161   4.152   5.214  10.124 -1.2191  0.3183  0.0960
  121CHL1  H16A15162   4.225   5.253  10.198 -1.6950 -1.4934  1.6073
  121CHL1  H16B15163   4.048   5.237  10.156 -1.1979  0.2265  0.2273
  121CHL1   C1715164   4.164   5.063  10.129 -0.5358  0.0517  0.4476
  121CHL1   H1715165   4.066   5.027  10.091 -0.7481  0.6798  0.3859
  121CHL1   C1315166   4.263   5.036  10.019  0.7325 -0.6145  0.2621
  121CHL1   C1815167   4.412   5.080  10.054 -0.4054 -0.1170  0.0076
  121CHL1  H18A15168   4.477   5.058   9.967 -0.9055 -1.6156 -0.0248
  121CHL1  H18B15169   4.420   5.185  10.090 -3.4481  0.0972  0.3123
  121CHL1  H18C15170   4.441   5.011  10.136 -2.4103 -2.4936 -1.1189
  121CHL1   C1215171   4.257   4.894   9.954  0.2512 -0.2134 -0.3911
  121CHL1  H12A15172   4.306   4.818  10.018  1.2510  0.2957 -0.5311
  121CHL1  H12B15173   4.152   4.864   9.932  0.3051  1.0222 -2.7378
  121CHL1   C1115174   4.334   4.884   9.819 -0.2208 -0.3270  0.0308
  121CHL1  H11A15175   4.442   4.898   9.844  0.1826  0.3394 -1.9077
  121CHL1  H11B15176   4.307   4.782   9.782 -1.7461  0.4082 -0.9605
  121CHL1    C915177   4.277   4.988   9.716  0.2988  0.5372  0.0009
  121CHL1    H915178   4.166   4.974   9.716  0.4304 -0.6841 -1.2804
  121CHL1   C1015179   4.331   4.970   9.572  1.0853 -0.1692 -0.3431
  121CHL1   C1915180   4.488   4.960   9.582  0.3307  0.2486  0.2756
  121CHL1  H19A15181   4.510   4.865   9.636 -0.1600 -0.0812 -0.1021
  121CHL1  H19B15182   4.540   4.970   9.484  0.4811  0.5397  0.3807
  121CHL1  H19C15183   4.520   5.046   9.645  0.3486  0.0567  0.5270
  121CHL1    C115184   4.256   4.848   9.507 -0.4967 -0.5133 -0.3346
  121CHL1   H1A15185   4.291   4.753   9.552  1.6422 -0.1514 -1.1204
  121CHL1   H1B15186   4.147   4.867   9.517 -0.4706  0.8877 -2.1102
  121CHL1    C215187   4.303   4.823   9.362 -0.5517 -0.1599 -0.0032
  121CHL1   H2A15188   4.251   4.732   9.324 -3.5549  0.8970  1.2491
  121CHL1   H2B15189   4.412   4.806   9.349 -0.5286  0.6441 -0.9362
  121CHL1   C2015190   4.192   5.004  10.265 -0.5109 -0.2527  0.8063
  121CHL1   H2015191   4.283   5.056  10.301  2.0689 -2.2722 -2.2620
  121CHL1   C2115192   4.226   4.857  10.264 -0.2868  0.0450 -0.0069
  121CHL1  H21A15193   4.234   4.812  10.365  0.8136  0.5603  0.1462
  121CHL1  H21B15194   4.326   4.841  10.218 -0.3301 -2.0760  0.5032
  121CHL1  H21C15195   4.145   4.794  10.221 -0.7268 -0.5513  1.6274
  121CHL1   C2215196   4.075   5.037  10.371  0.2773  0.8973  0.0449
  121CHL1  H22A15197   4.072   5.148  10.371  0.8845  0.9266 -0.5511
  121CHL1  H22B15198   3.985   4.981  10.337  1.5879 -1.0431 -0.3988
  121CHL1   C2315199   4.119   4.994  10.512  0.4741 -0.1251  0.2761
  121CHL1  H23A15200   4.111   4.883  10.522  0.2437 -0.1910 -0.6423
  121CHL1  H23B15201   4.222   5.024  10.543 -0.3974  2.3675  0.9443
  121CHL1   C2415202   4.013   5.065  10.600  0.3118 -0.1071 -0.4595
  121CHL1  H24A15203   4.012   5.174  10.581  1.6415 -0.0606 -0.3599
  121CHL1  H24B15204   3.913   5.023  10.575 -1.3211  3.4842 -0.5960
  121CHL1   C2515205   4.040   5.037  10.749  0.2752  0.4827 -0.4158
  121CHL1   H2515206   4.051   4.927  10.758 -1.5472  0.3088  0.2753
  121CHL1   C2615207   4.166   5.103  10.794 -0.0715 -0.1247  0.2446
  121CHL1  H26A15208   4.255   5.090  10.730 -0.0482  0.6106  0.1136
  121CHL1  H26B15209   4.150   5.213  10.803 -0.8863 -0.3855  2.6546
  121CHL1  H26C15210   4.198   5.051  10.887 -1.3578 -1.6025 -0.1108
  121CHL1   C2715211   3.921   5.089  10.830 -0.4253 -0.6107  0.0239
  121CHL1  H27A15212   3.834   5.024  10.807 -0.2503 -0.9883  0.4192
  121CHL1  H27B15213   3.934   5.083  10.940  0.3643 -0.8176 -0.0771
  121CHL1  H27C15214   3.889   5.190  10.795 -0.4570 -0.2245  1.1327
  122CHL1    C315215   3.322   5.298   8.859 -0.4005 -0.1198  0.1996
  122CHL1    H315216   3.346   5.191   8.880 -1.1817 -0.2422  0.4832
  122CHL1    O315217   3.315   5.315   8.717 -0.6775  0.4534 -0.4257
  122CHL1   H3'15218   3.334   5.405   8.693  0.8375  0.2482 -0.0843
  122CHL1    C415219   3.185   5.338   8.920  0.8288  0.1609 -0.2251
  122CHL1   H4A15220   3.161   5.443   8.896 -1.8308 -0.3021  0.1405
  122CHL1   H4B15221   3.108   5.273   8.874  0.8057 -1.0361  1.4156
  122CHL1    C515222   3.189   5.319   9.076  0.6174 -0.0736  0.5548
  122CHL1    C615223   3.117   5.230   9.134 -0.3238 -0.7215  0.3753
  122CHL1    H615224   3.046   5.173   9.073  0.9423 -1.8517 -0.0863
  122CHL1    C715225   3.115   5.202   9.282  0.4803 -0.6927  0.0143
  122CHL1   H7A15226   3.012   5.178   9.316 -0.0742  1.3019 -0.1106
  122CHL1   H7B15227   3.179   5.112   9.290  0.3652 -0.6498  1.7193
  122CHL1    C815228   3.180   5.320   9.363 -0.8741 -0.0552  0.2223
  122CHL1    H815229   3.116   5.410   9.368  0.8621  1.1863  1.2473
  122CHL1   C1415230   3.211   5.262   9.508 -0.3402  0.0053 -0.4318
  122CHL1   H1415231   3.285   5.180   9.504  1.7202  1.7961 -0.5225
  122CHL1   C1515232   3.098   5.204   9.590 -0.4409  0.8010 -0.7391
  122CHL1  H15A15233   3.004   5.263   9.588 -1.1259 -0.2726 -1.1882
  122CHL1  H15B15234   3.067   5.104   9.554  1.6763  0.3786 -1.5795
  122CHL1   C1615235   3.148   5.205   9.737  0.2134 -0.9301 -0.1014
  122CHL1  H16A15236   3.081   5.263   9.804  0.8031  0.1969 -0.4615
  122CHL1  H16B15237   3.149   5.109   9.792 -2.1671 -0.2476  1.2634
  122CHL1   C1715238   3.290   5.267   9.734 -0.4229 -0.7680 -0.1190
  122CHL1   H1715239   3.366   5.190   9.711  0.1570 -0.0845 -0.5267
  122CHL1   C1315240   3.289   5.353   9.602  0.6547 -0.0183 -0.0334
  122CHL1   C1815241   3.213   5.487   9.628 -0.1740  0.0117  0.2108
  122CHL1  H18A15242   3.186   5.532   9.530  1.1693  1.5636  0.5043
  122CHL1  H18B15243   3.127   5.467   9.695  0.1787  1.1625  1.0392
  122CHL1  H18C15244   3.282   5.559   9.677 -1.8193  2.3641 -0.7158
  122CHL1   C1215245   3.429   5.386   9.530  0.1897 -0.0263  0.1074
  122CHL1  H12A15246   3.491   5.460   9.585  2.0042 -2.7528  2.0138
  122CHL1  H12B15247   3.489   5.293   9.543  1.0886  0.4413 -0.5820
  122CHL1   C1115248   3.409   5.447   9.387  0.8156  0.0524  0.2358
  122CHL1  H11A15249   3.360   5.547   9.389  1.2384  0.2851  3.5655
  122CHL1  H11B15250   3.508   5.468   9.341 -0.2315  1.6423 -1.4181
  122CHL1    C915251   3.317   5.353   9.296  0.4104  0.2609  0.1645
  122CHL1    H915252   3.371   5.256   9.290  0.1059  0.1199 -0.3823
  122CHL1   C1015253   3.298   5.395   9.149  0.1173 -0.1169 -0.2839
  122CHL1   C1915254   3.263   5.545   9.149 -0.2688 -0.2379  0.5929
  122CHL1  H19A15255   3.245   5.580   9.045 -0.0993 -0.9463  0.3172
  122CHL1  H19B15256   3.174   5.566   9.212 -2.2173 -0.0878 -2.0368
  122CHL1  H19C15257   3.343   5.617   9.180 -1.0258  1.0588 -0.3814
  122CHL1    C115258   3.437   5.375   9.077 -0.0085  0.2434  0.1684
  122CHL1   H1A15259   3.507   5.457   9.102  1.0548 -0.9672  1.2810
  122CHL1   H1B15260   3.490   5.283   9.108 -0.2364 -0.7533 -2.1973
  122CHL1    C215261   3.432   5.389   8.917 -0.7511 -0.2669  0.6009
  122CHL1   H2A15262   3.533   5.362   8.880 -0.1532  1.0670  1.1800
  122CHL1   H2B15263   3.410   5.491   8.880 -0.3673 -0.1805  0.6061
  122CHL1   C2015264   3.324   5.339   9.866 -0.1518  0.7047 -0.4642
  122CHL1   H2015265   3.260   5.429   9.874 -1.0008 -0.0060  1.2182
  122CHL1   C2115266   3.467   5.398   9.854  0.6111  0.2831  0.3862
  122CHL1  H21A15267   3.465   5.481   9.781 -2.7319 -0.8717 -1.0677
  122CHL1  H21B15268   3.537   5.319   9.820  1.0402  1.1701 -0.8690
  122CHL1  H21C15269   3.502   5.449   9.946 -0.9642  0.8043  0.7303
  122CHL1   C2215270   3.301   5.245   9.993 -0.2849 -0.1164  0.8493
  122CHL1  H22A15271   3.200   5.198   9.999  0.7765 -2.3389  2.7899
  122CHL1  H22B15272   3.370   5.158   9.988 -0.8010 -0.5470  1.1029
  122CHL1   C2315273   3.321   5.328  10.113  0.6875 -0.2092  0.3806
  122CHL1  H23A15274   3.426   5.361  10.129 -0.1426  1.8507  2.1311
  122CHL1  H23B15275   3.276   5.428  10.098  2.6636  0.6654  0.0452
  122CHL1   C2415276   3.276   5.258  10.249  0.6474 -0.2625  0.3026
  122CHL1  H24A15277   3.185   5.198  10.227  0.2632  1.2294 -2.6914
  122CHL1  H24B15278   3.360   5.202  10.294  2.0787  2.1642  0.8257
  122CHL1   C2515279   3.237   5.360  10.351  0.3848 -0.4171 -0.4514
  122CHL1   H2515280   3.158   5.426  10.309  1.1820  1.2609  0.5944
  122CHL1   C2615281   3.175   5.297  10.474 -0.3812  0.0277 -0.1277
  122CHL1  H26A15282   3.245   5.220  10.512 -2.6835 -2.3593 -0.4243
  122CHL1  H26B15283   3.170   5.381  10.545 -0.7209  0.1516 -0.2958
  122CHL1  H26C15284   3.079   5.244  10.456 -0.4975  0.5507 -1.1373
  122CHL1   C2715285   3.347   5.455  10.391  0.0924 -0.6121  0.3796
  122CHL1  H27A15286   3.306   5.530  10.461 -2.2904 -0.7967 -0.7208
  122CHL1  H27B15287   3.426   5.396  10.443  1.8421  1.1666 -0.1114
  122CHL1  H27C15288   3.386   5.517  10.307  0.5395 -0.8752  0.3851
  123CHL1    C315289   5.383   5.694   9.308  0.9901 -0.4672  0.9296
  123CHL1    H315290   5.453   5.775   9.336  1.3511 -0.5918  0.4102
  123CHL1    O315291   5.368   5.667   9.171 -0.0608 -0.1621  0.0937
  123CHL1   H3'15292   5.413   5.583   9.160 -1.4434 -1.1251  1.3270
  123CHL1    C415293   5.414   5.566   9.377  0.0360  0.0281 -0.0945
  123CHL1   H4A15294   5.348   5.483   9.343 -1.2003  1.5695 -1.6313
  123CHL1   H4B15295   5.511   5.523   9.343 -1.0025 -1.0271 -1.8932
  123CHL1    C515296   5.411   5.563   9.526  0.0152  0.0660 -0.5043
  123CHL1    C615297   5.517   5.527   9.605 -0.2037 -0.6073 -0.2176
  123CHL1    H615298   5.613   5.500   9.560 -0.1939  0.7590 -1.0643
  123CHL1    C715299   5.510   5.519   9.755 -0.9364  0.1973 -0.0700
  123CHL1   H7A15300   5.555   5.426   9.795 -0.5515  0.1052 -0.7037
  123CHL1   H7B15301   5.557   5.607   9.804 -0.0028  0.7762 -1.9096
  123CHL1    C815302   5.359   5.528   9.799 -0.4741  0.4041 -0.4318
  123CHL1    H815303   5.312   5.430   9.774  0.4317  0.3596 -2.1028
  123CHL1   C1415304   5.357   5.552   9.951  0.0308  0.3689  0.0156
  123CHL1   H1415305   5.408   5.650   9.960  1.0904 -0.1714 -0.0254
  123CHL1   C1515306   5.439   5.461  10.044  0.2339 -0.4105  0.5084
  123CHL1  H15A15307   5.419   5.356  10.012 -1.3540 -0.7496  2.3676
  123CHL1  H15B15308   5.546   5.490  10.038  0.1592  0.6192  2.9839
  123CHL1   C1615309   5.385   5.500  10.184 -0.1311 -0.2831  0.0639
  123CHL1  H16A15310   5.367   5.407  10.242 -1.2683 -0.1557 -0.0707
  123CHL1  H16B15311   5.453   5.567  10.241 -1.4188 -0.2093  1.5969
  123CHL1   C1715312   5.258   5.573  10.164  0.4532  0.4640  0.1581
  123CHL1   H1715313   5.263   5.681  10.189  0.1601  0.1584  1.6366
  123CHL1   C1315314   5.223   5.566  10.013 -0.2848 -0.2408  0.3267
  123CHL1   C1815315   5.146   5.430   9.994 -0.2235  0.7293 -0.2535
  123CHL1  H18A15316   5.183   5.359  10.071  1.0508  0.9887 -0.6108
  123CHL1  H18B15317   5.038   5.452  10.009 -0.3623  0.4917 -0.9002
  123CHL1  H18C15318   5.152   5.374   9.899 -1.4313  1.3397 -0.7042
  123CHL1   C1215319   5.159   5.681   9.939  0.4894  0.1009 -0.1473
  123CHL1  H12A15320   5.066   5.703   9.996  0.6174 -0.6422  0.3622
  123CHL1  H12B15321   5.227   5.768   9.943  0.2744  0.3196 -1.0110
  123CHL1   C1115322   5.146   5.658   9.792 -0.2158  0.3071 -0.3547
  123CHL1  H11A15323   5.082   5.571   9.767 -1.0934  1.3251 -1.7869
  123CHL1  H11B15324   5.097   5.741   9.737 -0.3339 -0.4876 -1.4849
  123CHL1    C915325   5.276   5.632   9.727  0.3500  0.1720 -1.0840
  123CHL1    H915326   5.337   5.723   9.747  1.5656 -0.4066 -2.0552
  123CHL1   C1015327   5.277   5.608   9.575  0.0761 -0.0679 -0.3538
  123CHL1   C1915328   5.175   5.498   9.534  0.0157  0.2626  0.1009
  123CHL1  H19A15329   5.188   5.441   9.439 -0.7043 -1.0301  0.7541
  123CHL1  H19B15330   5.180   5.421   9.613  3.6190  0.3743  0.1668
  123CHL1  H19C15331   5.070   5.531   9.523 -0.4611 -0.4255  2.2083
  123CHL1    C115332   5.236   5.738   9.504 -0.3504  0.4364 -0.9093
  123CHL1   H1A15333   5.129   5.765   9.520 -0.1832 -0.2655  2.0041
  123CHL1   H1B15334   5.308   5.811   9.547  1.6162 -0.5124 -2.4117
  123CHL1    C215335   5.241   5.737   9.349  0.2120 -0.4088 -0.2274
  123CHL1   H2A15336   5.226   5.840   9.309 -1.0931 -1.3795 -2.3861
  123CHL1   H2B15337   5.164   5.673   9.300 -1.0744  1.7481 -1.1655
  123CHL1   C2015338   5.148   5.532  10.265  0.0902  0.6990 -0.7031
  123CHL1   H2015339   5.116   5.427  10.249  2.9735 -0.5417  0.8440
  123CHL1   C2115340   5.020   5.614  10.239  0.0800 -0.0231  0.4565
  123CHL1  H21A15341   4.943   5.599  10.318 -1.8625  0.8918 -1.1580
  123CHL1  H21B15342   4.973   5.577  10.146  0.2078  0.0611  0.3572
  123CHL1  H21C15343   5.028   5.725  10.232 -1.0357  0.2001  2.0789
  123CHL1   C2215344   5.196   5.539  10.411  0.4588 -0.3317 -0.3495
  123CHL1  H22A15345   5.270   5.458  10.430  0.3405 -0.2313  0.6242
  123CHL1  H22B15346   5.237   5.638  10.441 -1.4752  0.1996  0.6970
  123CHL1   C2315347   5.087   5.502  10.527 -0.1844  0.0661  0.3585
  123CHL1  H23A15348   4.988   5.549  10.509 -0.3061 -0.3416 -0.0451
  123CHL1  H23B15349   5.079   5.393  10.510 -0.7600 -0.1993  2.1932
  123CHL1   C2415350   5.135   5.518  10.669 -0.3462 -0.2446 -0.3762
  123CHL1  H24A15351   5.227   5.458  10.687  0.7322  0.9028 -1.7779
  123CHL1  H24B15352   5.159   5.623  10.697 -0.9419 -0.0437 -0.5970
  123CHL1   C2515353   5.028   5.459  10.768 -0.0896 -0.5987 -0.3736
  123CHL1   H2515354   4.927   5.482  10.726  0.3915 -1.3599 -2.0371
  123CHL1   C2615355   5.035   5.307  10.770  0.2887  0.0288  0.4091
  123CHL1  H26A15356   5.135   5.266  10.798 -0.6312 -1.8970  1.0542
  123CHL1  H26B15357   4.979   5.277  10.861  1.0119 -1.6039  0.3579
  123CHL1  H26C15358   4.996   5.255  10.680 -2.1133 -1.1492  2.0118
  123CHL1   C2715359   5.042   5.521  10.908  0.5050  0.5247  0.9139
  123CHL1  H27A15360   5.136   5.484  10.954  0.4501  0.1938  0.7622
  123CHL1  H27B15361   5.038   5.631  10.889  0.3034  0.2546 -0.7728
  123CHL1  H27C15362   4.952   5.490  10.965 -1.7076 -0.8111 -2.9613
  124CHL1    C315363   3.574   6.252   9.045 -0.5724  0.2442  0.0181
  124CHL1    H315364   3.530   6.151   9.058 -0.9124  0.1598 -1.6210
  124CHL1    O315365   3.601   6.281   8.908  0.3411  0.0481 -0.2816
  124CHL1   H3'15366   3.509   6.276   8.879 -0.0349  0.8348  0.7412
  124CHL1    C415367   3.474   6.347   9.117  0.2971 -0.9526  0.5030
  124CHL1   H4A15368   3.503   6.449   9.086 -0.1481 -0.8388  0.4492
  124CHL1   H4B15369   3.374   6.319   9.076  0.3028 -0.8487  0.4180
  124CHL1    C515370   3.464   6.343   9.268 -0.4469  0.5415  0.0478
  124CHL1    C615371   3.349   6.326   9.337  0.6867 -0.5622 -0.1185
  124CHL1    H615372   3.262   6.304   9.273  1.1826  0.1483 -1.0603
  124CHL1    C715373   3.328   6.319   9.489 -0.1027 -0.4745  0.3396
  124CHL1   H7A15374   3.245   6.391   9.508 -0.7961 -1.5117  1.4076
  124CHL1   H7B15375   3.296   6.220   9.528 -1.6836 -0.1901 -0.1515
  124CHL1    C815376   3.453   6.363   9.564 -0.5984 -0.0559  0.2652
  124CHL1    H815377   3.468   6.473   9.572  0.9950 -0.1103 -1.3019
  124CHL1   C1415378   3.445   6.325   9.704 -0.2357  0.0516  0.0447
  124CHL1   H1415379   3.431   6.215   9.714  0.2311  0.1751  2.6521
  124CHL1   C1515380   3.331   6.387   9.794  0.1457  0.3869  0.2025
  124CHL1  H15A15381   3.330   6.496   9.770 -0.8277  0.0283 -1.5454
  124CHL1  H15B15382   3.230   6.349   9.768  0.3039  0.3394 -0.3415
  124CHL1   C1615383   3.370   6.371   9.944  0.3310  0.1526 -0.3782
  124CHL1  H16A15384   3.365   6.468   9.998  0.5586  0.5799 -1.1110
  124CHL1  H16B15385   3.299   6.308  10.001  1.7667 -0.7636  0.4911
  124CHL1   C1715386   3.516   6.311   9.938  0.3029 -0.7525  0.3748
  124CHL1   H1715387   3.494   6.202   9.934 -1.6021 -0.4544  1.7518
  124CHL1   C1315388   3.568   6.356   9.795 -0.1384 -0.2266  0.2417
  124CHL1   C1815389   3.592   6.512   9.803  0.6240  0.2097  0.6102
  124CHL1  H18A15390   3.600   6.537   9.695  1.5413 -3.9479 -0.4981
  124CHL1  H18B15391   3.508   6.567   9.851 -0.3841 -0.0995 -0.7438
  124CHL1  H18C15392   3.682   6.532   9.865  0.1170 -2.5143  2.4093
  124CHL1   C1215393   3.687   6.293   9.729 -0.0399  0.3563 -0.1539
  124CHL1  H12A15394   3.790   6.312   9.768  1.0976 -1.2782 -2.0973
  124CHL1  H12B15395   3.678   6.183   9.714  2.1268  0.1882 -0.5665
  124CHL1   C1115396   3.704   6.335   9.582  0.1175 -0.1926  0.7632
  124CHL1  H11A15397   3.721   6.445   9.581 -0.0962 -0.1559  1.1107
  124CHL1  H11B15398   3.793   6.288   9.536 -1.0868  0.0062 -1.9770
  124CHL1    C915399   3.579   6.306   9.498 -0.1343 -0.5657  0.0752
  124CHL1    H915400   3.576   6.195   9.504  0.6013 -0.5178  2.5371
  124CHL1   C1015401   3.595   6.352   9.345 -0.4593  0.6571 -0.3104
  124CHL1   C1915402   3.654   6.495   9.331  0.6815 -0.5795 -0.4093
  124CHL1  H19A15403   3.591   6.554   9.401  0.2580 -1.6302  0.1295
  124CHL1  H19B15404   3.761   6.492   9.361  0.4656  2.4659  1.0203
  124CHL1  H19C15405   3.659   6.537   9.228  1.6866  1.4549  0.4211
  124CHL1    C115406   3.692   6.252   9.281 -0.1082 -0.0130 -0.2737
  124CHL1   H1A15407   3.792   6.254   9.330  0.2880 -0.2679 -1.0465
  124CHL1   H1B15408   3.650   6.150   9.294 -1.8091  0.7428  0.4059
  124CHL1    C215409   3.710   6.265   9.121 -0.2856 -0.5677  0.3096
  124CHL1   H2A15410   3.775   6.184   9.080  1.9998  1.2692  0.0709
  124CHL1   H2B15411   3.757   6.363   9.095 -1.8834  0.3198  0.6186
  124CHL1   C2015412   3.602   6.338  10.058  0.8368 -0.0284 -0.0585
  124CHL1   H2015413   3.649   6.438  10.052 -0.1873  0.4469 -0.4557
  124CHL1   C2115414   3.704   6.230  10.061 -0.2086  0.3582 -0.1338
  124CHL1  H21A15415   3.779   6.239  10.142  0.2486 -2.1056 -0.1841
  124CHL1  H21B15416   3.767   6.223   9.970  1.2053 -0.6976  0.8836
  124CHL1  H21C15417   3.653   6.131  10.070 -0.1863  0.4889  1.6815
  124CHL1   C2215418   3.520   6.323  10.189  0.6405  0.5584  0.5247
  124CHL1  H22A15419   3.446   6.406  10.186 -2.5304 -1.9337  2.6865
  124CHL1  H22B15420   3.465   6.227  10.201  0.1641  0.5583 -1.3839
  124CHL1   C2315421   3.612   6.348  10.312 -0.5369  0.0427 -0.2967
  124CHL1  H23A15422   3.669   6.256  10.337  0.7667  1.1310  0.9642
  124CHL1  H23B15423   3.688   6.425  10.287 -0.0077 -0.5200 -0.4338
  124CHL1   C2415424   3.536   6.382  10.437  0.2050 -0.5859 -0.0483
  124CHL1  H24A15425   3.501   6.486  10.420  0.1984 -1.0164 -3.2004
  124CHL1  H24B15426   3.457   6.304  10.439  0.7329 -1.1272  1.4022
  124CHL1   C2515427   3.628   6.385  10.562  0.3182  0.0970 -0.1060
  124CHL1   H2515428   3.658   6.281  10.586  0.7216  0.2043 -0.1389
  124CHL1   C2615429   3.751   6.474  10.547  0.3458  0.6597 -0.4016
  124CHL1  H26A15430   3.720   6.579  10.530 -1.8626  0.3472  1.2785
  124CHL1  H26B15431   3.810   6.484  10.641 -0.2747  3.0470 -0.1876
  124CHL1  H26C15432   3.818   6.447  10.463  1.2221 -0.6745  0.6918
  124CHL1   C2715433   3.555   6.429  10.692  0.1958  0.3382  0.3058
  124CHL1  H27A15434   3.619   6.428  10.782 -0.8499 -2.5569  1.1375
  124CHL1  H27B15435   3.527   6.536  10.678  0.8844  0.2698 -2.1997
  124CHL1  H27C15436   3.458   6.376  10.707 -0.4395  1.4441  0.2413
  125CHL1    C315437   3.695   0.301   8.851 -0.0994 -0.4347 -0.3288
  125CHL1    H315438   3.644   0.397   8.874  1.7345  0.6503 -0.5559
  125CHL1    O315439   3.692   0.282   8.706 -0.1006  0.2140 -0.7691
  125CHL1   H3'15440   3.603   0.254   8.685  0.4420 -1.9160 -0.4603
  125CHL1    C415441   3.843   0.315   8.900  0.2298 -0.4510  0.1507
  125CHL1   H4A15442   3.917   0.238   8.869  0.2964  0.2970 -1.6859
  125CHL1   H4B15443   3.874   0.410   8.850 -2.2277 -0.4268 -1.5325
  125CHL1    C515444   3.851   0.338   9.049  0.7220  0.8973  0.5048
  125CHL1    C615445   3.916   0.443   9.098 -0.1125  0.7632  0.2841
  125CHL1    H615446   3.961   0.524   9.038 -0.4227  0.8702  0.1924
  125CHL1    C715447   3.952   0.443   9.246  0.2476  0.3070 -0.2356
  125CHL1   H7A15448   4.061   0.458   9.260  0.5285 -1.8996  0.3816
  125CHL1   H7B15449   3.900   0.529   9.294 -0.0874 -1.2104  2.3115
  125CHL1    C815450   3.931   0.307   9.326  0.0341 -0.6713  0.1043
  125CHL1    H815451   4.019   0.242   9.305  0.6679 -0.2261  1.2350
  125CHL1   C1415452   3.940   0.337   9.474 -0.0713 -0.1280 -0.3186
  125CHL1   H1415453   3.865   0.415   9.501 -0.6478 -0.8023  0.0559
  125CHL1   C1515454   4.073   0.382   9.544  0.4331  0.2347  0.0381
  125CHL1  H15A15455   4.156   0.311   9.523  1.3715  1.8259 -2.1068
  125CHL1  H15B15456   4.099   0.483   9.506  2.1960 -0.0890  0.3142
  125CHL1   C1615457   4.033   0.374   9.692  0.2136 -0.6946  0.8580
  125CHL1  H16A15458   4.119   0.346   9.756 -0.7569 -0.8247  2.1486
  125CHL1  H16B15459   3.990   0.472   9.721  0.2070  0.4943 -2.6847
  125CHL1   C1715460   3.913   0.266   9.702 -0.3603  0.2824  0.0283
  125CHL1   H1715461   3.822   0.325   9.724  0.1247  0.7401  0.8389
  125CHL1   C1315462   3.883   0.219   9.556 -0.2951 -0.2094  0.1308
  125CHL1   C1815463   3.974   0.096   9.529  0.5350  0.1846 -0.1012
  125CHL1  H18A15464   3.976   0.049   9.428 -0.3433 -1.2931  0.5430
  125CHL1  H18B15465   4.074   0.107   9.576 -0.6075 -0.4047  2.6597
  125CHL1  H18C15466   3.942   0.017   9.600  1.5934  0.4662  0.6951
  125CHL1   C1215467   3.731   0.191   9.527  0.7479 -0.4107  0.1717
  125CHL1  H12A15468   3.691   0.106   9.587 -0.2480 -0.5924 -0.7078
  125CHL1  H12B15469   3.677   0.285   9.551  2.0096  0.4669 -0.3325
  125CHL1   C1115470   3.711   0.154   9.378 -0.0317 -0.4201 -0.5810
  125CHL1  H11A15471   3.742   0.048   9.361  1.8019 -0.0157 -0.0486
  125CHL1  H11B15472   3.604   0.170   9.353  0.4776  0.5940 -2.2575
  125CHL1    C915473   3.793   0.251   9.285  0.1708  0.3318  0.0216
  125CHL1    H915474   3.727   0.339   9.296  1.5290  1.1413  2.4240
  125CHL1   C1015475   3.793   0.219   9.135 -0.5437 -0.2853  0.4033
  125CHL1   C1915476   3.881   0.088   9.111  0.1116 -0.2637 -0.2591
  125CHL1  H19A15477   3.867   0.051   9.007  0.9888 -0.0432 -0.4611
  125CHL1  H19B15478   3.990   0.105   9.124 -0.2930  0.5035  2.9089
  125CHL1  H19C15479   3.845   0.011   9.183  2.4580 -0.2318  1.0256
  125CHL1    C115480   3.649   0.201   9.081  0.4526  0.2822 -0.2700
  125CHL1   H1A15481   3.606   0.107   9.121  0.1528  0.5905  0.1389
  125CHL1   H1B15482   3.571   0.275   9.110 -2.4274 -1.3105 -3.2204
  125CHL1    C215483   3.634   0.186   8.930  0.3781 -0.0836  0.1737
  125CHL1   H2A15484   3.528   0.181   8.897  0.4498 -1.3863  0.0925
  125CHL1   H2B15485   3.680   0.089   8.901 -1.0386 -0.8235  0.3274
  125CHL1   C2015486   3.931   0.160   9.815 -0.1537 -0.1242 -0.1972
  125CHL1   H2015487   4.021   0.101   9.786 -0.1217  0.1939 -0.7638
  125CHL1   C2115488   3.803   0.082   9.825  0.1205 -0.0127 -0.0437
  125CHL1  H21A15489   3.713   0.146   9.835  0.1228 -0.0164  0.0042
  125CHL1  H21B15490   3.788   0.021   9.916 -1.0873  0.8878  0.3753
  125CHL1  H21C15491   3.782   0.012   9.741 -0.7036 -1.0942  1.0275
  125CHL1   C2215492   3.959   0.215   9.956  0.6865 -0.0200 -0.2694
  125CHL1  H22A15493   3.980   0.133  10.027 -1.0517  1.3632  1.9767
  125CHL1  H22B15494   4.044   0.287   9.950  2.0650 -1.1136  3.4617
  125CHL1   C2315495   3.843   0.297  10.018 -0.3452 -0.2755 -0.0966
  125CHL1  H23A15496   3.787   0.361   9.946 -3.1865 -1.8395  0.5688
  125CHL1  H23B15497   3.760   0.233  10.055 -0.5196 -0.1908 -0.3393
  125CHL1   C2415498   3.895   0.384  10.127  0.6645  0.3075 -0.4042
  125CHL1  H24A15499   3.960   0.466  10.088  4.1019 -1.3586  1.3651
  125CHL1  H24B15500   3.812   0.438  10.178  0.3600  0.0607 -0.6404
  125CHL1   C2515501   3.954   0.313  10.250  0.2070  0.3632 -0.1073
  125CHL1   H2515502   4.027   0.240  10.209 -0.1349 -1.6225  2.6137
  125CHL1   C2615503   4.026   0.414  10.340 -0.2416  0.0726 -0.4782
  125CHL1  H26A15504   4.099   0.477  10.285  1.2393 -1.1081  0.0664
  125CHL1  H26B15505   3.957   0.488  10.387 -0.7624  0.2886 -1.5643
  125CHL1  H26C15506   4.090   0.356  10.410 -1.2906  0.2996  0.7133
  125CHL1   C2715507   3.846   0.232  10.320  0.1921 -0.0378  0.3454
  125CHL1  H27A15508   3.756   0.297  10.323 -1.3581 -2.0497 -0.0008
  125CHL1  H27B15509   3.819   0.141  10.261 -1.2917 -1.9536  3.6384
  125CHL1  H27C15510   3.869   0.217  10.428  1.0906  1.3650  0.3739
  126CHL1    C315511   1.944   5.316   9.792  0.8667  0.3220  0.0212
  126CHL1    H315512   2.012   5.403   9.801  0.0181  0.9765  0.2518
  126CHL1    O315513   1.927   5.284   9.658 -0.1850 -0.0326 -0.0371
  126CHL1   H3'15514   1.859   5.216   9.657 -0.1071 -0.1252 -1.8524
  126CHL1    C415515   2.001   5.193   9.861  0.0847  0.0441 -0.1972
  126CHL1   H4A15516   1.937   5.105   9.838 -0.5273  0.7511 -1.2699
  126CHL1   H4B15517   2.097   5.164   9.813  0.5297 -3.9086  2.5419
  126CHL1    C515518   2.021   5.216  10.009  0.5574  0.4235 -0.1199
  126CHL1    C615519   2.144   5.204  10.066  0.2862  0.0764  1.0427
  126CHL1    H615520   2.228   5.167  10.006 -1.3787 -1.6646 -0.3529
  126CHL1    C715521   2.173   5.223  10.211 -0.4803 -0.6121  0.2278
  126CHL1   H7A15522   2.233   5.138  10.251 -1.7507 -0.5682  2.4028
  126CHL1   H7B15523   2.219   5.322  10.233  0.9626 -1.4085  0.9643
  126CHL1    C815524   2.047   5.211  10.296  0.2408  0.5923 -0.3020
  126CHL1    H815525   1.998   5.111  10.301  1.2933  0.0876  0.3627
  126CHL1   C1415526   2.074   5.251  10.444  0.4163  0.4872  0.0022
  126CHL1   H1415527   2.113   5.355  10.442 -0.1832  0.7033 -0.6978
  126CHL1   C1515528   2.187   5.169  10.514  0.1981  0.3549 -0.4116
  126CHL1  H15A15529   2.182   5.060  10.496  1.0199  0.3133 -0.4501
  126CHL1  H15B15530   2.288   5.202  10.482 -0.1364 -0.4093 -2.4160
  126CHL1   C1615531   2.159   5.188  10.665  0.5792  0.4755 -0.8362
  126CHL1  H16A15532   2.149   5.090  10.716  1.4129  0.4250 -0.7564
  126CHL1  H16B15533   2.235   5.250  10.719 -0.7555  0.4354  1.1833
  126CHL1   C1715534   2.021   5.271  10.671  0.2349  0.1892  0.2505
  126CHL1   H1715535   2.054   5.375  10.653  3.7405 -1.2238 -2.8350
  126CHL1   C1315536   1.950   5.240  10.535 -0.3243 -0.4669  0.1383
  126CHL1   C1815537   1.886   5.093  10.530 -0.1067 -0.3436  0.6134
  126CHL1  H18A15538   1.959   5.019  10.570 -1.3120 -1.3609  0.9787
  126CHL1  H18B15539   1.802   5.087  10.602 -2.4963  1.9071 -1.7307
  126CHL1  H18C15540   1.850   5.061  10.430 -0.9161  0.3919  0.6592
  126CHL1   C1215541   1.849   5.337  10.482 -0.5921 -0.2144 -0.1406
  126CHL1  H12A15542   1.755   5.346  10.540 -0.1590  2.2130  0.3161
  126CHL1  H12B15543   1.898   5.437  10.485 -0.1952 -0.3722 -1.1464
  126CHL1   C1115544   1.827   5.319  10.327  0.1648  0.3067 -0.2027
  126CHL1  H11A15545   1.769   5.224  10.320  0.9589 -0.1484 -0.8607
  126CHL1  H11B15546   1.748   5.392  10.298 -1.3567  0.2837  3.3335
  126CHL1    C915547   1.943   5.302  10.230 -0.0302  0.5710 -0.5019
  126CHL1    H915548   1.980   5.407  10.220 -0.9830  0.9182 -0.4599
  126CHL1   C1015549   1.900   5.259  10.089 -0.1871 -0.0648 -0.6104
  126CHL1   C1915550   1.803   5.135  10.094  0.3599 -0.5433  0.6623
  126CHL1  H19A15551   1.751   5.119   9.997  0.2776  1.0932  0.4012
  126CHL1  H19B15552   1.846   5.041  10.134 -0.9277 -1.1262  0.7278
  126CHL1  H19C15553   1.709   5.154  10.151  0.0789 -0.5242  0.2040
  126CHL1    C115554   1.826   5.370  10.008  0.0339 -0.0051 -0.2815
  126CHL1   H1A15555   1.728   5.380  10.060 -0.1406  2.2815 -0.9390
  126CHL1   H1B15556   1.887   5.462  10.021 -0.5671  0.0897  2.5978
  126CHL1    C215557   1.804   5.344   9.858 -0.3349  0.1177  0.4913
  126CHL1   H2A15558   1.755   5.428   9.804 -0.5211 -0.3988 -0.1625
  126CHL1   H2B15559   1.748   5.249   9.844  1.6642 -1.1341  0.6954
  126CHL1   C2015560   1.948   5.244  10.804  0.4790  0.0742  0.1747
  126CHL1   H2015561   1.917   5.138  10.800  0.4292  0.0621  0.7886
  126CHL1   C2115562   1.828   5.331  10.809 -0.1334  0.2261 -0.2984
  126CHL1  H21A15563   1.830   5.433  10.763 -1.1312  0.2873 -0.2455
  126CHL1  H21B15564   1.807   5.353  10.916  1.0130 -0.4727  0.0737
  126CHL1  H21C15565   1.736   5.279  10.775  0.3287 -0.2602 -0.8114
  126CHL1   C2215566   2.036   5.266  10.929 -0.2036  0.5811 -0.6217
  126CHL1  H22A15567   1.963   5.238  11.008  1.0582 -2.4930 -0.3781
  126CHL1  H22B15568   2.123   5.196  10.923 -0.1656  0.7320 -2.6567
  126CHL1   C2315569   2.078   5.408  10.957  0.3265  0.4582 -0.0102
  126CHL1  H23A15570   2.158   5.428  10.883 -0.3415  1.9606 -0.3692
  126CHL1  H23B15571   1.994   5.480  10.945 -0.5833 -0.4067  0.9214
  126CHL1   C2415572   2.147   5.443  11.094  0.7600 -0.1105  0.7515
  126CHL1  H24A15573   2.179   5.549  11.088 -0.3968  0.2147 -0.1678
  126CHL1  H24B15574   2.071   5.429  11.174 -0.0078 -1.5099 -0.1772
  126CHL1   C2515575   2.272   5.361  11.119  0.2153 -0.2053  0.4610
  126CHL1   H2515576   2.239   5.256  11.110  1.3000 -0.3867 -2.4962
  126CHL1   C2615577   2.390   5.392  11.021 -0.0650  0.0766 -0.0260
  126CHL1  H26A15578   2.443   5.482  11.060  2.4000 -0.1008 -2.6041
  126CHL1  H26B15579   2.460   5.305  11.027  0.3981  0.3542 -1.0717
  126CHL1  H26C15580   2.371   5.402  10.912  2.3026 -1.4280 -0.6578
  126CHL1   C2715581   2.319   5.379  11.261 -0.0048 -0.0446 -0.5522
  126CHL1  H27A15582   2.409   5.318  11.287  1.0689  1.3068 -0.9703
  126CHL1  H27B15583   2.356   5.483  11.277  1.0636 -0.4685 -0.1130
  126CHL1  H27C15584   2.242   5.356  11.338 -1.2826 -1.5346 -2.1881
  127CHL1    C315585   2.663   0.936   9.543  0.0918 -0.6376 -0.3300
  127CHL1    H315586   2.684   1.044   9.525 -1.3645 -0.5187 -1.5563
  127CHL1    O315587   2.659   0.867   9.426  0.4098  0.4678  0.2556
  127CHL1   H3'15588   2.567   0.875   9.403  0.5821  0.4296 -0.4864
  127CHL1    C415589   2.779   0.880   9.631  0.1403  0.2315 -0.6190
  127CHL1   H4A15590   2.774   0.770   9.645 -2.3109  0.5037  1.4479
  127CHL1   H4B15591   2.878   0.903   9.586  0.5675 -1.3842 -0.5488
  127CHL1    C515592   2.772   0.948   9.763 -0.6694 -0.3862 -0.7443
  127CHL1    C615593   2.879   1.004   9.817 -0.3424 -0.3897 -0.3898
  127CHL1    H615594   2.973   0.999   9.760 -0.4380  1.9026 -0.8490
  127CHL1    C715595   2.881   1.062   9.955 -0.5195 -0.5064  0.0189
  127CHL1   H7A15596   2.970   1.021  10.008 -2.0839 -2.1629  1.4861
  127CHL1   H7B15597   2.895   1.171   9.944  0.2322 -0.7072 -1.3191
  127CHL1    C815598   2.761   1.025  10.039 -0.3129  0.0995 -0.0422
  127CHL1    H815599   2.774   0.921  10.074  0.3582 -0.8097 -2.7185
  127CHL1   C1415600   2.758   1.118  10.158 -0.6617 -0.2976 -0.1026
  127CHL1   H1415601   2.744   1.220  10.117 -1.0645 -1.5566 -3.3351
  127CHL1   C1515602   2.884   1.140  10.239  0.2127  0.3203  0.1041
  127CHL1  H15A15603   2.926   1.042  10.270 -1.1969 -0.3026  0.1153
  127CHL1  H15B15604   2.960   1.205  10.191  0.4555 -0.2399 -0.2849
  127CHL1   C1615605   2.825   1.213  10.366  0.3668 -0.0612 -0.6268
  127CHL1  H16A15606   2.883   1.166  10.448  0.9137  0.4185 -0.7322
  127CHL1  H16B15607   2.849   1.321  10.359  0.1676 -0.0666 -1.4942
  127CHL1   C1715608   2.664   1.200  10.360 -0.1270 -0.7267  0.4240
  127CHL1   H1715609   2.636   1.294  10.308  0.4699 -0.7899 -0.0278
  127CHL1   C1315610   2.642   1.089  10.256 -0.5038  0.1241  0.5482
  127CHL1   C1815611   2.660   0.957  10.326 -0.1370 -0.0693  0.2498
  127CHL1  H18A15612   2.765   0.932  10.353 -0.5670 -0.6259  1.4864
  127CHL1  H18B15613   2.586   0.944  10.408 -0.5379 -1.0750 -0.2611
  127CHL1  H18C15614   2.630   0.877  10.256 -0.3066 -0.6817  1.0025
  127CHL1   C1215615   2.506   1.102  10.182  0.0028  0.3822  0.3878
  127CHL1  H12A15616   2.421   1.071  10.247  0.2127  0.8545  0.8977
  127CHL1  H12B15617   2.497   1.209  10.155  1.5622  0.4641  0.1505
  127CHL1   C1115618   2.507   1.016  10.050  0.4200 -0.1626  0.5241
  127CHL1  H11A15619   2.495   0.910  10.082 -1.8120  0.1075  0.7586
  127CHL1  H11B15620   2.415   1.043   9.993  1.0046  1.4471  0.2859
  127CHL1    C915621   2.633   1.036   9.957  0.0582  0.4438  0.0817
  127CHL1    H915622   2.633   1.137   9.912  2.3306 -0.1884 -1.5118
  127CHL1   C1015623   2.635   0.943   9.837  0.0627 -0.0568 -0.3437
  127CHL1   C1915624   2.623   0.798   9.886  0.6237  0.5754  0.5068
  127CHL1  H19A15625   2.528   0.779   9.940 -0.0207  0.1232 -0.7562
  127CHL1  H19B15626   2.615   0.733   9.796  0.0090  0.1752  0.8417
  127CHL1  H19C15627   2.711   0.767   9.947 -0.1749  0.2828  1.5403
  127CHL1    C115628   2.519   0.978   9.753  0.2090 -0.0797 -0.1407
  127CHL1   H1A15629   2.419   0.947   9.792 -0.7841  1.2792 -1.4618
  127CHL1   H1B15630   2.516   1.089   9.743 -3.5619 -0.1065 -1.0003
  127CHL1    C215631   2.529   0.924   9.608 -0.1926  0.9486 -0.2480
  127CHL1   H2A15632   2.454   0.973   9.542 -0.2310 -1.6758 -2.2985
  127CHL1   H2B15633   2.496   0.818   9.615  2.4251  0.0111 -0.9445
  127CHL1   C2015634   2.592   1.204  10.496 -0.3785 -0.6081  0.4592
  127CHL1   H2015635   2.604   1.102  10.540  2.0186 -0.2568  0.7771
  127CHL1   C2115636   2.436   1.218  10.486 -0.3105  0.9225  0.7304
  127CHL1  H21A15637   2.395   1.215  10.589  1.6607 -0.1983  1.5562
  127CHL1  H21B15638   2.401   1.121  10.444 -0.2755 -0.1092  2.9394
  127CHL1  H21C15639   2.401   1.311  10.437  0.6484  0.8793 -0.0759
  127CHL1   C2215640   2.653   1.314  10.586  0.6765  0.3881  0.4022
  127CHL1  H22A15641   2.760   1.336  10.566  1.0436 -1.9711 -0.4777
  127CHL1  H22B15642   2.599   1.411  10.576  0.6848  0.6539  2.5086
  127CHL1   C2315643   2.632   1.281  10.737 -0.6446 -0.4198  0.7977
  127CHL1  H23A15644   2.662   1.371  10.795  1.5051 -0.1368 -0.6179
  127CHL1  H23B15645   2.527   1.255  10.760 -0.5194 -0.3835  1.4125
  127CHL1   C2415646   2.720   1.166  10.788  0.7335  0.3739  0.1265
  127CHL1  H24A15647   2.717   1.089  10.709  1.1530 -2.2028  2.4674
  127CHL1  H24B15648   2.828   1.189  10.802  0.7553 -0.7505  2.1760
  127CHL1   C2515649   2.668   1.115  10.918  0.1083  0.4801  0.9526
  127CHL1   H2515650   2.656   1.201  10.986  0.8511  0.9960  0.4503
  127CHL1   C2615651   2.529   1.048  10.895 -0.1077 -0.4465 -0.3722
  127CHL1  H26A15652   2.507   0.966  10.967  0.4813  0.5059  0.9343
  127CHL1  H26B15653   2.455   1.129  10.913 -0.8161 -1.1479 -0.0664
  127CHL1  H26C15654   2.503   1.020  10.791 -0.4165 -0.6315 -0.2468
  127CHL1   C2715655   2.760   1.006  10.971 -0.1244 -0.7897  0.7172
  127CHL1  H27A15656   2.793   0.930  10.897 -1.6703  0.9052 -1.8717
  127CHL1  H27B15657   2.854   1.053  11.008  0.4190 -0.3380 -1.1176
  127CHL1  H27C15658   2.705   0.963  11.057 -1.2609  2.0364  1.5159
  128CHL1    C315659   4.002   2.545   9.149 -0.4977 -0.9545  0.6121
  128CHL1    H315660   4.049   2.452   9.189  0.7409 -0.3886  0.5089
  128CHL1    O315661   4.010   2.550   9.004  0.9048  0.1589 -0.4868
  128CHL1   H3'15662   4.082   2.493   8.976  1.6096 -0.2490  1.9625
  128CHL1    C415663   3.865   2.573   9.196  0.0233  0.1793 -0.5698
  128CHL1   H4A15664   3.838   2.675   9.162 -0.8068 -0.3538 -1.5591
  128CHL1   H4B15665   3.797   2.496   9.154  0.1228  0.9503 -2.2316
  128CHL1    C515666   3.848   2.572   9.343 -0.2434  0.2192  0.0761
  128CHL1    C615667   3.751   2.497   9.394  0.3537  0.2467  0.2265
  128CHL1    H615668   3.678   2.446   9.329 -0.3849  1.8481 -0.2581
  128CHL1    C715669   3.733   2.494   9.542 -0.6135 -0.4281  0.0476
  128CHL1   H7A15670   3.629   2.519   9.573 -0.8268 -2.3958  1.0759
  128CHL1   H7B15671   3.755   2.393   9.581  0.9596 -0.6712 -1.3558
  128CHL1    C815672   3.815   2.599   9.624  0.5930 -0.6149 -0.3442
  128CHL1    H815673   3.758   2.694   9.614  1.8979  0.6843  2.9633
  128CHL1   C1415674   3.826   2.565   9.774  0.0880  0.4494 -0.1383
  128CHL1   H1415675   3.874   2.465   9.769 -4.2711 -1.8922  0.1840
  128CHL1   C1515676   3.699   2.519   9.846  0.3493 -0.5292 -0.1639
  128CHL1  H15A15677   3.627   2.603   9.836  1.1031  0.0715 -0.7094
  128CHL1  H15B15678   3.657   2.422   9.813  0.2602 -0.4479 -0.2924
  128CHL1   C1615679   3.749   2.518   9.991 -0.2403 -0.2531  0.5761
  128CHL1  H16A15680   3.676   2.585  10.042  0.3761 -1.1466  2.7349
  128CHL1  H16B15681   3.735   2.421  10.042 -0.1877 -0.3564  0.3928
  128CHL1   C1715682   3.889   2.578   9.999  0.2926  0.0814 -0.0096
  128CHL1   H1715683   3.954   2.489   9.985 -1.3490 -1.2739  0.5392
  128CHL1   C1315684   3.905   2.655   9.867 -0.5320  0.1477  1.4508
  128CHL1   C1815685   3.846   2.792   9.869  0.1557 -0.6778  0.3949
  128CHL1  H18A15686   3.898   2.859   9.941 -1.6427  1.3568 -0.0791
  128CHL1  H18B15687   3.842   2.844   9.771 -2.2187 -0.2741  0.6465
  128CHL1  H18C15688   3.740   2.790   9.904 -0.0268 -0.6650 -0.1491
  128CHL1   C1215689   4.049   2.648   9.809  0.3796 -0.0294 -0.1999
  128CHL1  H12A15690   4.099   2.728   9.868 -0.3463  0.8722 -0.7705
  128CHL1  H12B15691   4.096   2.547   9.813 -0.8433 -0.6036  1.7986
  128CHL1   C1115692   4.052   2.698   9.661  0.1485 -0.0199  0.6758
  128CHL1  H11A15693   4.026   2.806   9.655  0.6193  0.1967  2.0655
  128CHL1  H11B15694   4.152   2.684   9.614 -1.8184 -0.1645 -4.0273
  128CHL1    C915695   3.954   2.620   9.566 -0.5461 -0.6221  0.1982
  128CHL1    H915696   3.998   2.518   9.560  1.2093  0.1498 -0.9731
  128CHL1   C1015697   3.949   2.657   9.415 -0.1895  0.5303 -0.6350
  128CHL1   C1915698   3.902   2.813   9.402  0.2551  0.1866  0.1342
  128CHL1  H19A15699   3.821   2.844   9.472  0.0730  0.8745 -0.3721
  128CHL1  H19B15700   3.989   2.876   9.434 -0.0903  1.0249 -0.5565
  128CHL1  H19C15701   3.889   2.836   9.294 -1.6107  0.8957  0.4704
  128CHL1    C115702   4.091   2.650   9.357  0.4616 -0.3440 -0.0649
  128CHL1   H1A15703   4.150   2.734   9.401 -0.3332  0.1629  0.0529
  128CHL1   H1B15704   4.138   2.559   9.400  0.3924 -0.7609 -0.8451
  128CHL1    C215705   4.096   2.664   9.197 -0.1354 -0.0568 -0.2552
  128CHL1   H2A15706   4.197   2.645   9.157  0.2914  1.1510  0.2122
  128CHL1   H2B15707   4.067   2.763   9.155 -0.6398  0.8672  2.0664
  128CHL1   C2015708   3.918   2.646  10.133 -0.0164  0.1366 -0.0298
  128CHL1   H2015709   3.848   2.731  10.146 -0.0189 -0.0038  0.9483
  128CHL1   C2115710   4.053   2.705  10.146 -0.0258 -0.5391  1.1564
  128CHL1  H21A15711   4.076   2.772  10.060  0.4532 -0.0493  1.6568
  128CHL1  H21B15712   4.139   2.636  10.134 -0.0753 -0.1743 -2.8564
  128CHL1  H21C15713   4.064   2.761  10.241 -1.5545 -1.3160  1.8293
  128CHL1   C2215714   3.877   2.566  10.251 -0.3371  0.2405 -0.2129
  128CHL1  H22A15715   3.768   2.544  10.247 -0.5438  1.2600 -0.8258
  128CHL1  H22B15716   3.933   2.471  10.240 -0.1898 -0.1401  2.9396
  128CHL1   C2315717   3.902   2.619  10.393  0.3189  0.7501  0.3017
  128CHL1  H23A15718   4.012   2.631  10.405  0.3455  2.7431 -1.4557
  128CHL1  H23B15719   3.858   2.718  10.417 -0.8438  0.1687  0.6569
  128CHL1   C2415720   3.842   2.526  10.503 -0.4055  0.2631  0.6915
  128CHL1  H24A15721   3.737   2.492  10.494 -0.8799  1.1617  2.3772
  128CHL1  H24B15722   3.904   2.434  10.506 -0.2320  0.3354 -0.3840
  128CHL1   C2515723   3.828   2.595  10.633  0.4032 -0.2620  0.3538
  128CHL1   H2515724   3.913   2.661  10.659 -0.5067  0.6973  1.0089
  128CHL1   C2615725   3.686   2.653  10.662  0.5043  0.6011 -0.3803
  128CHL1  H26A15726   3.671   2.670  10.771  2.4927 -1.7055  0.3479
  128CHL1  H26B15727   3.687   2.747  10.603  2.1050  0.9154  0.0754
  128CHL1  H26C15728   3.614   2.577  10.627  0.1140  0.7091  0.1783
  128CHL1   C2715729   3.843   2.493  10.749  0.2598  0.6419  0.8454
  128CHL1  H27A15730   3.840   2.532  10.853 -1.2490 -0.6883  1.3321
  128CHL1  H27B15731   3.762   2.420  10.725 -2.6584  3.7666  0.4916
  128CHL1  H27C15732   3.943   2.445  10.734 -0.4035 -0.3097 -0.7513
  129CHL1    C315733   4.967   0.532   9.288 -0.3735  0.2504 -0.0656
  129CHL1    H315734   5.072   0.566   9.301 -0.3405  0.0098  0.3088
  129CHL1    O315735   4.942   0.546   9.152  0.3528  0.5842  0.6238
  129CHL1   H3'15736   4.854   0.508   9.144  0.1742  0.4560  2.6549
  129CHL1    C415737   4.958   0.387   9.328 -0.9781  0.1032  0.0660
  129CHL1   H4A15738   4.856   0.356   9.296 -0.9938  0.9218 -0.7167
  129CHL1   H4B15739   5.033   0.326   9.274 -0.8779  0.2108  0.0844
  129CHL1    C515740   4.985   0.367   9.479 -0.3118  0.7055  0.1410
  129CHL1    C615741   5.090   0.303   9.531 -0.6356  0.0588  0.9842
  129CHL1    H615742   5.163   0.262   9.461 -0.9001  0.8567  0.2256
  129CHL1    C715743   5.107   0.280   9.677  0.9356  1.1704  0.3998
  129CHL1   H7A15744   5.134   0.173   9.687 -0.4951  0.7916  0.4660
  129CHL1   H7B15745   5.187   0.342   9.722  0.7888  0.6229  1.4628
  129CHL1    C815746   4.975   0.305   9.758  0.8179  0.5337 -0.2750
  129CHL1    H815747   4.900   0.223   9.756 -0.1774  1.3265  1.4506
  129CHL1   C1415748   5.008   0.324   9.903  0.2583  0.1812 -0.2176
  129CHL1   H1415749   5.073   0.414   9.911  1.8289 -1.0252  2.0614
  129CHL1   C1515750   5.097   0.213   9.964  0.2362 -0.3947 -0.2491
  129CHL1  H15A15751   5.056   0.113   9.937 -0.1671 -0.6511  1.2547
  129CHL1  H15B15752   5.205   0.219   9.938 -0.2896  0.8343 -2.3736
  129CHL1   C1615753   5.086   0.246  10.121 -0.2603  0.2682  0.6164
  129CHL1  H16A15754   5.074   0.156  10.185 -1.4835  0.3618  0.5376
  129CHL1  H16B15755   5.186   0.290  10.143 -1.0237  2.2174  0.4015
  129CHL1   C1715756   4.979   0.360  10.136  0.2880 -0.0033 -0.1284
  129CHL1   H1715757   5.033   0.456  10.129  0.5323 -0.0294  1.1022
  129CHL1   C1315758   4.897   0.358  10.006  0.1709  0.7169  0.1712
  129CHL1   C1815759   4.796   0.245  10.008 -0.7556  0.8255 -0.5301
  129CHL1  H18A15760   4.765   0.233   9.902  1.7010  1.8256 -1.4308
  129CHL1  H18B15761   4.831   0.153  10.060  1.0613  1.4174 -0.6255
  129CHL1  H18C15762   4.703   0.277  10.060 -1.8224 -3.8301  0.9190
  129CHL1   C1215763   4.834   0.486   9.958 -0.0208  0.2387 -0.5861
  129CHL1  H12A15764   4.739   0.512  10.009 -1.4378  0.3197 -3.0934
  129CHL1  H12B15765   4.904   0.570   9.973  0.5006 -0.2483 -0.2766
  129CHL1   C1115766   4.800   0.483   9.809  0.1930 -0.7589 -0.3940
  129CHL1  H11A15767   4.707   0.424   9.796 -0.0682 -0.1862 -1.2271
  129CHL1  H11B15768   4.772   0.586   9.777 -1.9230 -0.7934  1.1376
  129CHL1    C915769   4.910   0.434   9.710  0.4176 -0.6212 -0.0079
  129CHL1    H915770   4.992   0.508   9.718  0.0867  0.1816 -2.9453
  129CHL1   C1015771   4.872   0.435   9.561 -0.2785 -0.3969  0.6731
  129CHL1   C1915772   4.740   0.364   9.539  0.2420  0.1506 -0.0253
  129CHL1  H19A15773   4.657   0.401   9.603  0.3687 -1.3042  1.0250
  129CHL1  H19B15774   4.703   0.374   9.434 -0.4716  2.1889  0.3740
  129CHL1  H19C15775   4.746   0.257   9.568  1.7362  0.3953  0.6424
  129CHL1    C115776   4.872   0.592   9.513  0.2450  0.7494  0.3031
  129CHL1   H1A15777   4.796   0.653   9.568 -0.5913  1.0273 -1.0976
  129CHL1   H1B15778   4.975   0.631   9.527  0.9085 -0.6022 -0.6781
  129CHL1    C215779   4.854   0.608   9.358 -0.4053  0.1403 -0.6470
  129CHL1   H2A15780   4.876   0.716   9.338  0.6647 -0.4418 -2.9754
  129CHL1   H2B15781   4.752   0.585   9.323 -0.0868 -0.1973 -1.3783
  129CHL1   C2015782   4.915   0.356  10.273  0.4178  0.2746  0.1934
  129CHL1   H2015783   4.870   0.257  10.295  0.8266 -0.2640 -1.2963
  129CHL1   C2115784   4.801   0.466  10.283 -0.5174 -0.0073 -0.2618
  129CHL1  H21A15785   4.717   0.454  10.212 -1.0634  0.8058  0.2319
  129CHL1  H21B15786   4.837   0.570  10.265 -2.3870  0.2788 -3.0301
  129CHL1  H21C15787   4.755   0.468  10.384 -0.6362 -1.2154 -0.2796
  129CHL1   C2215788   5.009   0.377  10.389  0.2877 -0.2865  0.1173
  129CHL1  H22A15789   5.095   0.310  10.370  0.6512 -0.0519  0.8812
  129CHL1  H22B15790   5.046   0.482  10.400 -0.0041 -0.0390 -1.1773
  129CHL1   C2315791   4.939   0.350  10.530 -0.1651 -0.1216  0.2660
  129CHL1  H23A15792   4.854   0.413  10.562 -1.1773 -1.7641  0.9607
  129CHL1  H23B15793   4.890   0.250  10.529 -0.3959 -0.1017  2.8650
  129CHL1   C2415794   5.049   0.350  10.638  0.4756  0.6439 -0.9365
  129CHL1  H24A15795   5.104   0.257  10.611 -2.5195 -1.2253 -1.0011
  129CHL1  H24B15796   5.109   0.443  10.621  1.0981  0.4748  0.2762
  129CHL1   C2515797   4.995   0.327  10.776  0.1270  0.3475  0.5030
  129CHL1   H2515798   4.926   0.240  10.776  0.9647 -0.3355  0.0727
  129CHL1   C2615799   5.119   0.310  10.863  0.1631  0.6221 -0.1130
  129CHL1  H26A15800   5.103   0.290  10.971 -1.4142 -0.9407 -0.6059
  129CHL1  H26B15801   5.167   0.213  10.838 -1.1548  0.1368 -0.8148
  129CHL1  H26C15802   5.193   0.393  10.856  1.9348 -0.9796 -1.2438
  129CHL1   C2715803   4.922   0.450  10.827 -0.7135 -0.5434  0.1603
  129CHL1  H27A15804   4.914   0.452  10.938  1.3852  0.3733  0.3375
  129CHL1  H27B15805   4.982   0.542  10.810  1.9178 -2.2869 -0.4551
  129CHL1  H27C15806   4.821   0.457  10.781 -0.2158  0.4333 -0.8489
  130CHL1    C315807   3.137   1.143   9.288  0.6699  0.4517 -0.4388
  130CHL1    H315808   3.043   1.188   9.326  0.1335 -0.4629 -0.6483
  130CHL1    O315809   3.131   1.123   9.148 -0.0842 -0.1641 -0.0286
  130CHL1   H3'15810   3.044   1.084   9.138  0.2740 -1.4246  1.3381
  130CHL1    C415811   3.258   1.226   9.328 -0.3972  0.4303 -0.1181
  130CHL1   H4A15812   3.349   1.183   9.282 -0.2043 -0.0190  0.6585
  130CHL1   H4B15813   3.240   1.329   9.289  1.0057  0.9552  0.5593
  130CHL1    C515814   3.284   1.229   9.477  0.5002 -0.6534  0.4173
  130CHL1    C615815   3.299   1.351   9.536 -0.1331  0.6965 -0.7696
  130CHL1    H615816   3.309   1.438   9.469 -0.7298  1.4452  0.0943
  130CHL1    C715817   3.336   1.371   9.681  0.3077 -0.4149 -0.0052
  130CHL1   H7A15818   3.413   1.449   9.697 -1.1419  0.7831  1.3958
  130CHL1   H7B15819   3.242   1.415   9.721  0.8559 -0.3749  1.2846
  130CHL1    C815820   3.362   1.240   9.762  0.9032 -0.0799  0.0863
  130CHL1    H815821   3.468   1.209   9.752  0.0941 -2.5098 -2.0146
  130CHL1   C1415822   3.332   1.258   9.911 -0.0675  0.4560  0.5021
  130CHL1   H1415823   3.223   1.277   9.919  0.4365  4.0955  0.4246
  130CHL1   C1515824   3.395   1.377   9.978 -1.1267  0.0253 -0.0696
  130CHL1  H15A15825   3.502   1.375   9.948 -1.5080  0.0249 -1.4912
  130CHL1  H15B15826   3.346   1.473   9.955 -2.9010 -0.6102  0.8837
  130CHL1   C1615827   3.388   1.348  10.130 -0.1488 -0.4919 -0.3974
  130CHL1  H16A15828   3.487   1.341  10.179 -0.4619  0.4395  0.3936
  130CHL1  H16B15829   3.330   1.428  10.181  1.6993 -0.8961  2.5838
  130CHL1   C1715830   3.329   1.205  10.134  0.7227 -0.7480  0.0149
  130CHL1   H1715831   3.218   1.219  10.133  0.2601 -3.8092 -0.7817
  130CHL1   C1315832   3.360   1.138   9.995  0.9977  0.5344  0.3217
  130CHL1   C1815833   3.509   1.097   9.997 -0.2328  1.2101  0.3118
  130CHL1  H18A15834   3.524   1.016  10.072 -1.9453 -1.0044 -1.5565
  130CHL1  H18B15835   3.537   1.050   9.900 -0.0907  2.9963 -0.5449
  130CHL1  H18C15836   3.578   1.180  10.022 -0.9375  2.4255 -1.5642
  130CHL1   C1215837   3.277   1.016   9.953  0.0818 -0.9166  0.5739
  130CHL1  H12A15838   3.309   0.925  10.007 -1.6874 -1.5309  0.6454
  130CHL1  H12B15839   3.167   1.026   9.966  0.1317 -0.0324  0.4242
  130CHL1   C1115840   3.278   0.998   9.795 -0.6090  0.1652  0.7851
  130CHL1  H11A15841   3.376   0.956   9.765 -0.7814  0.4620 -0.2372
  130CHL1  H11B15842   3.209   0.916   9.764  1.3490 -1.8041  1.3838
  130CHL1    C915843   3.266   1.126   9.714 -0.6066 -0.7053  0.2220
  130CHL1    H915844   3.165   1.167   9.735 -0.8066 -0.7780 -0.5788
  130CHL1   C1015845   3.275   1.102   9.556  0.0162  0.0315 -0.2866
  130CHL1   C1915846   3.409   1.039   9.529 -0.3832  0.2998  0.3498
  130CHL1  H19A15847   3.447   1.054   9.425 -0.8190 -0.0433  0.1421
  130CHL1  H19B15848   3.498   1.075   9.586  1.1162  0.1412 -1.7558
  130CHL1  H19C15849   3.402   0.932   9.554  1.9804  0.4518  1.9857
  130CHL1    C115850   3.152   1.018   9.511  0.4758  0.1799  0.6147
  130CHL1   H1A15851   3.155   0.918   9.559 -0.6761  0.7250  1.9126
  130CHL1   H1B15852   3.062   1.076   9.542 -1.2103 -1.9562 -0.0865
  130CHL1    C215853   3.141   1.003   9.356 -0.1010  0.3294 -0.8766
  130CHL1   H2A15854   3.047   0.947   9.335 -0.8906  0.1425  2.5584
  130CHL1   H2B15855   3.221   0.932   9.326  0.8234  1.4258 -1.0521
  130CHL1   C2015856   3.361   1.136  10.270  0.4899 -0.3033 -0.8323
  130CHL1   H2015857   3.467   1.102  10.264  1.8975  3.1195  1.3716
  130CHL1   C2115858   3.276   1.011  10.286  0.2519 -0.2064 -0.7806
  130CHL1  H21A15859   3.309   0.942  10.366  1.3244 -0.9927 -1.8585
  130CHL1  H21B15860   3.273   0.953  10.191  3.7647 -1.7152 -0.1452
  130CHL1  H21C15861   3.169   1.033  10.304  0.1547 -1.6729  0.6544
  130CHL1   C2215862   3.339   1.222  10.397  0.2001 -0.4346  0.1968
  130CHL1  H22A15863   3.370   1.328  10.403 -0.5310 -0.2581  1.2141
  130CHL1  H22B15864   3.228   1.220  10.403  0.0965 -2.0666 -1.3770
  130CHL1   C2315865   3.385   1.167  10.537  0.3665 -0.6283 -0.1213
  130CHL1  H23A15866   3.340   1.228  10.618  1.4563  0.4932 -0.3197
  130CHL1  H23B15867   3.341   1.066  10.548 -2.0495  0.1725 -1.6627
  130CHL1   C2415868   3.539   1.164  10.538  0.7388  0.8284  0.0270
  130CHL1  H24A15869   3.581   1.122  10.445 -0.7657 -1.1926  0.1898
  130CHL1  H24B15870   3.576   1.267  10.556 -0.6957  1.7542 -1.9926
  130CHL1   C2515871   3.590   1.086  10.662  0.1825  0.0121  0.1247
  130CHL1   H2515872   3.533   1.118  10.751  1.5646  0.2189  0.9649
  130CHL1   C2615873   3.570   0.930  10.656  0.2721 -0.0049  0.4927
  130CHL1  H26A15874   3.590   0.896  10.552 -0.4225 -0.9102  0.6426
  130CHL1  H26B15875   3.622   0.867  10.732 -2.2233 -0.3130  2.0646
  130CHL1  H26C15876   3.464   0.914  10.684  0.0914 -0.7482 -0.5452
  130CHL1   C2715877   3.743   1.109  10.672 -0.7072  0.3934 -0.1067
  130CHL1  H27A15878   3.791   1.081  10.576 -2.9870 -0.9272 -0.9606
  130CHL1  H27B15879   3.750   1.217  10.698 -2.1607 -0.1475  2.9524
  130CHL1  H27C15880   3.798   1.047  10.746 -0.4204 -1.5353 -1.8512
  131CHL1    C315881   1.469   0.217   9.425  0.4875 -0.5957 -0.6813
  131CHL1    H315882   1.554   0.283   9.453 -0.1504  0.5153 -1.3000
  131CHL1    O315883   1.436   0.239   9.291 -0.0420  0.2102  0.2817
  131CHL1   H3'15884   1.424   0.334   9.287  0.1320  0.3407  2.0473
  131CHL1    C415885   1.508   0.073   9.458  0.3424 -0.0048 -0.6094
  131CHL1   H4A15886   1.423   0.004   9.440 -0.4457 -0.2314  3.0596
  131CHL1   H4B15887   1.603   0.040   9.410  1.3439  1.8816 -0.0259
  131CHL1    C515888   1.548   0.056   9.609  0.3624 -0.3652 -0.0216
  131CHL1    C615889   1.667   0.011   9.647  0.0698 -0.3565 -0.5794
  131CHL1    H615890   1.739  -0.024   9.572 -0.1527  1.1655 -1.5371
  131CHL1    C715891   1.709  -0.000   9.792 -0.3301 -0.0854 -0.4821
  131CHL1   H7A15892   1.772  -0.091   9.806 -0.1783  0.1772  0.6247
  131CHL1   H7B15893   1.785   0.077   9.816 -1.8577  0.7504  2.1266
  131CHL1    C815894   1.587   0.001   9.881  0.6350  0.0335 -0.4713
  131CHL1    H815895   1.550  -0.104   9.879  2.9093 -0.9118  1.4631
  131CHL1   C1415896   1.637   0.015  10.032 -0.3582 -0.3435 -0.6437
  131CHL1   H1415897   1.693   0.111  10.037 -2.3057  0.7581  2.1835
  131CHL1   C1515898   1.750  -0.084  10.086  0.6815  0.1819  0.3333
  131CHL1  H15A15899   1.738  -0.185  10.044  3.6109 -0.7376  1.4260
  131CHL1  H15B15900   1.855  -0.059  10.056  0.7514  1.9327  1.8127
  131CHL1   C1615901   1.736  -0.074  10.240  0.0962  0.0913 -0.1203
  131CHL1  H16A15902   1.729  -0.177  10.281 -0.5253  0.1195 -0.1455
  131CHL1  H16B15903   1.835  -0.036  10.273 -1.0872  2.7919  0.6221
  131CHL1   C1715904   1.614   0.020  10.266 -0.0281 -0.0975 -0.6272
  131CHL1   H1715905   1.655   0.122  10.254 -1.2133  0.4940  0.1930
  131CHL1   C1315906   1.525   0.009  10.136  0.1300 -0.6855  0.3884
  131CHL1   C1815907   1.444  -0.121  10.133 -0.5821 -0.3453  0.7482
  131CHL1  H18A15908   1.397  -0.143  10.035  0.1245  0.2324  0.2682
  131CHL1  H18B15909   1.517  -0.204  10.147 -1.7957 -1.4039  0.9834
  131CHL1  H18C15910   1.377  -0.126  10.221  0.0014  0.2796  1.2354
  131CHL1   C1215911   1.430   0.120  10.097 -0.2788 -0.2429  0.5698
  131CHL1  H12A15912   1.341   0.121  10.164 -0.3078  1.6544  0.5622
  131CHL1  H12B15913   1.471   0.220  10.123 -0.8498 -0.2736  1.6969
  131CHL1   C1115914   1.371   0.113   9.959  0.2464  0.3751  0.4102
  131CHL1  H11A15915   1.303   0.026   9.950 -0.2639  0.7291  0.8053
  131CHL1  H11B15916   1.307   0.204   9.949  0.2759  0.3133 -0.4886
  131CHL1    C915917   1.483   0.107   9.851 -0.0807  0.0968 -0.1695
  131CHL1    H915918   1.546   0.198   9.858 -0.6955  0.4022  2.4438
  131CHL1   C1015919   1.436   0.101   9.707  0.3872  0.3382  0.1633
  131CHL1   C1915920   1.315   0.004   9.687  0.0154 -0.5258  0.4231
  131CHL1  H19A15921   1.329  -0.097   9.732 -0.9332 -1.8446 -2.0866
  131CHL1  H19B15922   1.230   0.065   9.725 -0.4629 -0.5081 -0.6493
  131CHL1  H19C15923   1.300  -0.017   9.579  0.8098 -0.0877  0.2163
  131CHL1    C115924   1.394   0.240   9.667  0.0198 -0.1464 -0.0323
  131CHL1   H1A15925   1.308   0.278   9.727 -0.6140  0.2158 -1.1380
  131CHL1   H1B15926   1.466   0.321   9.693 -0.1240 -0.3013  0.9139
  131CHL1    C215927   1.361   0.259   9.516  0.5757  0.3610 -0.1456
  131CHL1   H2A15928   1.334   0.365   9.500  0.1288  0.4064  0.8387
  131CHL1   H2B15929   1.266   0.206   9.497  0.2217  0.4504  1.2324
  131CHL1   C2015930   1.556   0.008  10.407  0.2778 -0.0427 -0.5129
  131CHL1   H2015931   1.503  -0.089  10.413  1.6707 -0.7493  1.3049
  131CHL1   C2115932   1.446   0.117  10.431 -0.9772  0.7973  0.5463
  131CHL1  H21A15933   1.355   0.114  10.367  1.5699  2.7451 -3.5902
  131CHL1  H21B15934   1.497   0.214  10.412  1.0976 -0.9504 -4.2479
  131CHL1  H21C15935   1.418   0.124  10.538 -0.1586 -1.0565  0.9078
  131CHL1   C2215936   1.671   0.008  10.514 -0.7331 -0.1047  0.0985
  131CHL1  H22A15937   1.760  -0.050  10.481 -0.7728  0.0821 -0.3396
  131CHL1  H22B15938   1.702   0.114  10.522 -1.8531  0.3524 -1.2179
  131CHL1   C2315939   1.626  -0.037  10.653 -0.4295 -0.3033 -0.3401
  131CHL1  H23A15940   1.557   0.040  10.695 -0.5999 -1.4352  1.5647
  131CHL1  H23B15941   1.578  -0.134  10.630  0.2956 -0.7404 -0.0200
  131CHL1   C2415942   1.739  -0.062  10.754 -0.1231 -0.0186 -0.0812
  131CHL1  H24A15943   1.789  -0.146  10.701 -1.3556 -0.9118  0.1165
  131CHL1  H24B15944   1.806   0.026  10.761  0.8254 -0.5629 -1.8946
  131CHL1   C2515945   1.698  -0.122  10.893 -0.2491  0.4402 -0.0032
  131CHL1   H2515946   1.628  -0.208  10.883  0.6100 -0.0117 -2.7473
  131CHL1   C2615947   1.830  -0.154  10.967 -0.4842 -0.2714 -0.1583
  131CHL1  H26A15948   1.873  -0.055  10.994 -0.3729 -0.1759 -0.6829
  131CHL1  H26B15949   1.808  -0.199  11.067  2.0363  1.4189  1.2730
  131CHL1  H26C15950   1.907  -0.210  10.910 -0.4718 -1.1991  0.7341
  131CHL1   C2715951   1.628  -0.011  10.982 -0.1694  0.7032  0.1226
  131CHL1  H27A15952   1.620  -0.036  11.090  2.0224  0.8446  0.3563
  131CHL1  H27B15953   1.692   0.079  10.973  0.7615  0.1860  1.4251
  131CHL1  H27C15954   1.524   0.009  10.948 -0.0886  0.4965 -0.2505
  132CHL1    C315955   5.474   2.165   9.644  0.7268  0.2789 -0.0630
  132CHL1    H315956   5.439   2.264   9.681  0.8370  0.4501 -0.4166
  132CHL1    O315957   5.468   2.164   9.503  0.5225 -0.4557 -0.7154
  132CHL1   H3'15958   5.518   2.087   9.475 -0.0560 -1.6788  1.4516
  132CHL1    C415959   5.613   2.130   9.703 -0.4069  0.1133  0.3075
  132CHL1   H4A15960   5.635   2.026   9.670 -0.6663 -0.7832  2.7605
  132CHL1   H4B15961   5.679   2.201   9.649  0.7627 -0.6160  0.7465
  132CHL1    C515962   5.605   2.148   9.850 -0.7514 -0.2370 -0.7517
  132CHL1    C615963   5.693   2.232   9.916  0.6758  0.3172 -0.2628
  132CHL1    H615964   5.779   2.282   9.870  1.5125 -2.3897 -1.8894
  132CHL1    C715965   5.697   2.237  10.069 -0.2331 -0.4301  0.7529
  132CHL1   H7A15966   5.802   2.232  10.103 -0.5064 -0.5140  1.5988
  132CHL1   H7B15967   5.669   2.339  10.105 -1.2144 -0.5365  0.3366
  132CHL1    C815968   5.610   2.130  10.139  0.2285  0.0358  0.5945
  132CHL1    H815969   5.664   2.034  10.143  0.1390 -0.0966 -0.9099
  132CHL1   C1415970   5.580   2.166  10.286  0.0195 -0.4317  0.7661
  132CHL1   H1415971   5.529   2.264  10.276 -0.1655 -0.3537  2.2397
  132CHL1   C1515972   5.701   2.198  10.376 -0.1831 -0.0305  0.6056
  132CHL1  H15A15973   5.778   2.120  10.358 -0.9291 -0.3177 -1.6460
  132CHL1  H15B15974   5.749   2.297  10.367  1.0419 -0.4945  1.8246
  132CHL1   C1615975   5.649   2.177  10.522 -0.6271  0.0047 -0.2515
  132CHL1  H16A15976   5.710   2.098  10.570  0.4551  1.3973  0.7672
  132CHL1  H16B15977   5.671   2.273  10.573  3.2152 -0.9699  0.2534
  132CHL1   C1715978   5.497   2.140  10.499 -0.7296  0.1956  0.2159
  132CHL1   H1715979   5.446   2.236  10.477  1.2101  0.8682 -1.6794
  132CHL1   C1315980   5.490   2.072  10.363 -0.2632  0.1005 -0.7645
  132CHL1   C1815981   5.546   1.929  10.380 -0.1268 -0.8442 -0.0495
  132CHL1  H18A15982   5.645   1.932  10.430  0.0711  2.6453 -0.3514
  132CHL1  H18B15983   5.479   1.869  10.445 -0.0805  0.3090  1.1047
  132CHL1  H18C15984   5.540   1.877  10.282 -0.4537 -1.1781  0.1475
  132CHL1   C1215985   5.359   2.055  10.290  0.4022 -0.0470  0.5124
  132CHL1  H12A15986   5.297   1.980  10.345  0.5405 -1.2946 -0.9470
  132CHL1  H12B15987   5.302   2.150  10.286 -3.5865 -2.2170 -1.6903
  132CHL1   C1115988   5.377   2.015  10.141  0.4265 -0.2723  0.6829
  132CHL1  H11A15989   5.413   1.910  10.130  2.8062  0.6162 -0.8241
  132CHL1  H11B15990   5.274   2.026  10.102  0.7360  0.4649  0.0442
  132CHL1    C915991   5.477   2.109  10.073 -0.2020  0.0023  0.6854
  132CHL1    H915992   5.439   2.214  10.073  0.2041  0.1552  1.1582
  132CHL1   C1015993   5.501   2.072   9.921  0.3428 -0.1448  0.1856
  132CHL1   C1915994   5.558   1.923   9.903 -0.9717  0.0051 -0.2889
  132CHL1  H19A15995   5.536   1.880   9.803 -1.0239 -0.4120 -0.1012
  132CHL1  H19B15996   5.665   1.911   9.932 -1.6164 -1.2276  1.8129
  132CHL1  H19C15997   5.507   1.846   9.965 -0.6884 -1.1865 -1.4758
  132CHL1    C115998   5.363   2.094   9.845 -0.2724  0.2426  0.2794
  132CHL1   H1A15999   5.280   2.033   9.886 -0.7961 -1.4617 -2.9809
  132CHL1   H1B16000   5.351   2.201   9.872 -0.4264  0.0654  0.9280
  132CHL1    C216001   5.365   2.075   9.692 -0.5588  0.3624 -1.0993
  132CHL1   H2A16002   5.262   2.099   9.658 -1.1700  2.7092  1.8964
  132CHL1   H2B16003   5.380   1.970   9.660  0.3479  0.3856 -0.8007
  132CHL1   C2016004   5.441   2.073  10.629 -0.0829  0.3181  0.9911
  132CHL1   H2016005   5.502   1.983  10.650 -0.3739 -0.5897 -1.7507
  132CHL1   C2116006   5.294   2.025  10.615 -0.4668 -0.4658 -0.6543
  132CHL1  H21A16007   5.246   2.014  10.714 -0.8675 -0.8893 -0.8951
  132CHL1  H21B16008   5.299   1.925  10.568  2.0792 -0.1968 -1.0722
  132CHL1  H21C16009   5.244   2.096  10.545  0.9190 -0.2550 -1.4556
  132CHL1   C2216010   5.444   2.166  10.753 -0.7453 -1.0090  0.4265
  132CHL1  H22A16011   5.541   2.220  10.760 -0.2640 -1.6055 -1.1236
  132CHL1  H22B16012   5.375   2.251  10.736  1.2639  0.4326 -0.9039
  132CHL1   C2316013   5.429   2.100  10.890 -0.4566 -0.1507  0.1951
  132CHL1  H23A16014   5.321   2.076  10.902 -1.7524  3.0233 -2.9910
  132CHL1  H23B16015   5.491   2.008  10.893  1.3346  1.0328  2.3852
  132CHL1   C2416016   5.464   2.198  11.002  0.2638  0.0222  0.5442
  132CHL1  H24A16017   5.567   2.233  10.979  0.3971 -0.3951  0.4914
  132CHL1  H24B16018   5.396   2.285  11.008 -0.0721 -0.2575  0.9015
  132CHL1   C2516019   5.458   2.134  11.146 -0.0850 -0.9071 -0.1847
  132CHL1   H2516020   5.546   2.066  11.140  1.5983  1.2479 -4.2956
  132CHL1   C2616021   5.484   2.244  11.252  0.1630 -0.2079  0.3816
  132CHL1  H26A16022   5.484   2.199  11.354 -0.4202  0.5731  0.7362
  132CHL1  H26B16023   5.585   2.281  11.225 -0.1220  0.3751  0.0839
  132CHL1  H26C16024   5.413   2.330  11.250 -2.0153 -1.9447  0.3201
  132CHL1   C2716025   5.330   2.055  11.184 -0.3245  0.2749 -0.2706
  132CHL1  H27A16026   5.290   2.004  11.094 -3.0613  2.1461 -0.2429
  132CHL1  H27B16027   5.343   1.978  11.262  0.0435 -1.2124 -1.7501
  132CHL1  H27C16028   5.256   2.132  11.217  1.5748  1.5385  1.2789
  133CHL1    C316029   1.905   4.549   9.450 -0.1219  0.4082  0.0293
  133CHL1    H316030   1.809   4.576   9.500 -0.2227  1.1422 -0.5444
  133CHL1    O316031   1.884   4.535   9.310  0.3595  0.3294 -0.2950
  133CHL1   H3'16032   1.898   4.441   9.296  1.1339  0.2389  0.9258
  133CHL1    C416033   2.002   4.659   9.480 -0.0015 -0.3278 -0.2283
  133CHL1   H4A16034   2.100   4.633   9.435  0.0766  0.3563 -0.4594
  133CHL1   H4B16035   1.975   4.753   9.428 -1.7888 -2.2434 -3.0236
  133CHL1    C516036   2.025   4.673   9.633 -0.6127 -0.8402 -0.0991
  133CHL1    C616037   2.020   4.795   9.694 -0.3610 -0.0457 -0.2000
  133CHL1    H616038   2.002   4.881   9.628 -0.6417  0.3195  0.3467
  133CHL1    C716039   2.033   4.828   9.837  0.3173  0.3164  0.3788
  133CHL1   H7A16040   2.098   4.916   9.853 -1.5504  2.0264 -0.8406
  133CHL1   H7B16041   1.935   4.851   9.884 -0.1438 -1.2828  0.2730
  133CHL1    C816042   2.094   4.711   9.921 -0.4046  0.1123  1.1429
  133CHL1    H816043   2.203   4.719   9.898 -0.8279 -0.6940 -1.4771
  133CHL1   C1416044   2.069   4.731  10.058  0.4044 -0.3394 -0.4998
  133CHL1   H1416045   1.961   4.722  10.083  0.7810 -0.3674  1.2836
  133CHL1   C1516046   2.099   4.867  10.120  0.1081 -0.2455 -0.7441
  133CHL1  H15A16047   2.198   4.901  10.081 -0.9156  0.4538 -2.8664
  133CHL1  H15B16048   2.013   4.936  10.112 -0.7527 -1.2116 -0.1090
  133CHL1   C1616049   2.116   4.832  10.270  0.4863 -0.4274 -0.8973
  133CHL1  H16A16050   2.215   4.872  10.302 -1.0324  2.0018  1.0692
  133CHL1  H16B16051   2.043   4.889  10.330  1.0466  1.0044 -1.5267
  133CHL1   C1716052   2.105   4.679  10.286  0.3892  0.2557 -0.4721
  133CHL1   H1716053   1.996   4.659  10.290  0.2824  0.3411 -2.3572
  133CHL1   C1316054   2.143   4.623  10.145  0.6777 -0.3618 -0.1563
  133CHL1   C1816055   2.300   4.634  10.125  0.0476  0.6826  0.4442
  133CHL1  H18A16056   2.351   4.561  10.192  1.4633 -1.3305 -2.6501
  133CHL1  H18B16057   2.319   4.595  10.024 -0.6771 -3.2851  1.6661
  133CHL1  H18C16058   2.347   4.734  10.139  1.5521  0.0421  0.1147
  133CHL1   C1216059   2.086   4.479  10.106 -0.1542 -0.1566 -0.1348
  133CHL1  H12A16060   2.138   4.396  10.159  0.5878  0.5835  0.3348
  133CHL1  H12B16061   1.978   4.474  10.132  0.2167 -2.1041  1.2891
  133CHL1   C1116062   2.095   4.461   9.960  1.6140  0.4106 -0.5206
  133CHL1  H11A16063   2.199   4.433   9.930  1.5482 -0.6726  0.1936
  133CHL1  H11B16064   2.029   4.375   9.936 -0.5278  1.7144  0.5028
  133CHL1    C916065   2.040   4.577   9.873 -0.3017 -0.1461  0.1928
  133CHL1    H916066   1.932   4.584   9.898  0.2643 -0.3376  3.0289
  133CHL1   C1016067   2.057   4.547   9.721 -0.6273  0.0692 -0.0848
  133CHL1   C1916068   2.202   4.506   9.687  0.0547 -0.3212  0.6405
  133CHL1  H19A16069   2.218   4.490   9.578 -1.4241  2.4732 -0.0921
  133CHL1  H19B16070   2.275   4.578   9.729 -0.4514 -0.0986  1.1474
  133CHL1  H19C16071   2.230   4.407   9.729 -0.9801 -0.5498  0.8061
  133CHL1    C116072   1.961   4.430   9.675 -0.1814  0.4481  0.8007
  133CHL1   H1A16073   1.997   4.331   9.711 -1.4575  0.0478  1.0559
  133CHL1   H1B16074   1.863   4.429   9.727  0.6202 -2.1780  2.4454
  133CHL1    C216075   1.941   4.415   9.517  0.4259  0.0844 -0.1009
  133CHL1   H2A16076   1.867   4.332   9.508  0.9811 -0.7560  2.3174
  133CHL1   H2B16077   2.035   4.380   9.469  1.1917  1.2023  0.5557
  133CHL1   C2016078   2.169   4.621  10.416  0.0208 -0.5564 -0.5623
  133CHL1   H2016079   2.278   4.645  10.415  0.0324 -0.5710  0.1954
  133CHL1   C2116080   2.150   4.464  10.428  0.5929  0.0673 -0.1276
  133CHL1  H21A16081   2.221   4.408  10.362  1.0335  1.5210 -0.9317
  133CHL1  H21B16082   2.043   4.439  10.418  0.0990  0.7447  2.7236
  133CHL1  H21C16083   2.177   4.422  10.527 -1.6041 -0.6383  0.2188
  133CHL1   C2216084   2.102   4.692  10.541 -0.0116  0.1710 -0.6952
  133CHL1  H22A16085   2.127   4.800  10.531  0.7409  0.0420 -0.2876
  133CHL1  H22B16086   1.993   4.675  10.533  0.1886 -0.9930 -1.0957
  133CHL1   C2316087   2.157   4.644  10.676 -0.3862 -0.6635  0.7833
  133CHL1  H23A16088   2.099   4.555  10.706 -3.6016  1.2955  0.8045
  133CHL1  H23B16089   2.259   4.606  10.654 -0.1545  1.6812 -3.1812
  133CHL1   C2416090   2.152   4.757  10.781  0.1408 -0.1390 -0.0507
  133CHL1  H24A16091   2.204   4.848  10.743 -1.7065  0.1397 -2.1287
  133CHL1  H24B16092   2.047   4.792  10.791 -0.4332 -1.4783 -0.9962
  133CHL1   C2516093   2.216   4.707  10.916 -0.1283 -0.0841  0.0593
  133CHL1   H2516094   2.321   4.670  10.908  0.1419  0.8339 -0.7954
  133CHL1   C2616095   2.212   4.823  11.015  0.1638  0.1324  0.4675
  133CHL1  H26A16096   2.268   4.790  11.105  0.5227  1.9130  0.9282
  133CHL1  H26B16097   2.272   4.904  10.968 -0.5451 -1.2849 -3.2685
  133CHL1  H26C16098   2.107   4.851  11.035  0.1178  1.2030 -1.0562
  133CHL1   C2716099   2.135   4.588  10.977 -0.3628  0.4861 -0.0687
  133CHL1  H27A16100   2.174   4.567  11.079  1.9187 -1.6394 -1.2571
  133CHL1  H27B16101   2.026   4.607  10.981 -0.7405 -1.3271 -0.8085
  133CHL1  H27C16102   2.153   4.497  10.916  1.7175  0.2165  0.8467
  134CHL1    C316103   6.145   4.118   9.335 -0.0544  0.4012 -0.1560
  134CHL1    H316104   6.121   4.214   9.386  1.3481  1.6144 -1.6608
  134CHL1    O316105   6.151   4.157   9.192 -0.2878  0.5722  0.0296
  134CHL1   H3'16106   6.080   4.110   9.148 -1.1300  0.1264  1.7831
  134CHL1    C416107   6.286   4.075   9.386 -0.6984 -0.7461 -0.5065
  134CHL1   H4A16108   6.314   3.974   9.349  1.5790 -0.1344 -0.6117
  134CHL1   H4B16109   6.359   4.149   9.346  0.4973 -1.2605  0.6472
  134CHL1    C516110   6.274   4.068   9.540 -0.6557 -0.2633 -0.6772
  134CHL1    C616111   6.328   4.159   9.619 -0.1781 -0.4861  0.7653
  134CHL1    H616112   6.386   4.239   9.571 -0.5222 -0.9262 -0.4262
  134CHL1    C716113   6.314   4.165   9.764 -0.1050  0.0769 -0.1443
  134CHL1   H7A16114   6.404   4.199   9.820 -1.4644 -1.3799  3.1563
  134CHL1   H7B16115   6.236   4.243   9.783  0.9287  1.4204 -1.1626
  134CHL1    C816116   6.240   4.045   9.828  0.7346 -0.1919 -0.4109
  134CHL1    H816117   6.307   3.957   9.827  0.0822 -0.8895 -4.6212
  134CHL1   C1416118   6.196   4.087   9.971 -0.1903  0.9692  1.3465
  134CHL1   H1416119   6.119   4.163   9.949 -2.2323 -1.0540  1.1494
  134CHL1   C1516120   6.304   4.129  10.067 -0.0885 -0.1201  0.3020
  134CHL1  H15A16121   6.381   4.050  10.058  0.7254  0.8683 -4.0512
  134CHL1  H15B16122   6.349   4.230  10.053 -0.6552  0.3855  1.8776
  134CHL1   C1616123   6.232   4.129  10.199  0.3575 -0.2777 -0.0900
  134CHL1  H16A16124   6.285   4.080  10.284 -3.0982  1.7917  3.6037
  134CHL1  H16B16125   6.218   4.232  10.237  1.9777 -0.5605  1.3777
  134CHL1   C1716126   6.092   4.062  10.180 -0.1625 -0.2104  0.6314
  134CHL1   H1716127   6.020   4.145  10.166  1.0908  1.2243  2.1861
  134CHL1   C1316128   6.114   3.986  10.043  1.4619 -0.4144  0.0858
  134CHL1   C1816129   6.191   3.856  10.062  0.8577  0.0646 -0.5843
  134CHL1  H18A16130   6.222   3.814   9.964  0.7756  0.3683 -0.7422
  134CHL1  H18B16131   6.287   3.865  10.116  0.8218 -2.2269 -0.0400
  134CHL1  H18C16132   6.123   3.785  10.114  0.4690  0.8889  0.0452
  134CHL1   C1216133   5.989   3.968   9.948 -1.3268 -0.2477 -0.1935
  134CHL1  H12A16134   5.923   3.891   9.994  1.0699 -1.0581  2.1455
  134CHL1  H12B16135   5.937   4.066   9.934 -2.1014 -0.7050 -0.5476
  134CHL1   C1116136   6.026   3.914   9.809 -0.1635 -0.0926 -0.6428
  134CHL1  H11A16137   6.074   3.817   9.833  0.7420  0.2576 -0.9831
  134CHL1  H11B16138   5.925   3.904   9.764  0.0591 -0.8315 -0.9852
  134CHL1    C916139   6.118   4.016   9.741  0.2268  0.5246 -0.1454
  134CHL1    H916140   6.071   4.116   9.735 -1.3001 -0.2180 -1.6336
  134CHL1   C1016141   6.160   3.975   9.597 -0.5408 -0.1404  0.1671
  134CHL1   C1916142   6.224   3.838   9.585 -0.4761  0.4889 -0.3951
  134CHL1  H19A16143   6.276   3.812   9.491  1.6144 -0.1335  0.8774
  134CHL1  H19B16144   6.300   3.824   9.665  0.0277  4.5592  0.0383
  134CHL1  H19C16145   6.142   3.767   9.610 -1.0285  1.4972  0.7821
  134CHL1    C116146   6.031   3.985   9.506  0.2386  0.3947 -0.0926
  134CHL1   H1A16147   5.973   3.892   9.520  0.2640  0.2326 -1.0395
  134CHL1   H1B16148   5.982   4.077   9.544  2.0829  1.5176 -0.3074
  134CHL1    C216149   6.046   4.004   9.358  0.2437 -0.0127  0.7306
  134CHL1   H2A16150   5.947   4.022   9.309  1.9566  0.5705 -2.8161
  134CHL1   H2B16151   6.099   3.919   9.310  0.6860 -0.2962  1.7049
  134CHL1   C2016152   6.058   3.982  10.303 -0.0806  0.1386 -0.0547
  134CHL1   H2016153   6.136   3.905  10.323 -0.3085  0.4288  2.1856
  134CHL1   C2116154   5.923   3.916  10.281  0.1302 -0.3858 -0.5837
  134CHL1  H21A16155   5.843   3.985  10.247  1.8837  0.9019 -2.3978
  134CHL1  H21B16156   5.893   3.860  10.371 -0.3124  0.8847  0.0888
  134CHL1  H21C16157   5.941   3.846  10.197 -0.3271 -0.3223 -0.7372
  134CHL1   C2216158   6.059   4.069  10.437  0.2938  0.8339 -0.4144
  134CHL1  H22A16159   6.160   4.115  10.445  0.6874 -0.2853  2.4297
  134CHL1  H22B16160   5.983   4.146  10.414 -1.5123 -0.4768  0.8475
  134CHL1   C2316161   6.029   3.992  10.574  0.4919  0.4539  1.1286
  134CHL1  H23A16162   6.046   4.061  10.659  0.2310  0.3210  1.2904
  134CHL1  H23B16163   5.923   3.959  10.584  0.7087 -0.9574 -0.7022
  134CHL1   C2416164   6.117   3.871  10.610 -0.4346 -0.6862  0.6177
  134CHL1  H24A16165   6.093   3.786  10.543 -0.8714  0.4846 -0.7566
  134CHL1  H24B16166   6.218   3.899  10.574 -0.3946 -2.0181 -0.3676
  134CHL1   C2516167   6.124   3.835  10.757 -0.4035 -0.6081 -0.4889
  134CHL1   H2516168   6.150   3.926  10.815 -1.5131  0.0446 -0.9696
  134CHL1   C2616169   5.986   3.790  10.813  0.6189  0.1441  0.4821
  134CHL1  H26A16170   5.941   3.703  10.761 -1.0058  1.2291  0.0095
  134CHL1  H26B16171   5.979   3.774  10.923  0.6387 -1.3223  0.2901
  134CHL1  H26C16172   5.911   3.872  10.810 -2.0266 -2.1358  0.2608
  134CHL1   C2716173   6.222   3.719  10.782  0.6093 -0.4433  0.4871
  134CHL1  H27A16174   6.208   3.690  10.889 -2.0624 -0.1511  0.2748
  134CHL1  H27B16175   6.200   3.629  10.721 -2.7984  0.2289  0.5399
  134CHL1  H27C16176   6.330   3.738  10.765  0.3636  0.5140 -0.0815
  135CHL1    C316177   6.620   3.339   9.569 -0.0797  0.1375  0.3871
  135CHL1    H316178   6.678   3.247   9.589  2.8278  1.9704  1.0666
  135CHL1    O316179   6.620   3.359   9.430 -0.2786  0.5191  0.0163
  135CHL1   H3'16180   6.610   3.452   9.409  0.8898  0.7110  0.1928
  135CHL1    C416181   6.478   3.313   9.621  0.4974  0.3986  0.3798
  135CHL1   H4A16182   6.437   3.407   9.578  1.7915  1.3510  1.1326
  135CHL1   H4B16183   6.450   3.222   9.565 -3.5074  1.6758 -0.0583
  135CHL1    C516184   6.467   3.302   9.774  0.6268 -0.2301  0.5536
  135CHL1    C616185   6.397   3.205   9.828  0.4468 -0.5280 -0.6905
  135CHL1    H616186   6.370   3.127   9.755 -1.2774 -0.2203 -0.4288
  135CHL1    C716187   6.370   3.186   9.974 -0.1424 -0.4405 -0.3209
  135CHL1   H7A16188   6.261   3.162   9.978 -0.0854 -0.7412 -0.5061
  135CHL1   H7B16189   6.417   3.093  10.013  0.3475  1.4813  4.2741
  135CHL1    C816190   6.417   3.305  10.061  0.6023 -0.5297  0.4700
  135CHL1    H816191   6.329   3.373  10.060 -0.3836 -1.7442  1.5886
  135CHL1   C1416192   6.446   3.268  10.205 -1.1208  0.5423  0.2860
  135CHL1   H1416193   6.540   3.210  10.197  0.9012  3.6359 -0.4085
  135CHL1   C1516194   6.333   3.196  10.275 -0.0041  0.3143 -0.0154
  135CHL1  H15A16195   6.233   3.237  10.247 -0.3378 -1.7923 -2.2227
  135CHL1  H15B16196   6.331   3.091  10.240 -1.5280 -0.7867  3.0679
  135CHL1   C1616197   6.366   3.208  10.422  0.5637 -0.4804  0.1118
  135CHL1  H16A16198   6.283   3.251  10.482  0.4419 -2.6685  1.6473
  135CHL1  H16B16199   6.387   3.109  10.466 -0.6807 -0.1105  1.6193
  135CHL1   C1716200   6.493   3.297  10.430  0.4271 -0.7103  0.4750
  135CHL1   H1716201   6.578   3.227  10.422  0.1153 -1.0249 -0.1570
  135CHL1   C1316202   6.490   3.380  10.296 -0.2971  0.8011  0.4305
  135CHL1   C1816203   6.379   3.490  10.314  0.0373  0.1049 -0.5855
  135CHL1  H18A16204   6.296   3.442  10.370  1.3439 -1.8587 -0.2154
  135CHL1  H18B16205   6.420   3.568  10.383  1.2650 -2.1211  1.3541
  135CHL1  H18C16206   6.348   3.537  10.219 -1.5790 -0.4636 -0.3586
  135CHL1   C1216207   6.619   3.443  10.243  0.7829 -0.6407 -0.7632
  135CHL1  H12A16208   6.656   3.533  10.297 -2.0883 -0.2069  0.6766
  135CHL1  H12B16209   6.697   3.363  10.237  0.3454 -0.9740 -2.4651
  135CHL1   C1116210   6.606   3.495  10.097 -0.4361  0.1489 -0.2631
  135CHL1  H11A16211   6.553   3.592  10.082 -0.4038  0.0350 -1.1591
  135CHL1  H11B16212   6.707   3.518  10.055  0.6399 -0.7289  1.7175
  135CHL1    C916213   6.542   3.383  10.006 -0.6423  0.0291 -0.2738
  135CHL1    H916214   6.616   3.300  10.006 -2.0396 -1.2624 -1.1255
  135CHL1   C1016215   6.532   3.417   9.850  0.6702  0.7330 -0.0301
  135CHL1   C1916216   6.430   3.536   9.840  0.5087  0.4010 -1.2129
  135CHL1  H19A16217   6.477   3.632   9.871  0.9806 -0.4863  1.0556
  135CHL1  H19B16218   6.374   3.544   9.744  0.0960 -1.5383 -1.1829
  135CHL1  H19C16219   6.359   3.521   9.924  3.1104 -1.3629  0.8515
  135CHL1    C116220   6.672   3.441   9.796  0.2056 -0.7193  0.2864
  135CHL1   H1A16221   6.720   3.527   9.846  2.1574 -0.9132 -1.1152
  135CHL1   H1B16222   6.750   3.365   9.819  0.2484 -0.8001 -0.1083
  135CHL1    C216223   6.680   3.460   9.642 -0.3679 -0.2308  0.2705
  135CHL1   H2A16224   6.783   3.487   9.610 -0.8444 -1.5103 -2.7198
  135CHL1   H2B16225   6.618   3.548   9.615  0.8362  0.1991 -1.2617
  135CHL1   C2016226   6.505   3.371  10.562 -0.1365  0.2148  0.6026
  135CHL1   H2016227   6.436   3.458  10.575 -0.8990 -0.4124  0.8675
  135CHL1   C2116228   6.651   3.423  10.573  0.5003  0.3133  0.6327
  135CHL1  H21A16229   6.671   3.494  10.490 -1.3097 -0.0736 -0.1909
  135CHL1  H21B16230   6.712   3.331  10.560 -0.9314 -0.4601 -1.0050
  135CHL1  H21C16231   6.668   3.467  10.674  0.1595  0.4790  0.6196
  135CHL1   C2216232   6.470   3.275  10.676 -0.3626  0.4945  0.0492
  135CHL1  H22A16233   6.362   3.250  10.674  0.1140 -1.7701 -2.5704
  135CHL1  H22B16234   6.507   3.171  10.665 -1.4436  0.0344  0.5244
  135CHL1   C2316235   6.500   3.323  10.824  0.4303 -0.0184  0.2488
  135CHL1  H23A16236   6.607   3.346  10.842  0.2198  0.1815  1.2972
  135CHL1  H23B16237   6.428   3.401  10.857 -0.5107 -1.9613  3.2283
  135CHL1   C2416238   6.462   3.213  10.931 -0.7210  0.5236  0.0692
  135CHL1  H24A16239   6.360   3.172  10.919  0.4495 -2.6972  0.2402
  135CHL1  H24B16240   6.528   3.126  10.911 -0.4102  0.9209 -0.6666
  135CHL1   C2516241   6.511   3.245  11.072 -0.2283  0.3977  0.4612
  135CHL1   H2516242   6.605   3.304  11.076  0.5914 -0.4374 -3.0389
  135CHL1   C2616243   6.408   3.329  11.148 -0.2231  0.1698  0.1212
  135CHL1  H26A16244   6.309   3.280  11.159 -0.5698  1.0976  1.3403
  135CHL1  H26B16245   6.438   3.337  11.254  1.1158 -4.0847  0.2692
  135CHL1  H26C16246   6.392   3.426  11.096 -2.0039 -1.1221 -1.9335
  135CHL1   C2716247   6.536   3.113  11.138 -0.4567  0.2725 -0.6005
  135CHL1  H27A16248   6.549   3.120  11.248  1.8457 -2.5900 -0.5656
  135CHL1  H27B16249   6.450   3.044  11.125  0.7328 -2.0621  2.6878
  135CHL1  H27C16250   6.629   3.064  11.100  0.7995  1.4328  0.8537
  136CHL1    C316251   4.977   2.394   9.420 -0.5279  0.4642 -0.1368
  136CHL1    H316252   4.974   2.505   9.430  3.9052  0.7708 -0.4657
  136CHL1    O316253   4.987   2.361   9.279  0.3747  0.1597 -0.2458
  136CHL1   H3'16254   5.005   2.267   9.274  1.7311  0.1869  2.4457
  136CHL1    C416255   5.109   2.366   9.496 -0.6917 -0.1720  0.5244
  136CHL1   H4A16256   5.146   2.261   9.489  1.9094  0.6446  1.0172
  136CHL1   H4B16257   5.184   2.438   9.457 -0.7277 -0.1693  0.4594
  136CHL1    C516258   5.092   2.385   9.645  0.0706  0.2653 -0.1834
  136CHL1    C616259   5.183   2.460   9.712 -0.4151  0.1156  0.1710
  136CHL1    H616260   5.269   2.507   9.663 -0.3674 -0.4239 -0.2687
  136CHL1    C716261   5.173   2.490   9.858 -0.2796 -0.6405  0.5373
  136CHL1   H7A16262   5.271   2.476   9.907 -0.6602 -0.2665  1.4343
  136CHL1   H7B16263   5.125   2.587   9.883  0.5026 -0.2408  0.5160
  136CHL1    C816264   5.078   2.386   9.928  0.0516  0.3099 -0.3829
  136CHL1    H816265   5.122   2.283   9.924 -0.3772  0.0379  1.0564
  136CHL1   C1416266   5.056   2.427  10.072  0.8513  0.2773 -0.3860
  136CHL1   H1416267   4.996   2.520  10.075 -1.7678 -1.3355  1.7471
  136CHL1   C1516268   5.174   2.449  10.168 -0.0432 -0.1271  0.0222
  136CHL1  H15A16269   5.250   2.368  10.155  1.6906  0.6407  3.8321
  136CHL1  H15B16270   5.226   2.546  10.153  0.3934 -0.2714  0.5561
  136CHL1   C1616271   5.115   2.425  10.308  0.2303 -0.4736 -0.5552
  136CHL1  H16A16272   5.181   2.348  10.352  1.1149  1.3955  1.5569
  136CHL1  H16B16273   5.137   2.515  10.369  0.2222 -0.7217 -0.1877
  136CHL1   C1716274   4.967   2.392  10.291 -0.5276  0.1805  0.1853
  136CHL1   H1716275   4.916   2.490  10.300 -2.4196 -0.9163  2.5582
  136CHL1   C1316276   4.957   2.335  10.146  0.5609  0.1916  0.1641
  136CHL1   C1816277   5.001   2.187  10.141  0.2546 -0.0795 -0.1973
  136CHL1  H18A16278   5.016   2.148  10.038 -0.4634 -0.2867 -0.2286
  136CHL1  H18B16279   5.096   2.191  10.198 -0.0275  0.5372  0.2447
  136CHL1  H18C16280   4.933   2.114  10.189 -1.2915  2.3242  1.5589
  136CHL1   C1216281   4.821   2.361  10.079 -0.5094 -0.1601 -0.6104
  136CHL1  H12A16282   4.738   2.309  10.131  0.7572 -1.6892 -0.0415
  136CHL1  H12B16283   4.806   2.469  10.100  0.9605 -0.0779  0.1597
  136CHL1   C1116284   4.820   2.328   9.929  0.1596  0.0585 -0.3937
  136CHL1  H11A16285   4.834   2.218   9.928 -1.1546 -0.1482  1.1479
  136CHL1  H11B16286   4.723   2.353   9.881 -1.2493 -0.4397  2.0538
  136CHL1    C916287   4.940   2.385   9.854  0.6520 -0.2363  0.6388
  136CHL1    H916288   4.916   2.492   9.835 -0.6967 -0.5579  0.4816
  136CHL1   C1016289   4.964   2.329   9.707 -0.6132 -0.3205  0.1154
  136CHL1   C1916290   4.989   2.176   9.713 -0.5619 -0.5173  0.4301
  136CHL1  H19A16291   5.015   2.130   9.615  1.8322  1.1703  0.1965
  136CHL1  H19B16292   5.072   2.148   9.781  0.6679  0.0010 -0.8004
  136CHL1  H19C16293   4.893   2.135   9.751 -0.5134  0.9495  2.2732
  136CHL1    C116294   4.838   2.358   9.627  0.6499  0.1163  0.1137
  136CHL1   H1A16295   4.755   2.296   9.667 -0.2826 -0.6882 -2.8233
  136CHL1   H1B16296   4.804   2.463   9.638 -2.2123 -0.7059 -0.1015
  136CHL1    C216297   4.855   2.323   9.477 -0.3738 -0.0891  0.0298
  136CHL1   H2A16298   4.765   2.351   9.417  1.6541  0.5036 -2.9463
  136CHL1   H2B16299   4.870   2.214   9.461  1.6881  0.2281 -0.4829
  136CHL1   C2016300   4.916   2.306  10.409  0.4606  0.2279 -0.3210
  136CHL1   H2016301   4.962   2.205  10.400  0.3463  0.2655 -1.5580
  136CHL1   C2116302   4.765   2.290  10.393  0.0002  0.1610  0.3485
  136CHL1  H21A16303   4.745   2.202  10.328  1.7639 -0.0056  0.0065
  136CHL1  H21B16304   4.727   2.387  10.353 -0.9410 -0.2384  0.2438
  136CHL1  H21C16305   4.712   2.286  10.491  1.1341 -0.3417  0.9600
  136CHL1   C2216306   4.960   2.352  10.548  0.1631 -0.6419  0.0303
  136CHL1  H22A16307   5.063   2.395  10.548  0.5736 -1.4194  2.7996
  136CHL1  H22B16308   4.898   2.438  10.583 -1.2885 -1.4967 -0.3691
  136CHL1   C2316309   4.939   2.243  10.657  0.5820  0.4183  0.0525
  136CHL1  H23A16310   4.830   2.217  10.657  0.8783 -0.9003  0.1743
  136CHL1  H23B16311   4.987   2.144  10.641 -1.8345 -0.6550 -1.1006
  136CHL1   C2416312   4.961   2.300  10.799  0.3861  0.7864  0.7386
  136CHL1  H24A16313   5.055   2.360  10.802  1.1766 -0.2805 -1.1385
  136CHL1  H24B16314   4.876   2.361  10.836  0.2733  1.9410 -1.3028
  136CHL1   C2516315   4.976   2.183  10.900 -0.4308  0.2285  0.2618
  136CHL1   H2516316   5.062   2.123  10.864 -0.5580 -0.1113  0.5149
  136CHL1   C2616317   5.014   2.250  11.031 -0.1807  0.0232 -1.0364
  136CHL1  H26A16318   4.947   2.329  11.071 -0.2597 -0.5047 -0.0969
  136CHL1  H26B16319   5.031   2.177  11.112  1.5192  1.2357 -0.2106
  136CHL1  H26C16320   5.114   2.294  11.010  0.3306  0.1733  1.3916
  136CHL1   C2716321   4.848   2.101  10.912  0.0460  0.0875 -0.1431
  136CHL1  H27A16322   4.752   2.158  10.907 -1.0633 -1.8004 -2.6210
  136CHL1  H27B16323   4.833   2.032  10.826 -2.2132  2.3006 -1.7205
  136CHL1  H27C16324   4.853   2.031  10.998 -1.9648  0.9875  0.7922
  137CHL1    C316325   1.936   2.844   9.428  0.1448 -0.3830 -0.4647
  137CHL1    H316326   1.934   2.948   9.467 -1.1262  0.0081 -1.5076
  137CHL1    O316327   1.916   2.860   9.289  0.4637 -0.3973 -0.1046
  137CHL1   H3'16328   1.824   2.834   9.276  0.8782 -1.4430 -1.1144
  137CHL1    C416329   2.063   2.767   9.467  0.2011  0.6204 -0.2710
  137CHL1   H4A16330   2.068   2.682   9.395  2.4101  1.4008 -1.1263
  137CHL1   H4B16331   2.134   2.833   9.412  1.4390  0.2470  0.8207
  137CHL1    C516332   2.084   2.741   9.615 -0.5455 -0.2277  0.1764
  137CHL1    C616333   2.205   2.768   9.668 -0.5651  0.5191 -0.1361
  137CHL1    H616334   2.282   2.814   9.604 -0.8581 -0.5823 -1.3113
  137CHL1    C716335   2.235   2.734   9.809  1.1131  0.3389  0.1519
  137CHL1   H7A16336   2.332   2.686   9.833  1.2768  1.1246  1.1608
  137CHL1   H7B16337   2.237   2.832   9.863  0.5954  0.6188 -0.3323
  137CHL1    C816338   2.121   2.652   9.878  0.7706 -0.7770 -0.3421
  137CHL1    H816339   2.135   2.547   9.845 -0.2744 -0.5029 -1.7076
  137CHL1   C1416340   2.128   2.669  10.030 -0.2816 -0.0088  1.0582
  137CHL1   H1416341   2.098   2.773  10.052 -0.5582  0.2771 -0.5105
  137CHL1   C1516342   2.267   2.655  10.107 -0.2722 -0.1371  0.2661
  137CHL1  H15A16343   2.320   2.579  10.045  0.3221 -1.1791  1.9941
  137CHL1  H15B16344   2.318   2.753  10.110 -2.7972  1.2986 -0.3655
  137CHL1   C1616345   2.225   2.601  10.245  0.1959 -0.2332 -0.0155
  137CHL1  H16A16346   2.258   2.496  10.260  3.2028  0.5287 -0.6001
  137CHL1  H16B16347   2.266   2.658  10.331 -0.1089  1.0175 -0.6750
  137CHL1   C1716348   2.070   2.607  10.244 -0.2539  0.4231 -0.2910
  137CHL1   H1716349   2.046   2.714  10.263  0.7999  0.4518  0.9787
  137CHL1   C1316350   2.033   2.578  10.101 -0.3793 -0.4882  0.4280
  137CHL1   C1816351   2.071   2.433  10.069 -1.1702  0.4694  0.0720
  137CHL1  H18A16352   2.176   2.407  10.095 -0.6253  3.2402  0.9887
  137CHL1  H18B16353   2.000   2.364  10.118 -0.5955  0.0776  0.3655
  137CHL1  H18C16354   2.070   2.408   9.961  0.4524  1.5003 -0.2127
  137CHL1   C1216355   1.888   2.611  10.062 -1.0485  0.5632 -0.2224
  137CHL1  H12A16356   1.816   2.536  10.101 -0.7028 -0.1770 -0.9629
  137CHL1  H12B16357   1.863   2.716  10.088  2.1945  1.5420 -0.6162
  137CHL1   C1116358   1.873   2.601   9.906 -0.2739 -0.1482 -0.3078
  137CHL1  H11A16359   1.873   2.495   9.872 -1.3731  0.5359 -2.7016
  137CHL1  H11B16360   1.773   2.647   9.892 -0.4829  0.4144  2.5148
  137CHL1    C916361   1.974   2.691   9.831 -0.0093  0.3417  0.0393
  137CHL1    H916362   1.968   2.794   9.872 -0.6786  0.6000 -0.6887
  137CHL1   C1016363   1.956   2.686   9.679 -0.1728 -0.0512 -0.6120
  137CHL1   C1916364   1.942   2.536   9.639 -0.5342  0.2293 -0.5374
  137CHL1  H19A16365   1.964   2.534   9.530 -2.1722  2.5880 -0.9906
  137CHL1  H19B16366   2.016   2.477   9.698 -2.5747 -0.0812  1.8958
  137CHL1  H19C16367   1.838   2.501   9.655 -1.1545  2.1554 -0.1545
  137CHL1    C116368   1.827   2.761   9.630  0.9002  0.1256 -0.2215
  137CHL1   H1A16369   1.743   2.695   9.659 -0.3676  1.1898 -1.3827
  137CHL1   H1B16370   1.814   2.856   9.685 -0.6866 -0.2977  0.1725
  137CHL1    C216371   1.816   2.766   9.479  0.6539 -0.3598 -0.5448
  137CHL1   H2A16372   1.727   2.829   9.458  0.2427 -0.4516  0.8708
  137CHL1   H2B16373   1.807   2.665   9.434 -1.7742 -1.1544  1.5181
  137CHL1   C2016374   1.995   2.530  10.360 -0.5837 -0.0664  0.2784
  137CHL1   H2016375   1.958   2.437  10.312  1.2565 -1.1683  0.8643
  137CHL1   C2116376   1.878   2.620  10.399  0.0799  0.4809 -0.2563
  137CHL1  H21A16377   1.815   2.638  10.309  0.0725 -1.3079 -0.6342
  137CHL1  H21B16378   1.923   2.708  10.450  1.3604  0.3317 -1.0883
  137CHL1  H21C16379   1.818   2.562  10.473 -0.5642  0.7616 -0.5476
  137CHL1   C2216380   2.091   2.501  10.478  0.1141  0.2252 -0.0287
  137CHL1  H22A16381   2.150   2.420  10.430  0.1003  1.0674 -1.5071
  137CHL1  H22B16382   2.154   2.587  10.511 -0.3400  0.5101  0.1130
  137CHL1   C2316383   2.013   2.466  10.608 -0.1600  0.2486  0.2256
  137CHL1  H23A16384   1.968   2.561  10.642 -0.7131 -0.3817  1.2700
  137CHL1  H23B16385   1.929   2.400  10.578  0.1089 -0.2164  0.4793
  137CHL1   C2416386   2.104   2.398  10.715  0.2302 -0.7217 -0.4585
  137CHL1  H24A16387   2.153   2.309  10.670  0.4166 -1.8278  1.7699
  137CHL1  H24B16388   2.195   2.458  10.738 -0.9734  0.7344  0.7382
  137CHL1   C2516389   2.028   2.372  10.848 -0.3090  0.6353 -0.0431
  137CHL1   H2516390   1.936   2.321  10.811 -1.2527  1.5045  1.0574
  137CHL1   C2616391   2.108   2.281  10.951 -0.4757 -0.3274  0.2073
  137CHL1  H26A16392   2.039   2.234  11.025  0.4940  0.1670  1.4563
  137CHL1  H26B16393   2.161   2.200  10.897 -0.2649 -0.4360  0.5777
  137CHL1  H26C16394   2.181   2.340  11.010 -0.2180 -0.0010 -0.4333
  137CHL1   C2716395   1.984   2.493  10.927 -0.0182 -0.0180 -0.2071
  137CHL1  H27A16396   1.926   2.470  11.019 -0.1660  2.0886  0.2791
  137CHL1  H27B16397   2.070   2.551  10.967 -0.5596  1.3816 -0.9897
  137CHL1  H27C16398   1.934   2.569  10.863  2.5106  1.9629 -0.0028
  138CHL1    C316399   0.129   1.834   9.364  0.1768 -0.5460  0.4162
  138CHL1    H316400   0.030   1.784   9.365 -0.3886  0.4603 -1.2581
  138CHL1    O316401   0.142   1.901   9.241 -0.3160 -0.0077  0.8682
  138CHL1   H3'16402   0.116   1.833   9.178  0.2800  0.9822 -0.5049
  138CHL1    C416403   0.136   1.944   9.467 -0.4610 -0.1385 -0.1364
  138CHL1   H4A16404   0.229   2.002   9.445  0.1506 -0.6794  0.9453
  138CHL1   H4B16405   0.046   2.008   9.453 -0.3186  1.1199  3.6511
  138CHL1    C516406   0.131   1.889   9.610 -0.3783  0.1394 -0.6892
  138CHL1    C616407   0.034   1.919   9.694 -0.2896  1.1137  0.8439
  138CHL1    H616408  -0.049   1.983   9.661 -2.1134 -1.1077  0.9058
  138CHL1    C716409   0.020   1.866   9.836 -0.4059  0.3049  0.1780
  138CHL1   H7A16410  -0.008   1.936   9.918 -0.1118 -0.5171  0.9929
  138CHL1   H7B16411  -0.066   1.796   9.838 -1.8425  2.0011  0.1998
  138CHL1    C816412   0.156   1.809   9.882  0.0800 -0.0531 -1.1165
  138CHL1    H816413   0.224   1.897   9.888  1.0099 -0.8865  2.1472
  138CHL1   C1416414   0.147   1.745  10.022 -0.1086  0.7554  0.3605
  138CHL1   H1416415   0.082   1.656  10.007  1.2031 -0.3180  0.8793
  138CHL1   C1516416   0.083   1.824  10.137 -0.2754  0.4595  0.2371
  138CHL1  H15A16417   0.107   1.932  10.140 -0.8067  0.5694  0.7513
  138CHL1  H15B16418  -0.027   1.815  10.126 -0.1720 -0.9515  0.1633
  138CHL1   C1616419   0.129   1.757  10.265 -0.0270  0.4825  0.1970
  138CHL1  H16A16420   0.192   1.835  10.313  1.4376 -0.0965 -0.6832
  138CHL1  H16B16421   0.045   1.724  10.330  0.1263 -1.2423 -0.4064
  138CHL1   C1716422   0.213   1.634  10.217  0.0234 -0.2946  0.3371
  138CHL1   H1716423   0.140   1.551  10.205 -1.1264  0.6158  0.7596
  138CHL1   C1316424   0.275   1.684  10.079  0.1643  0.1331 -0.2117
  138CHL1   C1816425   0.376   1.806  10.091 -0.0590  0.5198  0.0342
  138CHL1  H18A16426   0.459   1.763  10.151 -0.5708 -1.8366 -0.8059
  138CHL1  H18B16427   0.409   1.829   9.988  0.2420  1.3995  0.3196
  138CHL1  H18C16428   0.336   1.900  10.134  0.0295 -0.6741  2.9772
  138CHL1   C1216429   0.327   1.576   9.985 -0.4540 -0.1424  0.2544
  138CHL1  H12A16430   0.431   1.545  10.010 -1.3716 -1.9419  2.1174
  138CHL1  H12B16431   0.254   1.493   9.993 -1.1284  0.4036 -0.1543
  138CHL1   C1116432   0.344   1.630   9.841 -0.1343 -0.8151 -0.1769
  138CHL1  H11A16433   0.435   1.691   9.853  0.6264 -1.8909 -0.3303
  138CHL1  H11B16434   0.361   1.543   9.774  0.8963 -1.1107  0.4555
  138CHL1    C916435   0.220   1.711   9.780  0.6941 -0.2685  0.2157
  138CHL1    H916436   0.134   1.642   9.764  0.4281  0.1178 -0.0632
  138CHL1   C1016437   0.244   1.789   9.645 -0.0586  0.4406  0.3513
  138CHL1   C1916438   0.375   1.868   9.653 -0.2578  0.8671  0.6557
  138CHL1  H19A16439   0.454   1.793   9.675 -1.0849  0.3955  2.1887
  138CHL1  H19B16440   0.389   1.917   9.554  1.2646 -1.2322 -0.2303
  138CHL1  H19C16441   0.376   1.946   9.733 -0.1704  0.4015  1.1141
  138CHL1    C116442   0.249   1.680   9.530  0.2681 -0.1234  0.2015
  138CHL1   H1A16443   0.340   1.615   9.539  0.3119  0.0587  1.1987
  138CHL1   H1B16444   0.162   1.614   9.550 -0.2394  0.8175  1.2121
  138CHL1    C216445   0.245   1.740   9.389 -0.0617  0.3563  0.2061
  138CHL1   H2A16446   0.237   1.657   9.316  0.0793  0.4017  0.1391
  138CHL1   H2B16447   0.337   1.794   9.358  0.6300 -1.0062 -0.1704
  138CHL1   C2016448   0.304   1.594  10.323 -0.5879  0.2196 -0.0308
  138CHL1   H2016449   0.373   1.681  10.327 -1.0148  0.6433 -1.2773
  138CHL1   C2116450   0.384   1.475  10.274  0.0100  0.1499  0.9141
  138CHL1  H21A16451   0.318   1.404  10.219  0.5949  0.5949 -0.4074
  138CHL1  H21B16452   0.436   1.418  10.354  2.1013 -0.0234 -0.4534
  138CHL1  H21C16453   0.465   1.507  10.204 -0.3072  2.3467  1.4959
  138CHL1   C2216454   0.250   1.547  10.458  0.4326 -0.6424  0.2362
  138CHL1  H22A16455   0.148   1.590  10.473  0.7812  0.0972  0.5371
  138CHL1  H22B16456   0.236   1.437  10.457  0.2732 -0.6295  0.6387
  138CHL1   C2316457   0.338   1.595  10.572 -0.8613  0.3065 -0.1500
  138CHL1  H23A16458   0.444   1.562  10.562 -0.4221  0.4307  3.0498
  138CHL1  H23B16459   0.326   1.705  10.580 -2.5515  0.0822  0.8511
  138CHL1   C2416460   0.303   1.535  10.711  0.1328  0.2908 -0.0713
  138CHL1  H24A16461   0.211   1.586  10.746 -0.2757  0.6552 -1.6073
  138CHL1  H24B16462   0.274   1.428  10.711  0.2256  0.2654 -0.1672
  138CHL1   C2516463   0.411   1.561  10.826  0.3193 -0.5288  0.6116
  138CHL1   H2516464   0.515   1.531  10.803  0.7901  0.7639  0.9819
  138CHL1   C2616465   0.428   1.714  10.855 -0.3926 -0.4293 -0.5297
  138CHL1  H26A16466   0.464   1.764  10.763 -0.7726  1.3066  0.2340
  138CHL1  H26B16467   0.335   1.761  10.893  1.4476  1.9421  1.3990
  138CHL1  H26C16468   0.513   1.726  10.925 -0.8560 -1.0891  0.1663
  138CHL1   C2716469   0.361   1.502  10.957  0.4382  0.5570 -0.3845
  138CHL1  H27A16470   0.436   1.511  11.038  1.3973 -0.9289 -1.0576
  138CHL1  H27B16471   0.270   1.558  10.988 -0.9681 -0.3155 -2.6495
  138CHL1  H27C16472   0.347   1.396  10.927  1.0729  0.9100 -2.0761
  139CHL1    C316473   1.507   1.110   9.889 -0.2769  0.6844  1.2050
  139CHL1    H316474   1.401   1.139   9.876  0.3048  1.9236 -1.2381
  139CHL1    O316475   1.580   1.120   9.763 -0.2923 -0.1765  0.2464
  139CHL1   H3'16476   1.536   1.070   9.695 -0.4944 -1.6035  1.3852
  139CHL1    C416477   1.574   1.212   9.988 -0.2069  0.5449 -0.2562
  139CHL1   H4A16478   1.684   1.200   9.979 -0.3358 -2.6600  1.2385
  139CHL1   H4B16479   1.552   1.313   9.946 -1.9842 -0.1284 -1.0353
  139CHL1    C516480   1.528   1.199  10.131 -0.7202  0.0147  0.1164
  139CHL1    C616481   1.484   1.294  10.203  0.4659 -0.4278  0.1793
  139CHL1    H616482   1.478   1.399  10.171  3.1580  0.1396  1.3060
  139CHL1    C716483   1.447   1.275  10.351 -0.6648 -0.3677 -0.3028
  139CHL1   H7A16484   1.463   1.363  10.417 -0.1468 -1.5201  1.1732
  139CHL1   H7B16485   1.337   1.260  10.355 -0.8302  0.8318  0.0995
  139CHL1    C816486   1.512   1.145  10.412 -0.0402  0.0211 -0.1063
  139CHL1    H816487   1.622   1.150  10.431  0.2773  0.6285 -1.9026
  139CHL1   C1416488   1.450   1.124  10.554  0.2087  1.5982 -0.0492
  139CHL1   H1416489   1.341   1.109  10.539 -0.0147 -0.2527  2.6379
  139CHL1   C1516490   1.466   1.229  10.662  0.1487 -0.3303 -0.3739
  139CHL1  H15A16491   1.576   1.242  10.670  0.2281  0.6799 -2.3307
  139CHL1  H15B16492   1.414   1.325  10.640 -2.2473 -1.2594  0.8294
  139CHL1   C1616493   1.412   1.161  10.791  0.1064 -0.3049  0.0758
  139CHL1  H16A16494   1.464   1.184  10.886  0.6149 -1.2685  0.0408
  139CHL1  H16B16495   1.306   1.190  10.809  0.0760 -0.9251  0.9352
  139CHL1   C1716496   1.409   1.004  10.752 -0.2524 -0.2905  0.6389
  139CHL1   H1716497   1.307   0.997  10.710 -0.6022  0.8697  1.2467
  139CHL1   C1316498   1.497   0.989  10.619 -0.1781 -0.4261 -0.2510
  139CHL1   C1816499   1.647   0.983  10.656 -0.0621  0.4363 -0.3272
  139CHL1  H18A16500   1.701   1.013  10.564 -1.1339 -1.3646 -1.5832
  139CHL1  H18B16501   1.685   1.049  10.738  1.3349 -0.3181 -0.3383
  139CHL1  H18C16502   1.687   0.881  10.674 -2.8971 -0.7191 -0.1686
  139CHL1   C1216503   1.458   0.869  10.530  0.4005 -0.5261  0.1357
  139CHL1  H12A16504   1.492   0.774  10.577 -1.2393 -1.6293 -0.8247
  139CHL1  H12B16505   1.349   0.855  10.517 -0.0229 -0.1155  2.7851
  139CHL1   C1116506   1.529   0.895  10.393  0.2017  0.1250 -0.1285
  139CHL1  H11A16507   1.640   0.893  10.401  0.2843 -2.0876 -0.9783
  139CHL1  H11B16508   1.505   0.814  10.321  1.8494 -0.9036  0.4318
  139CHL1    C916509   1.485   1.027  10.323 -0.3191  0.1250  0.0509
  139CHL1    H916510   1.375   1.027  10.309 -0.3869  0.3545  0.5616
  139CHL1   C1016511   1.540   1.053  10.180 -0.6767 -0.2089  0.2340
  139CHL1   C1916512   1.684   1.014  10.191  0.0161 -0.2057 -0.0202
  139CHL1  H19A16513   1.700   0.905  10.200 -1.8906 -0.4527  0.6764
  139CHL1  H19B16514   1.746   1.034  10.101 -2.3814 -1.3063 -2.0012
  139CHL1  H19C16515   1.732   1.063  10.279  0.3597 -1.3684  0.4632
  139CHL1    C116516   1.466   0.960  10.087  0.9559  0.3950  0.8470
  139CHL1   H1A16517   1.463   0.852  10.113 -0.6883 -0.2691 -1.6860
  139CHL1   H1B16518   1.357   0.982  10.087  0.6312 -1.0195 -0.8018
  139CHL1    C216519   1.513   0.963   9.937  0.6420  0.0212  0.2411
  139CHL1   H2A16520   1.449   0.900   9.872 -1.1238 -0.1030  2.0232
  139CHL1   H2B16521   1.616   0.923   9.928  0.4998 -0.0222 -1.4695
  139CHL1   C2016522   1.426   0.910  10.873 -0.0274  0.0244 -0.3745
  139CHL1   H2016523   1.537   0.911  10.884 -0.0031  0.6678 -0.6715
  139CHL1   C2116524   1.385   0.759  10.841  0.5073 -0.5866 -0.6092
  139CHL1  H21A16525   1.279   0.748  10.808 -0.8123  0.0074  2.9845
  139CHL1  H21B16526   1.378   0.698  10.933 -1.1977 -0.4255 -0.5975
  139CHL1  H21C16527   1.447   0.717  10.759 -1.7909  1.4864 -3.6661
  139CHL1   C2216528   1.378   0.960  11.015  0.1060  0.0774  0.0355
  139CHL1  H22A16529   1.401   0.874  11.081 -2.0944 -0.5121  0.1344
  139CHL1  H22B16530   1.442   1.047  11.040  0.9700 -0.6848  0.5065
  139CHL1   C2316531   1.233   0.988  11.032 -0.5101  0.0227  0.7509
  139CHL1  H23A16532   1.208   1.064  10.955  0.6726  1.1739  1.4628
  139CHL1  H23B16533   1.181   0.895  11.001 -0.3973  0.9877 -2.7623
  139CHL1   C2416534   1.211   1.029  11.176  0.2268  0.6329 -0.1248
  139CHL1  H24A16535   1.239   0.943  11.240  0.8559  0.3283 -0.7859
  139CHL1  H24B16536   1.273   1.119  11.196 -1.4474  1.4144  1.9620
  139CHL1   C2516537   1.069   1.084  11.198 -0.3369  0.1644 -0.2949
  139CHL1   H2516538   1.060   1.171  11.129 -1.8557 -0.5737 -1.0703
  139CHL1   C2616539   0.950   0.990  11.160 -0.0378  0.4977  0.4356
  139CHL1  H26A16540   0.955   0.887  11.203  0.0946  0.8104  1.1938
  139CHL1  H26B16541   0.853   1.027  11.199 -0.8553 -1.8672  0.8432
  139CHL1  H26C16542   0.942   0.973  11.051  0.5096 -0.4599  0.5272
  139CHL1   C2716543   1.058   1.140  11.343 -0.1387  0.7480  0.2530
  139CHL1  H27A16544   1.067   1.054  11.412 -0.1784  0.6656  0.1557
  139CHL1  H27B16545   1.149   1.202  11.358  0.4987  0.2117 -1.2422
  139CHL1  H27C16546   0.965   1.199  11.352 -1.2356 -0.5991 -1.5504
  140CHL1    C316547   1.095   1.564   9.809  0.8926 -0.2872  0.1459
  140CHL1    H316548   1.032   1.473   9.796  3.2065 -2.1065  0.8108
  140CHL1    O316549   1.138   1.626   9.685 -0.7239  0.2521 -0.0070
  140CHL1   H3'16550   1.230   1.602   9.679 -0.7100 -0.5824  2.5108
  140CHL1    C416551   1.012   1.671   9.878 -0.1316  0.2232  0.4387
  140CHL1   H4A16552   1.075   1.763   9.880 -0.8084  0.6946  0.1762
  140CHL1   H4B16553   0.935   1.703   9.805  2.1197  0.8030 -1.8033
  140CHL1    C516554   0.974   1.637  10.022 -0.1640  0.0252 -0.2126
  140CHL1    C616555   0.845   1.647  10.055  0.5053 -0.3590  0.3932
  140CHL1    H616556   0.778   1.691   9.978 -0.6968  2.0254  2.6199
  140CHL1    C716557   0.790   1.619  10.188 -0.1492 -0.1967  0.1687
  140CHL1   H7A16558   0.736   1.713  10.212 -1.5300  0.0152 -3.1973
  140CHL1   H7B16559   0.723   1.534  10.164  1.0691 -0.6159 -2.0421
  140CHL1    C816560   0.895   1.583  10.289 -0.6561  0.4649 -0.0527
  140CHL1    H816561   0.929   1.676  10.339  0.3062 -0.2965  0.7516
  140CHL1   C1416562   0.834   1.490  10.394  0.1223  1.1996  0.5088
  140CHL1   H1416563   0.815   1.393  10.343 -0.4829  1.0962  0.9163
  140CHL1   C1516564   0.701   1.533  10.464 -0.1497 -0.4725 -0.2323
  140CHL1  H15A16565   0.702   1.644  10.467 -0.0211 -0.3555 -2.6154
  140CHL1  H15B16566   0.623   1.494  10.395  0.9301 -0.6679 -1.3857
  140CHL1   C1616567   0.712   1.472  10.605 -0.0750 -0.0169  0.1658
  140CHL1  H16A16568   0.722   1.556  10.678  0.8905  0.8961 -0.9559
  140CHL1  H16B16569   0.620   1.420  10.638  0.9517 -1.6359  0.6181
  140CHL1   C1716570   0.839   1.391  10.617 -0.7195 -0.0184 -0.0214
  140CHL1   H1716571   0.822   1.287  10.582 -0.7971 -0.9881  2.7006
  140CHL1   C1316572   0.932   1.454  10.512 -0.0411 -0.0479 -0.0938
  140CHL1   C1816573   0.998   1.582  10.569  0.1217 -0.3398 -0.6824
  140CHL1  H18A16574   1.048   1.637  10.486 -1.7241  2.3475 -0.1409
  140CHL1  H18B16575   0.916   1.645  10.610  0.2841 -0.1983 -0.5778
  140CHL1  H18C16576   1.073   1.553  10.645 -0.4828 -0.9616 -0.3139
  140CHL1   C1216577   1.044   1.372  10.454  0.3253  0.4431  0.3788
  140CHL1  H12A16578   1.121   1.350  10.532 -0.1113  1.3810  1.0990
  140CHL1  H12B16579   0.990   1.284  10.415  0.1328  1.1490 -1.0158
  140CHL1   C1116580   1.108   1.441  10.336  0.1184  0.0669  0.2228
  140CHL1  H11A16581   1.187   1.509  10.373  0.7952 -0.8900  0.5667
  140CHL1  H11B16582   1.163   1.360  10.283  0.8743 -0.1219  1.2717
  140CHL1    C916583   1.012   1.510  10.234 -0.2014  0.3919  0.4161
  140CHL1    H916584   0.968   1.423  10.182  2.6711 -1.0391  0.1993
  140CHL1   C1016585   1.081   1.580  10.111  0.0109  0.8412 -0.0960
  140CHL1   C1916586   1.165   1.695  10.164 -0.0946  0.0563  0.0990
  140CHL1  H19A16587   1.103   1.779  10.203 -0.0622  0.1490 -0.0489
  140CHL1  H19B16588   1.240   1.668  10.242  0.5978 -3.2207 -1.5173
  140CHL1  H19C16589   1.225   1.744  10.084  0.5864 -2.6583 -1.1738
  140CHL1    C116590   1.165   1.479  10.025 -0.5608 -0.3503 -0.4866
  140CHL1   H1A16591   1.251   1.446  10.087 -0.4066 -1.8067 -1.4428
  140CHL1   H1B16592   1.112   1.381  10.017 -1.0335 -0.0207 -1.5543
  140CHL1    C216593   1.215   1.520   9.886 -0.3708 -0.0110 -0.5876
  140CHL1   H2A16594   1.262   1.429   9.844 -1.8015 -1.7490  1.4056
  140CHL1   H2B16595   1.297   1.595   9.891 -0.1442 -0.1108 -2.2645
  140CHL1   C2016596   0.884   1.376  10.765 -0.2089 -0.4364  0.3322
  140CHL1   H2016597   0.900   1.481  10.800  0.6010 -0.8285  1.1787
  140CHL1   C2116598   1.021   1.306  10.767  0.2996 -0.3789 -0.1468
  140CHL1  H21A16599   1.058   1.265  10.863 -0.6544  0.3794  0.5814
  140CHL1  H21B16600   1.104   1.371  10.733 -0.0376  0.1600  0.0337
  140CHL1  H21C16601   1.017   1.221  10.697 -1.2778  0.3759 -1.0315
  140CHL1   C2216602   0.781   1.298  10.849  0.3916 -0.0940  0.1187
  140CHL1  H22A16603   0.673   1.318  10.833  0.4257  0.9643  1.0749
  140CHL1  H22B16604   0.805   1.195  10.816  0.8149  0.5604 -1.7899
  140CHL1   C2316605   0.801   1.319  11.005 -0.0765  0.5648  0.5926
  140CHL1  H23A16606   0.732   1.257  11.065  0.1945  0.5484  0.8900
  140CHL1  H23B16607   0.898   1.270  11.027 -0.4738 -0.5712 -0.1012
  140CHL1   C2416608   0.791   1.467  11.048  0.0747  0.3802 -0.0550
  140CHL1  H24A16609   0.870   1.526  10.996 -1.4260  0.1784 -2.7123
  140CHL1  H24B16610   0.694   1.515  11.023 -0.1140 -0.7552 -1.6770
  140CHL1   C2516611   0.817   1.490  11.196 -0.3986 -0.4852 -0.5590
  140CHL1   H2516612   0.910   1.435  11.221 -1.2143 -2.5165 -1.7844
  140CHL1   C2616613   0.710   1.431  11.295  0.1465 -0.1331  0.8289
  140CHL1  H26A16614   0.605   1.445  11.260  0.0109 -0.1724  1.2194
  140CHL1  H26B16615   0.708   1.320  11.295 -0.5081 -0.1252  0.5498
  140CHL1  H26C16616   0.723   1.474  11.397  0.8475  4.8730 -1.0883
  140CHL1   C2716617   0.830   1.640  11.232  0.0252 -0.0197  0.0295
  140CHL1  H27A16618   0.930   1.668  11.192 -0.1396  0.1696 -0.2499
  140CHL1  H27B16619   0.749   1.702  11.188  1.5148  2.0786  0.0593
  140CHL1  H27C16620   0.822   1.644  11.343  0.8012  0.3201  0.0858
  141DOPC     N16621   3.279   3.869  14.165 -0.1135  0.4864  0.4738
  141DOPC   C1216622   3.338   3.955  14.051 -0.1542  0.8030  0.1681
  141DOPC  H12A16623   3.367   4.050  14.093 -2.7493  1.5068  0.5655
  141DOPC  H12B16624   3.259   3.978  13.981 -0.0778 -0.5387 -0.3943
  141DOPC   C1316625   3.368   3.872  14.278 -0.1393 -0.1677  0.0910
  141DOPC  H13A16626   3.464   3.829  14.257 -0.3122 -0.6112  0.2053
  141DOPC  H13B16627   3.378   3.974  14.313 -0.5199 -0.0626 -0.0929
  141DOPC  H13C16628   3.322   3.804  14.348 -0.1953  1.3589  1.5925
  141DOPC   C1416629   3.244   3.719  14.133 -0.1158 -0.4051  0.1963
  141DOPC  H14A16630   3.337   3.679  14.095  0.7742  0.4499  1.3949
  141DOPC  H14B16631   3.197   3.660  14.210 -0.7422 -0.6741 -0.3816
  141DOPC  H14C16632   3.169   3.723  14.055 -0.8130  0.5970  0.8926
  141DOPC   C1516633   3.149   3.942  14.203  0.2411 -0.1827 -0.4354
  141DOPC  H15A16634   3.093   3.884  14.275 -0.4916  0.3386 -0.5756
  141DOPC  H15B16635   3.089   3.960  14.115 -0.1246 -0.0969 -0.1740
  141DOPC  H15C16636   3.166   4.043  14.239  1.1741  0.0134 -1.3912
  141DOPC   C1116637   3.452   3.899  13.965 -0.9413  0.1008  0.0737
  141DOPC  H11A16638   3.402   3.813  13.915  0.1015 -0.6424  0.2797
  141DOPC  H11B16639   3.491   3.977  13.896  2.5729  1.5245  3.2958
  141DOPC     P16640   3.695   3.906  14.059 -0.3130 -0.4590 -0.1247
  141DOPC   O1316641   3.757   3.867  14.188 -0.3529  0.3389  0.1746
  141DOPC   O1416642   3.688   4.052  14.038 -0.7593 -0.1679  0.2773
  141DOPC   O1216643   3.551   3.848  14.049 -0.4660 -0.6093 -0.1566
  141DOPC   O1116644   3.769   3.848  13.933  0.2401 -0.8853 -0.5264
  141DOPC    C116645   3.740   3.714  13.895  0.4679  0.2390  1.4026
  141DOPC    HA16646   3.639   3.676  13.921  0.7417 -0.6032  1.2454
  141DOPC    HB16647   3.804   3.652  13.961 -0.1258 -0.6869  1.1256
  141DOPC    C216648   3.772   3.695  13.746  0.2295 -0.6645 -0.4593
  141DOPC    HS16649   3.878   3.726  13.729  0.5891 -1.3786  0.4094
  141DOPC   O2116650   3.678   3.775  13.679 -0.2357  0.4302  0.6159
  141DOPC   C2116651   3.710   3.843  13.574  0.0925  0.4131 -0.7752
  141DOPC   O2216652   3.821   3.868  13.532  0.7504  0.0993 -0.2468
  141DOPC   C2216653   3.582   3.889  13.494  0.3772 -0.2544  0.0967
  141DOPC   H2R16654   3.532   3.939  13.580  1.9992 -0.8225  1.4341
  141DOPC   H2S16655   3.522   3.803  13.458 -1.6285  2.0910 -2.5985
  141DOPC    C316656   3.757   3.545  13.706 -0.0085  0.4738 -0.7834
  141DOPC    HX16657   3.669   3.501  13.758 -0.1627 -0.8385 -2.0886
  141DOPC    HY16658   3.841   3.484  13.745  1.0999  1.5030 -1.4890
  141DOPC   O3116659   3.724   3.524  13.570 -0.1271  0.1358  0.2487
  141DOPC   C3116660   3.837   3.529  13.489  0.9976  0.1460  0.2916
  141DOPC   O3216661   3.951   3.549  13.529  0.3334  0.1489  0.5719
  141DOPC   C3216662   3.786   3.515  13.344 -0.4579 -0.2871  0.0662
  141DOPC   H2X16663   3.785   3.405  13.325  1.1056 -0.5933  1.5076
  141DOPC   H2Y16664   3.687   3.566  13.335  0.3401  2.5041  4.3071
  141DOPC   C2316665   3.599   3.981  13.369 -0.3786 -0.8677 -0.2686
  141DOPC   H3R16666   3.678   4.055  13.395  0.0539 -1.1471 -0.7527
  141DOPC   H3S16667   3.507   4.035  13.337 -0.5124 -0.9385 -0.0054
  141DOPC   C2416668   3.657   3.903  13.251  0.1163  0.4249 -0.2194
  141DOPC   H4R16669   3.590   3.819  13.220 -1.3267  1.7413 -0.7701
  141DOPC   H4S16670   3.754   3.854  13.270  0.2965 -0.5298 -3.0962
  141DOPC   C2516671   3.670   3.990  13.120 -0.6447  0.5098 -0.3280
  141DOPC   H5R16672   3.730   4.083  13.136 -0.8893  0.3951  1.4296
  141DOPC   H5S16673   3.575   4.030  13.080 -0.3276  0.2880 -1.3219
  141DOPC   C2616674   3.749   3.920  12.999 -0.2974 -0.8765 -0.7080
  141DOPC   H6R16675   3.692   3.836  12.956 -1.8439 -1.0978  1.5901
  141DOPC   H6S16676   3.845   3.890  13.047  0.0077  1.6677  0.4506
  141DOPC   C2716677   3.779   4.022  12.883  0.0161  0.1390  0.6662
  141DOPC   H7R16678   3.828   4.117  12.911 -0.9831  1.4808 -1.8726
  141DOPC   H7S16679   3.689   4.045  12.823 -0.1289  0.7844  1.1166
  141DOPC   C2816680   3.874   3.952  12.782  0.0943 -0.5685  0.1387
  141DOPC   H8R16681   3.819   3.868  12.736 -1.7825  0.6324  0.0635
  141DOPC   H8S16682   3.962   3.929  12.845  1.3281  3.0201 -0.0445
  141DOPC   C2916683   3.918   4.046  12.674 -0.2638 -0.2141 -0.1788
  141DOPC   H9R16684   3.989   4.125  12.704  0.1454  0.1711 -2.0293
  141DOPC  C21016685   3.893   4.030  12.548 -0.6205  0.2460 -0.0722
  141DOPC  H10R16686   3.937   4.100  12.476  0.7057 -1.0832 -0.6125
  141DOPC  C21116687   3.808   3.927  12.489  0.1097  0.1795 -0.4396
  141DOPC  H11R16688   3.712   3.913  12.542  0.8846 -2.0282  0.5286
  141DOPC  H11S16689   3.863   3.830  12.497 -0.9565 -0.4338 -0.4311
  141DOPC  C21216690   3.783   3.953  12.348 -0.2854 -0.0808 -0.6627
  141DOPC  H12R16691   3.747   4.055  12.324 -0.4632  0.0549  0.1507
  141DOPC  H12S16692   3.695   3.891  12.318 -0.6633  0.4527 -0.6645
  141DOPC  C21316693   3.904   3.913  12.262 -0.1238 -0.1177  0.0103
  141DOPC  H13R16694   3.930   3.806  12.275  0.2836 -0.2165 -1.3957
  141DOPC  H13S16695   3.989   3.975  12.298 -0.3340 -0.7231  1.6240
  141DOPC  C21416696   3.872   3.940  12.119  0.2979 -0.5767 -0.2083
  141DOPC  H14R16697   3.845   4.048  12.112  1.4144  0.5460  6.0895
  141DOPC  H14S16698   3.790   3.882  12.073 -0.4422  1.7294 -1.9883
  141DOPC  C21516699   3.989   3.895  12.034  0.3804  0.2332 -0.2558
  141DOPC  H15R16700   3.995   3.785  12.050 -2.8466 -0.0847 -0.6469
  141DOPC  H15S16701   4.081   3.939  12.078  1.1855 -1.0512 -0.5691
  141DOPC  C21616702   3.976   3.936  11.888  0.3767 -0.3979  0.5742
  141DOPC  H16R16703   3.897   4.015  11.885  0.0526 -0.7417 -0.4931
  141DOPC  H16S16704   3.943   3.853  11.822 -2.5165 -1.4575  3.1039
  141DOPC  C21716705   4.104   4.001  11.844  0.1789  0.1770 -0.1632
  141DOPC  H17R16706   4.185   3.925  11.843 -1.1687 -1.3166 -1.0828
  141DOPC  H17S16707   4.135   4.084  11.911 -2.5824 -0.2615  1.8321
  141DOPC  C21816708   4.087   4.053  11.698 -0.9806  0.0097  1.0120
  141DOPC  H18R16709   4.071   3.972  11.624 -0.9126  1.3289 -0.5024
  141DOPC  H18S16710   4.174   4.115  11.669 -1.3773 -0.2861 -0.9763
  141DOPC  H18T16711   3.999   4.116  11.673 -0.6530  0.3913  0.8127
  141DOPC   C3316712   3.881   3.573  13.243  0.3775  1.0787 -0.5658
  141DOPC   H3X16713   3.970   3.507  13.232 -0.7481 -0.8537  1.2439
  141DOPC   H3Y16714   3.918   3.671  13.280 -0.3984  1.9938 -2.0907
  141DOPC   C3416715   3.831   3.598  13.100  0.0562 -1.0119  0.2139
  141DOPC   H4X16716   3.915   3.652  13.049 -0.7231  0.1194  0.0804
  141DOPC   H4Y16717   3.738   3.659  13.105  0.8851  0.5096 -1.5419
  141DOPC   C3516718   3.801   3.475  13.015  0.3441 -0.5609 -0.4295
  141DOPC   H5X16719   3.709   3.421  13.044  0.4682 -0.5057  0.0743
  141DOPC   H5Y16720   3.888   3.407  13.034  0.3193 -0.6420 -0.6035
  141DOPC   C3616721   3.773   3.513  12.869  0.1999  0.2513 -0.2605
  141DOPC   H6X16722   3.669   3.550  12.860  0.4494  1.3995  1.2673
  141DOPC   H6Y16723   3.842   3.595  12.839  0.4876 -0.0690 -0.4872
  141DOPC   C3716724   3.800   3.392  12.774 -0.0739  0.0140 -0.5382
  141DOPC   H7X16725   3.906   3.363  12.794 -0.0146  1.7433  2.1763
  141DOPC   H7Y16726   3.729   3.313  12.805 -0.2988 -0.0264 -1.1539
  141DOPC   C3816727   3.783   3.424  12.619  0.1837  0.2268  0.3669
  141DOPC   H8X16728   3.679   3.455  12.598  0.1425  1.1690  1.8771
  141DOPC   H8Y16729   3.808   3.325  12.575 -0.8011 -0.6045  1.6118
  141DOPC   C3916730   3.872   3.536  12.570 -0.4010  0.0358 -0.1527
  141DOPC   H9X16731   3.865   3.630  12.627 -0.8502 -1.0054  1.5991
  141DOPC  C31016732   3.958   3.522  12.469  0.1711  0.5120 -0.1307
  141DOPC  H10X16733   4.014   3.614  12.446  4.1240 -1.0568  2.0979
  141DOPC  C31116734   3.974   3.404  12.380  0.3192 -0.0153  0.7777
  141DOPC  H11X16735   3.961   3.311  12.440 -1.0315 -0.7283 -0.5621
  141DOPC  H11Y16736   4.079   3.408  12.342  0.1272  0.9062  0.3145
  141DOPC  C31216737   3.877   3.395  12.262  0.3034 -0.0554 -0.4357
  141DOPC  H12X16738   3.774   3.373  12.299 -0.3954  2.4256 -0.6903
  141DOPC  H12Y16739   3.923   3.309  12.209  2.1697 -1.1161  2.6282
  141DOPC  C31316740   3.875   3.528  12.186 -0.4668  0.0427 -0.0031
  141DOPC  H13X16741   3.821   3.610  12.239 -0.7782  1.8779 -2.9449
  141DOPC  H13Y16742   3.978   3.554  12.153 -0.6522 -0.0456 -0.6551
  141DOPC  C31416743   3.795   3.521  12.059  0.4088  0.3026 -0.2123
  141DOPC  H14X16744   3.689   3.496  12.079 -0.3614  2.5302 -1.2303
  141DOPC  H14Y16745   3.790   3.622  12.014 -0.6108  0.2431 -0.2484
  141DOPC  C31516746   3.858   3.432  11.952  0.3458 -0.0944 -0.2018
  141DOPC  H15X16747   3.891   3.329  11.981  2.2399  0.6869  0.5862
  141DOPC  H15Y16748   3.955   3.484  11.937 -1.0417  1.7758 -3.9656
  141DOPC  C31616749   3.780   3.435  11.823  0.1182  0.3927 -0.2322
  141DOPC  H16X16750   3.692   3.368  11.832 -0.5183  1.4245  1.7587
  141DOPC  H16Y16751   3.744   3.538  11.801 -2.1810 -0.3828 -0.3737
  141DOPC  C31716752   3.861   3.393  11.704 -0.0310 -0.1006  0.2281
  141DOPC  H17X16753   3.802   3.408  11.611  1.7366  0.1219 -0.9077
  141DOPC  H17Y16754   3.950   3.457  11.686 -1.4173  1.7943 -0.1574
  141DOPC  C31816755   3.892   3.248  11.700  0.3704  0.5115  0.6648
  141DOPC  H18X16756   3.948   3.216  11.610 -1.3029 -1.5128  0.2624
  141DOPC  H18Y16757   3.954   3.231  11.791  0.1088 -0.9038  0.5928
  141DOPC  H18Z16758   3.800   3.186  11.698  0.2631  0.6415  1.2824
  142DOPC     N16759   5.020   3.389  13.815  0.2670  1.0823  0.2740
  142DOPC   C1216760   4.965   3.409  13.674  0.4930 -0.8075  0.3696
  142DOPC  H12A16761   4.867   3.363  13.682  0.3194 -0.1646  3.0343
  142DOPC  H12B16762   5.019   3.350  13.601  0.7492 -0.3909  0.2200
  142DOPC   C1316763   5.154   3.426  13.817  0.3945  0.4729 -0.9267
  142DOPC  H13A16764   5.215   3.357  13.761 -0.3875 -0.6364 -0.4315
  142DOPC  H13B16765   5.172   3.522  13.771  2.8339 -0.7787 -2.8539
  142DOPC  H13C16766   5.205   3.429  13.913 -0.7068  1.1318 -0.3483
  142DOPC   C1416767   5.005   3.249  13.853  0.2858 -0.0166  0.6441
  142DOPC  H14A16768   5.051   3.221  13.947  0.5431 -0.0919  0.4966
  142DOPC  H14B16769   4.902   3.219  13.853 -0.9229  3.5454 -1.9488
  142DOPC  H14C16770   5.059   3.189  13.781  0.0637  1.8491 -1.1522
  142DOPC   C1516771   4.934   3.462  13.915 -0.4058 -0.4187  0.2219
  142DOPC  H15A16772   4.853   3.403  13.954  0.7467 -2.0805  0.2091
  142DOPC  H15B16773   4.908   3.561  13.881 -1.8591 -1.1034 -0.7788
  142DOPC  H15C16774   4.993   3.465  14.006 -0.0175 -2.5737  0.1075
  142DOPC   C1116775   4.958   3.560  13.634  0.2606  0.0580  0.3667
  142DOPC  H11A16776   5.059   3.605  13.647  0.7205 -0.8090 -0.0980
  142DOPC  H11B16777   4.942   3.573  13.525 -0.4288 -1.2211  0.2956
  142DOPC     P16778   4.714   3.643  13.648 -0.4680  0.0084  0.1112
  142DOPC   O1316779   4.644   3.759  13.714  0.2028  0.2470  0.5418
  142DOPC   O1416780   4.651   3.513  13.670 -0.0561  0.3834 -0.2970
  142DOPC   O1216781   4.861   3.635  13.708 -0.6465  0.8579 -0.1189
  142DOPC   O1116782   4.748   3.668  13.502 -0.0507 -0.7566 -0.3323
  142DOPC    C116783   4.771   3.797  13.447  0.5226 -0.1278 -0.4341
  142DOPC    HA16784   4.876   3.830  13.463  0.6719  0.9195 -3.0807
  142DOPC    HB16785   4.701   3.871  13.492  0.0211  0.0158 -1.4304
  142DOPC    C216786   4.740   3.798  13.293 -0.4356  0.7607 -0.0176
  142DOPC    HS16787   4.821   3.850  13.237  0.3700 -0.1138  0.3052
  142DOPC   O2116788   4.610   3.852  13.278  0.1193  0.0833  0.4221
  142DOPC   C2116789   4.600   3.965  13.209 -0.8332 -0.5966  0.2504
  142DOPC   O2216790   4.691   4.035  13.167  0.2161 -0.5819  0.1636
  142DOPC   C2216791   4.452   3.988  13.174 -0.7694  0.4148  0.0885
  142DOPC   H2R16792   4.417   4.049  13.260  1.7894  1.1400  0.7082
  142DOPC   H2S16793   4.396   3.892  13.163 -2.2456  1.1335  1.0090
  142DOPC    C316794   4.741   3.651  13.225 -0.4502  0.2856 -0.2257
  142DOPC    HX16795   4.657   3.595  13.271  1.1027 -0.7705  1.4461
  142DOPC    HY16796   4.838   3.599  13.242 -1.2522 -1.3277 -0.3664
  142DOPC   O3116797   4.710   3.654  13.080 -0.2265  0.0549 -0.0086
  142DOPC   C3116798   4.814   3.685  13.011  0.2265 -0.7032  0.3580
  142DOPC   O3216799   4.927   3.689  13.049  0.2933  0.1724 -0.5193
  142DOPC   C3216800   4.774   3.745  12.869 -0.0285 -0.2341 -0.2561
  142DOPC   H2X16801   4.678   3.797  12.891  0.0953  0.3731 -1.0907
  142DOPC   H2Y16802   4.853   3.819  12.846 -1.3878  1.6044  0.6682
  142DOPC   C2316803   4.442   4.046  13.033  0.2263 -0.3098 -0.9952
  142DOPC   H3R16804   4.485   3.970  12.964  1.2184 -0.0454 -0.6721
  142DOPC   H3S16805   4.515   4.128  13.025  0.3681 -0.0722  1.6864
  142DOPC   C2416806   4.303   4.099  12.989 -0.1573 -0.2740 -0.5740
  142DOPC   H4R16807   4.275   4.175  13.065  0.8231 -0.7282  0.2608
  142DOPC   H4S16808   4.223   4.024  12.971 -0.0592 -0.2505 -1.1272
  142DOPC   C2516809   4.318   4.164  12.848 -1.1402  0.1193  0.4456
  142DOPC   H5R16810   4.394   4.245  12.843 -1.0824  0.0034 -0.6739
  142DOPC   H5S16811   4.222   4.202  12.810 -0.7113 -0.9074 -1.8159
  142DOPC   C2616812   4.351   4.061  12.740  0.8196 -0.3379  0.0284
  142DOPC   H6R16813   4.285   3.973  12.756  0.2202 -0.6224 -3.2382
  142DOPC   H6S16814   4.458   4.037  12.752  0.4476 -3.4834 -1.9569
  142DOPC   C2716815   4.315   4.095  12.597  0.0271 -0.1959  0.0931
  142DOPC   H7R16816   4.370   4.189  12.579 -0.8175  0.4552  0.8335
  142DOPC   H7S16817   4.205   4.110  12.591  0.0624  0.1761  0.3631
  142DOPC   C2816818   4.362   3.976  12.508  0.3862 -0.3151 -0.1504
  142DOPC   H8R16819   4.354   3.876  12.555 -0.0041 -0.9947 -1.5809
  142DOPC   H8S16820   4.468   4.005  12.495  0.2906  0.9494  1.5324
  142DOPC   C2916821   4.284   3.972  12.374  0.5064 -0.7485  0.4030
  142DOPC   H9R16822   4.191   3.914  12.386  0.0589  0.0199  0.6637
  142DOPC  C21016823   4.324   4.011  12.251 -0.3762 -0.7477 -0.8462
  142DOPC  H10R16824   4.263   3.998  12.160 -0.5070  0.9028 -1.0283
  142DOPC  C21116825   4.450   4.084  12.219  0.3412  1.0326  0.3154
  142DOPC  H11R16826   4.502   4.112  12.314 -1.3050 -0.2853  1.6735
  142DOPC  H11S16827   4.432   4.185  12.176  0.9026  1.6557  1.4678
  142DOPC  C21216828   4.543   4.009  12.121  0.0294  0.1386 -0.6008
  142DOPC  H12R16829   4.542   3.901  12.149 -2.2464  0.1406 -0.5139
  142DOPC  H12S16830   4.647   4.049  12.130 -0.5673  1.5137  0.5800
  142DOPC  C21316831   4.489   4.021  11.976 -0.3537  0.0450  0.1081
  142DOPC  H13R16832   4.488   4.131  11.957 -0.8117  0.3733  1.8828
  142DOPC  H13S16833   4.388   3.978  11.961 -0.6054  1.2139 -2.0260
  142DOPC  C21416834   4.578   3.960  11.861  0.5027 -0.2260  0.0976
  142DOPC  H14R16835   4.611   3.859  11.895 -0.5195 -1.1553 -1.5406
  142DOPC  H14S16836   4.673   4.017  11.865  1.2122 -1.4176  1.0914
  142DOPC  C21516837   4.508   3.953  11.727  0.4680  0.0363  0.0295
  142DOPC  H15R16838   4.408   3.907  11.736  0.4884 -0.1219 -0.5396
  142DOPC  H15S16839   4.561   3.880  11.662 -0.5765 -1.4439  0.8072
  142DOPC  C21616840   4.489   4.090  11.659  0.1536 -0.1286  0.5204
  142DOPC  H16R16841   4.588   4.141  11.661  0.6885 -1.1450  1.8402
  142DOPC  H16S16842   4.412   4.155  11.706 -0.9346  1.4799 -3.1672
  142DOPC  C21716843   4.454   4.077  11.504 -0.2968  0.1312 -0.4860
  142DOPC  H17R16844   4.365   4.012  11.489 -0.0103 -0.6712  1.0530
  142DOPC  H17S16845   4.537   4.031  11.446  0.2650  1.9292 -1.1630
  142DOPC  C21816846   4.440   4.217  11.440  0.2244 -0.2456  0.1466
  142DOPC  H18R16847   4.463   4.221  11.332 -0.6548 -0.9422 -0.0774
  142DOPC  H18S16848   4.509   4.286  11.493  0.5895  0.0560 -0.7046
  142DOPC  H18T16849   4.338   4.259  11.452  0.5194  0.4803  0.1340
  142DOPC   C3316850   4.744   3.642  12.752  0.7076 -0.1067 -0.0336
  142DOPC   H3X16851   4.665   3.576  12.793  2.5557 -1.7630  1.0316
  142DOPC   H3Y16852   4.834   3.578  12.735  0.8961  0.4818 -1.3723
  142DOPC   C3416853   4.685   3.703  12.621 -0.0302 -0.6460 -0.2043
  142DOPC   H4X16854   4.755   3.784  12.590  0.7482 -0.4431  1.9542
  142DOPC   H4Y16855   4.591   3.753  12.655 -0.4185 -0.5284 -1.3675
  142DOPC   C3516856   4.660   3.594  12.512  0.0724 -0.3332  0.8510
  142DOPC   H5X16857   4.602   3.509  12.551 -0.2547 -0.4375  0.1368
  142DOPC   H5Y16858   4.765   3.562  12.492 -0.0185  0.8176 -2.0147
  142DOPC   C3616859   4.598   3.656  12.382  1.0873 -0.4023 -0.0055
  142DOPC   H6X16860   4.499   3.702  12.409  0.5633  0.3991 -2.9422
  142DOPC   H6Y16861   4.666   3.736  12.348  2.0593 -0.9366  0.6386
  142DOPC   C3716862   4.578   3.557  12.270 -0.3800  0.0986 -0.7921
  142DOPC   H7X16863   4.676   3.506  12.257  0.6995  1.9589 -0.3082
  142DOPC   H7Y16864   4.512   3.475  12.306  0.2331 -0.6235 -1.2583
  142DOPC   C3816865   4.525   3.610  12.136  0.2092 -0.0273 -0.4128
  142DOPC   H8X16866   4.598   3.682  12.094  0.9169 -0.7301 -0.4160
  142DOPC   H8Y16867   4.426   3.653  12.164  0.8619 -0.0834  2.2742
  142DOPC   C3916868   4.503   3.493  12.041  0.4323  0.0314  0.3284
  142DOPC   H9X16869   4.503   3.395  12.090  0.9338  0.2241  0.7288
  142DOPC  C31016870   4.473   3.499  11.911  0.1476  0.7557 -0.3619
  142DOPC  H10X16871   4.447   3.403  11.864 -0.2327 -0.9128  2.9667
  142DOPC  C31116872   4.456   3.622  11.822 -0.2661 -0.4601 -0.7733
  142DOPC  H11X16873   4.554   3.662  11.789  0.4946 -2.2991 -0.8610
  142DOPC  H11Y16874   4.410   3.700  11.886 -0.0402 -1.1073  0.2143
  142DOPC  C31216875   4.366   3.598  11.699  0.1083 -0.0806  0.1174
  142DOPC  H12X16876   4.347   3.692  11.643  0.2821 -0.0397  0.1289
  142DOPC  H12Y16877   4.262   3.577  11.731 -0.0669  0.1120 -0.3160
  142DOPC  C31316878   4.410   3.484  11.600  0.4243 -0.5520 -0.4562
  142DOPC  H13X16879   4.520   3.493  11.598  0.5889 -2.1744 -0.7755
  142DOPC  H13Y16880   4.382   3.379  11.626 -2.1007  0.8095  3.0816
  142DOPC  C31416881   4.369   3.509  11.458 -0.0952 -0.0093  0.0433
  142DOPC  H14X16882   4.258   3.519  11.460 -0.6103 -3.8078 -1.4405
  142DOPC  H14Y16883   4.416   3.603  11.421 -0.7224 -0.1248 -1.0789
  142DOPC  C31516884   4.404   3.412  11.353 -0.4389 -0.2806  0.2038
  142DOPC  H15X16885   4.386   3.312  11.397 -0.8633  0.3660  1.6001
  142DOPC  H15Y16886   4.512   3.408  11.330 -0.5854 -0.4957 -0.4671
  142DOPC  C31616887   4.318   3.432  11.228 -0.4398  0.0892  0.3760
  142DOPC  H16X16888   4.208   3.422  11.245 -1.1574  0.4211 -3.2544
  142DOPC  H16Y16889   4.352   3.530  11.191  0.2361  0.0890  0.9849
  142DOPC  C31716890   4.342   3.326  11.115 -0.1057  0.1162 -0.3633
  142DOPC  H17X16891   4.444   3.346  11.075 -0.9734  0.1609 -2.7228
  142DOPC  H17Y16892   4.346   3.225  11.161 -0.7589  0.7611  1.1539
  142DOPC  C31816893   4.246   3.325  10.998  0.1024 -0.5247  0.6030
  142DOPC  H18X16894   4.225   3.418  10.941  1.4556 -1.1162 -0.9205
  142DOPC  H18Y16895   4.294   3.252  10.929 -1.4548 -2.2002  1.1917
  142DOPC  H18Z16896   4.146   3.292  11.035  0.2690 -0.7035  0.8998
  143DOPC     N16897   2.822   5.170  13.848 -0.1513  0.1992  0.0883
  143DOPC   C1216898   2.719   5.202  13.743 -0.5091 -0.4114 -0.6111
  143DOPC  H12A16899   2.727   5.305  13.711 -0.2974 -0.8116 -1.8928
  143DOPC  H12B16900   2.625   5.186  13.794 -0.5759  2.1215  0.2139
  143DOPC   C1316901   2.964   5.161  13.790  0.3525 -0.0194 -0.6471
  143DOPC  H13A16902   2.975   5.088  13.711  0.6449 -2.6601  1.6980
  143DOPC  H13B16903   3.005   5.256  13.756  0.6153 -0.2160 -0.8882
  143DOPC  H13C16904   3.034   5.141  13.870  2.2960 -0.7910 -2.4578
  143DOPC   C1416905   2.785   5.042  13.917  0.9678  0.5752 -0.0804
  143DOPC  H14A16906   2.867   4.994  13.967  0.5531 -0.5284 -0.4298
  143DOPC  H14B16907   2.722   5.064  14.002  0.3787 -0.0577 -0.3400
  143DOPC  H14C16908   2.756   4.967  13.845  0.2476  0.3317  0.4514
  143DOPC   C1516909   2.812   5.277  13.953 -0.8243  0.5744  0.0408
  143DOPC  H15A16910   2.855   5.245  14.047 -0.1901  0.5032 -0.2720
  143DOPC  H15B16911   2.707   5.300  13.967 -2.2891 -3.3183 -2.7059
  143DOPC  H15C16912   2.867   5.363  13.920  1.6943 -2.4044 -4.6441
  143DOPC   C1116913   2.718   5.115  13.616  0.1874 -0.4574 -0.5529
  143DOPC  H11A16914   2.712   5.015  13.663 -0.4155  0.9426  2.5957
  143DOPC  H11B16915   2.633   5.133  13.547  0.6565 -0.4778 -1.1469
  143DOPC     P16916   2.868   5.245  13.436  0.1769 -0.1465 -0.3683
  143DOPC   O1316917   3.011   5.261  13.411  0.0145  0.3585 -0.2318
  143DOPC   O1416918   2.792   5.365  13.479 -0.2328  0.0455  0.1656
  143DOPC   O1216919   2.845   5.126  13.546 -0.2891 -0.0235  0.3106
  143DOPC   O1116920   2.814   5.193  13.292  0.6737 -0.0389 -0.0500
  143DOPC    C116921   2.868   5.076  13.231 -0.4964  0.1117 -0.4513
  143DOPC    HA16922   2.886   5.003  13.313  0.6669  4.0778  3.2481
  143DOPC    HB16923   2.966   5.096  13.183 -0.9855 -1.4741 -2.1944
  143DOPC    C216924   2.770   5.013  13.125  0.7685  0.4794 -0.2262
  143DOPC    HS16925   2.803   4.909  13.101 -1.1860 -0.2352  0.0357
  143DOPC   O2116926   2.768   5.095  13.004  0.2706  0.2959  0.2209
  143DOPC   C2116927   2.874   5.089  12.920  0.5496  0.7683  0.0144
  143DOPC   O2216928   2.976   5.025  12.939 -0.4961 -0.2864  0.2646
  143DOPC   C2216929   2.842   5.190  12.804  0.1578 -0.6948 -0.6111
  143DOPC   H2R16930   2.880   5.287  12.840  1.1692 -1.6938  1.1882
  143DOPC   H2S16931   2.731   5.199  12.803 -0.0443 -2.6887 -0.8656
  143DOPC    C316932   2.632   4.989  13.204  0.2007 -0.3686 -0.5480
  143DOPC    HX16933   2.623   5.089  13.251 -2.0160 -1.1213  0.7900
  143DOPC    HY16934   2.651   4.917  13.286 -0.4908  0.3521  0.2595
  143DOPC   O3116935   2.531   4.947  13.109 -0.6506 -0.1051 -0.0387
  143DOPC   C3116936   2.457   5.043  13.058 -0.4660  0.1697  0.6636
  143DOPC   O3216937   2.442   5.157  13.106  0.2221 -0.4908 -0.3095
  143DOPC   C3216938   2.386   5.006  12.927  0.3498  0.5877 -0.1956
  143DOPC   H2X16939   2.443   4.927  12.874 -0.9609 -0.9239  0.5569
  143DOPC   H2Y16940   2.288   4.965  12.961 -0.0270  1.2007 -0.5156
  143DOPC   C2316941   2.902   5.151  12.671 -0.7491  0.2503  0.2666
  143DOPC   H3R16942   2.831   5.077  12.629 -0.1299  0.3942 -1.1181
  143DOPC   H3S16943   3.004   5.110  12.686  0.8805  2.8214 -2.4176
  143DOPC   C2416944   2.909   5.264  12.561 -0.1688 -0.3682 -0.7742
  143DOPC   H4R16945   2.989   5.333  12.593  0.4083 -2.5095  3.0789
  143DOPC   H4S16946   2.810   5.312  12.569  0.2972  0.6258 -0.8744
  143DOPC   C2516947   2.912   5.205  12.420 -0.0274 -0.5456  0.1757
  143DOPC   H5R16948   2.821   5.142  12.411 -0.3127  0.1556 -2.6739
  143DOPC   H5S16949   3.001   5.139  12.415  1.0927  0.9158 -0.0094
  143DOPC   C2616950   2.913   5.312  12.313  0.0881  0.2961  0.1079
  143DOPC   H6R16951   3.003   5.374  12.334  0.8465 -0.8822  0.3993
  143DOPC   H6S16952   2.827   5.378  12.290 -0.6451 -0.6985 -0.0196
  143DOPC   C2716953   2.939   5.234  12.181 -0.2437 -0.5330 -0.1301
  143DOPC   H7R16954   2.856   5.166  12.154 -1.2462  1.3611 -2.2026
  143DOPC   H7S16955   3.037   5.184  12.192  0.1205 -0.0047 -0.8929
  143DOPC   C2816956   2.954   5.330  12.056  0.3947  0.4818  0.0963
  143DOPC   H8R16957   3.012   5.269  11.984 -0.4497 -1.9712  1.3769
  143DOPC   H8S16958   3.018   5.419  12.075 -0.0996  1.1167 -1.0862
  143DOPC   C2916959   2.823   5.374  11.993 -1.0224  0.0377 -0.2286
  143DOPC   H9R16960   2.742   5.386  12.067 -0.1391 -0.3915  0.8543
  143DOPC  C21016961   2.800   5.397  11.862  0.1138 -0.1034 -0.9466
  143DOPC  H10R16962   2.710   5.450  11.828  0.2175  0.1517 -0.8311
  143DOPC  C21116963   2.897   5.377  11.751  0.5481 -0.8757 -0.2923
  143DOPC  H11R16964   3.000   5.356  11.788  0.5539  0.5198  0.5527
  143DOPC  H11S16965   2.911   5.468  11.688 -0.2725 -2.0923 -2.3460
  143DOPC  C21216966   2.848   5.265  11.652 -0.8900 -0.4809 -0.5319
  143DOPC  H12R16967   2.743   5.289  11.626  0.2381  2.8895 -2.5840
  143DOPC  H12S16968   2.830   5.172  11.710 -1.0468 -0.3283 -0.3302
  143DOPC  C21316969   2.931   5.258  11.527  0.0205  0.1138  0.4918
  143DOPC  H13R16970   3.039   5.255  11.552  0.3002 -1.1567 -0.7500
  143DOPC  H13S16971   2.922   5.338  11.451  1.6032 -2.6375 -2.9090
  143DOPC  C21416972   2.892   5.129  11.451 -0.1625  0.3197  0.2328
  143DOPC  H14R16973   2.891   5.047  11.526  0.8672  0.9928  1.0032
  143DOPC  H14S16974   2.971   5.097  11.380 -0.5310 -0.3773  0.1200
  143DOPC  C21516975   2.763   5.146  11.370  0.2186 -0.2675  0.2341
  143DOPC  H15R16976   2.770   5.217  11.284 -2.5172  0.3257  0.4211
  143DOPC  H15S16977   2.681   5.189  11.430  0.3123 -0.8512  0.7893
  143DOPC  C21616978   2.701   5.019  11.305  0.4493 -0.5837  0.2572
  143DOPC  H16R16979   2.664   4.959  11.390  0.1605  0.3679  0.8192
  143DOPC  H16S16980   2.780   4.967  11.247  1.7999  1.5281  0.0509
  143DOPC  C21716981   2.583   5.055  11.209  0.0086  0.4301  0.6008
  143DOPC  H17R16982   2.615   5.138  11.143 -2.1446  3.1507  2.7223
  143DOPC  H17S16983   2.498   5.098  11.267  0.3899  2.3407 -0.1816
  143DOPC  C21816984   2.526   4.935  11.130 -0.7897 -0.6739  0.4027
  143DOPC  H18R16985   2.620   4.894  11.087  0.5218  0.7136  1.7936
  143DOPC  H18S16986   2.457   4.948  11.044 -0.1088 -3.2409 -0.6455
  143DOPC  H18T16987   2.467   4.871  11.199 -2.7191  0.4154 -0.1728
  143DOPC   C3316988   2.354   5.124  12.837 -0.0789  0.0457  1.0875
  143DOPC   H3X16989   2.397   5.218  12.878  0.3637 -0.8401  2.7518
  143DOPC   H3Y16990   2.248   5.151  12.820  0.3369  1.7393  0.9941
  143DOPC   C3416991   2.423   5.112  12.697 -0.2657  0.5390 -0.0762
  143DOPC   H4X16992   2.397   5.021  12.638  2.2960 -1.1372  1.1960
  143DOPC   H4Y16993   2.533   5.098  12.709 -0.1862 -0.1771 -1.3951
  143DOPC   C3516994   2.401   5.226  12.597  0.4047 -0.3167 -0.6067
  143DOPC   H5X16995   2.455   5.316  12.634  1.3211 -1.0335 -0.1456
  143DOPC   H5Y16996   2.297   5.263  12.593 -0.0883 -1.5698 -0.1069
  143DOPC   C3616997   2.457   5.193  12.461  0.4884  0.4185 -0.4919
  143DOPC   H6X16998   2.561   5.153  12.466  0.1502 -0.5032  4.0586
  143DOPC   H6Y16999   2.392   5.112  12.423  0.5070  0.3133 -0.3041
  143DOPC   C3717000   2.444   5.301  12.359  0.6595 -0.4153  0.3026
  143DOPC   H7X17001   2.338   5.333  12.367  0.9233  0.0609  2.3199
  143DOPC   H7Y17002   2.493   5.383  12.414  0.6702  1.3123 -2.1235
  143DOPC   C3817003   2.501   5.290  12.216  0.6587  0.1282  0.1026
  143DOPC   H8X17004   2.600   5.241  12.208  0.0567 -1.2709  0.9515
  143DOPC   H8Y17005   2.518   5.395  12.183  2.0434 -0.2357 -0.3752
  143DOPC   C3917006   2.396   5.221  12.131  0.5584 -0.2642 -0.6070
  143DOPC   H9X17007   2.325   5.165  12.193  1.3000 -1.4645 -0.8108
  143DOPC  C31017008   2.404   5.184  12.003 -0.6330 -0.0433  0.3597
  143DOPC  H10X17009   2.326   5.119  11.961  1.0634 -1.8194 -0.2350
  143DOPC  C31117010   2.501   5.237  11.906  0.3542  0.8791  0.2935
  143DOPC  H11X17011   2.596   5.182  11.924 -0.0765 -0.0421 -0.1583
  143DOPC  H11Y17012   2.521   5.344  11.928 -0.4574  1.2229 -0.5669
  143DOPC  C31217013   2.448   5.229  11.758 -0.5601 -0.7437 -0.0162
  143DOPC  H12X17014   2.498   5.302  11.690 -2.2606 -0.9820 -1.6293
  143DOPC  H12Y17015   2.339   5.254  11.752 -0.5072 -0.4719  0.1319
  143DOPC  C31317016   2.469   5.087  11.686  0.1826  0.3629 -0.0179
  143DOPC  H13X17017   2.580   5.090  11.684  0.2599 -1.7897 -0.9011
  143DOPC  H13Y17018   2.423   5.007  11.748  0.9016  1.0041  1.3919
  143DOPC  C31417019   2.408   5.086  11.539  0.2326  0.3306 -0.3412
  143DOPC  H14X17020   2.402   5.193  11.509  1.5518  1.1301  2.0522
  143DOPC  H14Y17021   2.484   5.039  11.472 -0.5643  0.1296 -1.1342
  143DOPC  C31517022   2.266   5.027  11.534 -1.0812 -0.0891 -0.0892
  143DOPC  H15X17023   2.220   5.067  11.626  0.7614 -1.7805  1.6638
  143DOPC  H15Y17024   2.269   4.916  11.546 -1.6413 -0.3805 -2.2177
  143DOPC  C31617025   2.183   5.057  11.412 -0.4980 -0.4929 -0.8657
  143DOPC  H16X17026   2.170   5.167  11.417  0.1021 -0.4174 -0.8537
  143DOPC  H16Y17027   2.236   5.026  11.319  3.1936 -0.4179  1.0004
  143DOPC  C31717028   2.045   4.999  11.409 -0.2809 -0.1659 -0.6781
  143DOPC  H17X17029   2.043   4.888  11.412 -0.5723 -0.1773 -1.1837
  143DOPC  H17Y17030   1.998   5.020  11.508 -1.1082 -1.6724 -0.7344
  143DOPC  C31817031   1.952   5.056  11.296  0.1436  0.7841 -0.2547
  143DOPC  H18X17032   1.948   5.167  11.296  1.6078  0.8753  1.3014
  143DOPC  H18Y17033   1.974   5.019  11.194  0.9105  0.7366 -0.0764
  143DOPC  H18Z17034   1.851   5.015  11.321  0.4348  0.1230 -0.1385
  144DOPC     N17035   2.548   4.336  14.263 -0.2369  0.5394  0.2730
  144DOPC   C1217036   2.565   4.214  14.173  0.3743  0.7691  0.8033
  144DOPC  H12A17037   2.527   4.126  14.223 -1.0038  1.2292  0.5994
  144DOPC  H12B17038   2.672   4.201  14.174  0.0752 -2.4489  2.2526
  144DOPC   C1317039   2.407   4.351  14.302 -0.0970 -0.0592  0.5619
  144DOPC  H13A17040   2.389   4.444  14.352 -3.1100 -0.3858  0.2629
  144DOPC  H13B17041   2.342   4.361  14.216  0.5381 -0.7653 -0.0181
  144DOPC  H13C17042   2.370   4.268  14.362 -1.4356  0.4390  0.4633
  144DOPC   C1417043   2.588   4.457  14.189  0.5876  0.3997 -0.1121
  144DOPC  H14A17044   2.690   4.451  14.153  0.1169 -1.6085 -1.2454
  144DOPC  H14B17045   2.525   4.495  14.109  1.9548  2.7551 -0.1656
  144DOPC  H14C17046   2.586   4.539  14.259 -0.8518 -0.4152  0.8341
  144DOPC   C1517047   2.632   4.325  14.382 -0.2025  0.1178 -0.3966
  144DOPC  H15A17048   2.740   4.334  14.378  0.2402 -1.9528  2.8773
  144DOPC  H15B17049   2.617   4.228  14.428  1.3630 -0.1809 -0.4406
  144DOPC  H15C17050   2.605   4.391  14.463 -0.3598 -1.1262  0.5940
  144DOPC   C1117051   2.514   4.218  14.027  0.1275 -0.0466 -0.5339
  144DOPC  H11A17052   2.542   4.119  13.985  0.0237 -1.7824  3.0606
  144DOPC  H11B17053   2.404   4.225  14.031  0.0781 -1.0760  0.4806
  144DOPC     P17054   2.669   4.323  13.828  0.1779  0.1208 -0.0971
  144DOPC   O1317055   2.735   4.191  13.825 -0.3070 -0.2250 -0.3896
  144DOPC   O1417056   2.760   4.438  13.845 -0.5577  0.1120 -0.6548
  144DOPC   O1217057   2.554   4.322  13.937  0.2088  0.2106 -0.4230
  144DOPC   O1117058   2.588   4.345  13.703  0.6446 -0.2252  0.2398
  144DOPC    C117059   2.511   4.250  13.632  1.4120  0.3513 -0.7849
  144DOPC    HA17060   2.414   4.230  13.681  1.4894 -2.6562 -1.6609
  144DOPC    HB17061   2.560   4.151  13.642  1.0398  0.0951 -1.4899
  144DOPC    C217062   2.506   4.287  13.489  0.3113  0.1031 -0.0642
  144DOPC    HS17063   2.613   4.301  13.460  0.0199  4.7700  0.3890
  144DOPC   O2117064   2.428   4.411  13.481 -0.4089  0.1221 -0.5168
  144DOPC   C2117065   2.452   4.486  13.370 -0.0245  0.1005 -1.1339
  144DOPC   O2217066   2.542   4.478  13.293  0.2094 -0.0205 -0.1923
  144DOPC   C2217067   2.342   4.591  13.361  0.2714  0.0329  0.6684
  144DOPC   H2R17068   2.394   4.681  13.402  3.5489 -1.4796  0.1725
  144DOPC   H2S17069   2.252   4.555  13.415 -0.2817  0.3530 -0.0186
  144DOPC    C317070   2.440   4.176  13.402  0.1945  0.1135  0.3954
  144DOPC    HX17071   2.334   4.177  13.435 -0.3297  0.6253 -1.1791
  144DOPC    HY17072   2.486   4.080  13.433  0.8485  0.5211  0.7230
  144DOPC   O3117073   2.441   4.203  13.258  0.2254  0.3241  0.2534
  144DOPC   C3117074   2.552   4.164  13.200  0.0634 -0.0014  0.6057
  144DOPC   O3217075   2.641   4.105  13.251 -0.1026 -0.6549  0.6087
  144DOPC   C3217076   2.558   4.210  13.050 -0.3843  0.9842 -0.3399
  144DOPC   H2X17077   2.497   4.136  12.994 -0.0246 -0.0564  0.5953
  144DOPC   H2Y17078   2.516   4.312  13.035  0.8776  1.6430  0.3919
  144DOPC   C2317079   2.300   4.625  13.214 -0.3428 -0.8193 -0.6124
  144DOPC   H3R17080   2.391   4.645  13.154  1.2739  0.8701  2.2060
  144DOPC   H3S17081   2.244   4.721  13.216  0.1459 -0.4947 -1.6804
  144DOPC   C2417082   2.203   4.533  13.140 -0.3265  0.6219  0.5694
  144DOPC   H4R17083   2.114   4.514  13.203  0.1495  1.3796  1.4908
  144DOPC   H4S17084   2.250   4.435  13.119 -1.1296  0.4919 -0.8124
  144DOPC   C2517085   2.157   4.586  13.004  0.5718  0.0587  0.4192
  144DOPC   H5R17086   2.124   4.689  13.031 -0.1647 -1.2514  5.6782
  144DOPC   H5S17087   2.071   4.524  12.973  0.4806  0.4829 -0.1929
  144DOPC   C2617088   2.268   4.568  12.897  0.0105  0.3182 -0.0757
  144DOPC   H6R17089   2.275   4.458  12.883  1.0671  0.5649 -1.8484
  144DOPC   H6S17090   2.368   4.597  12.937  0.0467  2.4851 -1.5441
  144DOPC   C2717091   2.245   4.650  12.778 -0.2727 -0.3339  0.4030
  144DOPC   H7R17092   2.222   4.755  12.803 -0.0071 -0.3899  0.8939
  144DOPC   H7S17093   2.161   4.597  12.729  0.1043 -0.2395 -0.3641
  144DOPC   C2817094   2.361   4.634  12.673  0.7969  0.1988  0.5359
  144DOPC   H8R17095   2.341   4.703  12.588  0.2289  0.2151  0.6847
  144DOPC   H8S17096   2.360   4.531  12.629  1.3499 -0.4473  1.9643
  144DOPC   C2917097   2.500   4.658  12.724 -0.1988 -0.3470  0.2899
  144DOPC   H9R17098   2.523   4.606  12.819  0.0528 -1.4869 -0.3718
  144DOPC  C21017099   2.604   4.715  12.660  0.3455  0.0223 -0.2854
  144DOPC  H10R17100   2.705   4.721  12.703  0.7863 -1.4290 -1.0517
  144DOPC  C21117101   2.601   4.767  12.518 -0.4286 -0.5906  0.5904
  144DOPC  H11R17102   2.592   4.878  12.513 -0.6149 -0.6721 -2.2335
  144DOPC  H11S17103   2.520   4.717  12.461  1.2343  0.3953 -2.9431
  144DOPC  C21217104   2.734   4.738  12.442  0.0243 -0.2737  0.2177
  144DOPC  H12R17105   2.753   4.632  12.413 -1.0564 -0.1414 -1.0759
  144DOPC  H12S17106   2.821   4.769  12.504 -1.4781 -0.0558  2.2915
  144DOPC  C21317107   2.742   4.818  12.309  0.4472  0.4533  0.3075
  144DOPC  H13R17108   2.712   4.922  12.335 -0.0157  0.3735  0.1124
  144DOPC  H13S17109   2.679   4.770  12.231 -1.6929 -0.2577  2.3355
  144DOPC  C21417110   2.887   4.841  12.259  0.3679  0.3235 -0.3273
  144DOPC  H14R17111   2.934   4.742  12.281 -0.0561  0.2793  0.4344
  144DOPC  H14S17112   2.943   4.914  12.321  2.0288 -2.6564  2.0043
  144DOPC  C21517113   2.890   4.872  12.108  0.5799 -0.0536 -0.6428
  144DOPC  H15R17114   2.843   4.972  12.098 -0.3115 -0.2406  1.2212
  144DOPC  H15S17115   2.837   4.795  12.048 -0.8943  0.5967 -0.1927
  144DOPC  C21617116   3.039   4.888  12.069  0.1696 -0.0655 -0.3257
  144DOPC  H16R17117   3.099   4.799  12.099  0.7723  1.0148  1.8991
  144DOPC  H16S17118   3.082   4.981  12.112  0.5613 -0.6306  0.5259
  144DOPC  C21717119   3.049   4.891  11.918  0.0149  0.4736  0.5162
  144DOPC  H17R17120   2.974   4.822  11.872  0.7735  0.3139 -0.5210
  144DOPC  H17S17121   3.153   4.862  11.892 -0.3011  0.3927 -0.7228
  144DOPC  C21817122   3.031   5.039  11.863  0.7185 -0.2602  0.7244
  144DOPC  H18R17123   3.090   5.108  11.926  0.0300 -0.8382  2.0566
  144DOPC  H18S17124   2.925   5.072  11.864  0.8080  0.2308 -1.6743
  144DOPC  H18T17125   3.073   5.027  11.761 -0.3715 -0.5011  0.2846
  144DOPC   C3317126   2.706   4.221  13.001 -0.0681 -0.5235 -0.1295
  144DOPC   H3X17127   2.747   4.118  12.990  0.5298 -0.1654 -1.4380
  144DOPC   H3Y17128   2.756   4.279  13.081 -0.5036  0.8345 -0.8203
  144DOPC   C3417129   2.720   4.291  12.869 -0.0284  0.2983 -0.3582
  144DOPC   H4X17130   2.825   4.326  12.864  0.9686 -2.3984  0.4230
  144DOPC   H4Y17131   2.658   4.384  12.872 -1.6564 -0.7433 -0.4865
  144DOPC   C3517132   2.686   4.208  12.740 -0.2853 -0.3185 -1.0285
  144DOPC   H5X17133   2.595   4.157  12.780  0.3178  0.4451  1.5385
  144DOPC   H5Y17134   2.769   4.137  12.717 -0.4412 -0.4499 -1.1838
  144DOPC   C3617135   2.670   4.298  12.619  0.7120  0.4622  0.1014
  144DOPC   H6X17136   2.574   4.345  12.650 -0.1767 -1.3546  0.2341
  144DOPC   H6Y17137   2.751   4.374  12.614  0.4618  0.7119 -0.2272
  144DOPC   C3717138   2.648   4.216  12.493 -0.0917 -0.2232 -0.3456
  144DOPC   H7X17139   2.743   4.194  12.440  0.4472 -1.3841  1.0379
  144DOPC   H7Y17140   2.620   4.116  12.533  0.0796  0.3526  1.2865
  144DOPC   C3817141   2.531   4.273  12.409  0.0449 -0.1689  0.6991
  144DOPC   H8X17142   2.446   4.289  12.478 -1.2320 -3.2231 -0.0073
  144DOPC   H8Y17143   2.496   4.203  12.331  1.4837  0.4251 -0.5383
  144DOPC   C3917144   2.572   4.407  12.346  0.2994 -0.0435 -0.0185
  144DOPC   H9X17145   2.555   4.490  12.417 -3.5373 -0.6101 -0.0515
  144DOPC  C31017146   2.624   4.440  12.221 -0.0355  0.4893  0.3546
  144DOPC  H10X17147   2.660   4.542  12.199 -0.3324  0.0139 -2.8468
  144DOPC  C31117148   2.666   4.336  12.120  0.3150 -0.3569 -0.1219
  144DOPC  H11X17149   2.632   4.231  12.136  1.2018 -0.5526  0.6036
  144DOPC  H11Y17150   2.777   4.339  12.112  0.2847  0.0391 -0.4369
  144DOPC  C31217151   2.614   4.375  11.982  0.0628 -0.7495  0.2876
  144DOPC  H12X17152   2.667   4.324  11.899  0.8270  0.8472 -0.2505
  144DOPC  H12Y17153   2.629   4.484  11.967 -1.7064 -0.5996 -0.5585
  144DOPC  C31317154   2.463   4.329  11.965 -0.5673 -0.2254  0.1665
  144DOPC  H13X17155   2.471   4.220  11.984  1.7826 -0.0971  0.2583
  144DOPC  H13Y17156   2.407   4.383  12.044  1.2113  0.0077  1.3382
  144DOPC  C31417157   2.413   4.365  11.830  0.3389  0.7651  0.4200
  144DOPC  H14X17158   2.304   4.345  11.821  0.5338 -0.1111 -0.0919
  144DOPC  H14Y17159   2.431   4.471  11.802 -0.1907  0.9213  0.6649
  144DOPC  C31517160   2.490   4.294  11.717 -0.4967  0.2491  0.6717
  144DOPC  H15X17161   2.502   4.188  11.748  0.3159 -0.0248 -0.4930
  144DOPC  H15Y17162   2.594   4.333  11.714 -1.1019  1.8723 -0.7320
  144DOPC  C31617163   2.424   4.291  11.580 -0.2839 -0.6238 -0.2286
  144DOPC  H16X17164   2.321   4.249  11.577 -1.0230  1.1598 -2.9335
  144DOPC  H16Y17165   2.408   4.397  11.552  0.0384 -0.8312 -1.2393
  144DOPC  C31717166   2.495   4.212  11.463  0.8232  0.3337  0.2667
  144DOPC  H17X17167   2.602   4.242  11.452  0.9115 -0.2877 -0.8069
  144DOPC  H17Y17168   2.482   4.105  11.492  0.6890  0.2039 -0.2467
  144DOPC  C31817169   2.419   4.223  11.338 -0.1332 -0.6249  0.2596
  144DOPC  H18X17170   2.468   4.164  11.258 -0.8636 -1.0724  0.1233
  144DOPC  H18Y17171   2.315   4.187  11.356 -0.4635  0.3923  0.4392
  144DOPC  H18Z17172   2.420   4.325  11.296 -2.8455 -1.1760 -1.4734
  145DOPC     N17173   3.724   6.351  13.663  0.0269  0.1698 -0.2927
  145DOPC   C1217174   3.628   6.316  13.557 -0.0769  1.1751  0.5690
  145DOPC  H12A17175   3.524   6.341  13.575 -0.8175 -0.9043 -0.4548
  145DOPC  H12B17176   3.623   6.208  13.554  2.5433  1.0240 -0.0308
  145DOPC   C1317177   3.678   6.294  13.793  0.3922 -0.4908  0.1834
  145DOPC  H13A17178   3.744   6.317  13.875 -0.1610  2.4164 -0.1015
  145DOPC  H13B17179   3.580   6.333  13.817 -0.0555 -1.5873  0.2033
  145DOPC  H13C17180   3.671   6.186  13.789  0.1289 -0.4402 -1.1973
  145DOPC   C1417181   3.743   6.497  13.679 -0.8187  0.0032 -0.5189
  145DOPC  H14A17182   3.666   6.544  13.740 -0.4420 -1.1145  0.8744
  145DOPC  H14B17183   3.833   6.527  13.730 -0.7902 -0.8962  0.0001
  145DOPC  H14C17184   3.736   6.540  13.580  0.3634  1.3200 -0.0624
  145DOPC   C1517185   3.861   6.303  13.631  0.7524 -0.2335  0.3103
  145DOPC  H15A17186   3.907   6.278  13.725 -3.0584  0.0039  2.4230
  145DOPC  H15B17187   3.913   6.374  13.569 -0.7751  0.1396 -0.5964
  145DOPC  H15C17188   3.848   6.215  13.569  0.0154  0.1668 -0.1163
  145DOPC   C1117189   3.652   6.375  13.416  0.0862  0.3378 -0.9800
  145DOPC  H11A17190   3.758   6.376  13.381  0.8559  0.5741  1.1778
  145DOPC  H11B17191   3.600   6.311  13.342  1.1636 -0.8578 -0.7287
  145DOPC     P17192   3.455   6.543  13.422  0.1147 -0.3639 -0.4908
  145DOPC   O1317193   3.424   6.676  13.359 -0.2287 -0.5721  0.3951
  145DOPC   O1417194   3.414   6.535  13.562  0.0947 -0.0502  0.1912
  145DOPC   O1217195   3.609   6.508  13.403 -0.3221  0.5895  0.1608
  145DOPC   O1117196   3.382   6.434  13.339  0.0585 -0.5414 -0.3185
  145DOPC    C117197   3.257   6.458  13.277 -0.2995  0.6166  0.1764
  145DOPC    HA17198   3.222   6.561  13.297  0.2368  0.7540  0.4448
  145DOPC    HB17199   3.180   6.390  13.320 -0.6193 -0.5446 -2.0710
  145DOPC    C217200   3.271   6.447  13.123 -0.8206  0.5332  0.3896
  145DOPC    HS17201   3.298   6.547  13.083  1.0035 -0.3849 -0.8166
  145DOPC   O2117202   3.141   6.399  13.077 -0.1053  0.6168 -0.0463
  145DOPC   C2117203   3.070   6.482  13.012  0.6902  0.2363 -0.2975
  145DOPC   O2217204   3.094   6.598  12.988  0.0535 -0.3017  0.3699
  145DOPC   C2217205   2.936   6.421  12.961  0.2177 -0.1969 -0.0466
  145DOPC   H2R17206   2.865   6.467  13.033 -0.2106 -0.0024 -0.5850
  145DOPC   H2S17207   2.937   6.311  12.981 -0.1830 -0.2293 -0.1956
  145DOPC    C317208   3.380   6.346  13.076 -0.3958  0.2592 -0.8496
  145DOPC    HX17209   3.356   6.251  13.129  4.2649  0.0375  1.3117
  145DOPC    HY17210   3.473   6.391  13.116 -0.0807 -0.7132 -0.4582
  145DOPC   O3117211   3.385   6.330  12.929  0.1710 -0.1112 -1.0061
  145DOPC   C3117212   3.424   6.215  12.874  0.6289 -0.0354 -0.6716
  145DOPC   O3217213   3.450   6.111  12.931  0.6996  0.5429 -0.6670
  145DOPC   C3217214   3.436   6.232  12.725  0.1165  0.1346  0.1631
  145DOPC   H2X17215   3.353   6.297  12.690 -0.0333 -0.3768 -0.4400
  145DOPC   H2Y17216   3.529   6.288  12.701  0.0798  0.5882  1.0431
  145DOPC   C2317217   2.894   6.448  12.814  0.3611  0.3397  0.9417
  145DOPC   H3R17218   2.909   6.557  12.805 -0.3594  0.5880  2.4516
  145DOPC   H3S17219   2.784   6.444  12.803  0.5183  2.2789 -2.8040
  145DOPC   C2417220   2.963   6.345  12.716  0.1162  0.3382  0.1833
  145DOPC   H4R17221   2.933   6.243  12.749 -4.9287  2.4593  3.3249
  145DOPC   H4S17222   3.074   6.354  12.716  0.1287  0.1839  0.3496
  145DOPC   C2517223   2.907   6.369  12.572  0.9407  0.1632 -0.0352
  145DOPC   H5R17224   2.941   6.469  12.538 -2.6411  1.8124  0.7394
  145DOPC   H5S17225   2.796   6.363  12.576  0.9669  0.0110  3.2193
  145DOPC   C2617226   2.960   6.274  12.463  0.0384 -0.0377 -0.3966
  145DOPC   H6R17227   3.069   6.282  12.443  0.4859 -0.8655  1.5381
  145DOPC   H6S17228   2.906   6.284  12.367 -1.3187 -1.8470  0.1338
  145DOPC   C2717229   2.941   6.128  12.498  0.0474  0.3494 -0.1825
  145DOPC   H7R17230   2.835   6.106  12.523  0.6662 -1.5721  0.9239
  145DOPC   H7S17231   3.005   6.093  12.581 -0.5512 -0.5860 -0.1031
  145DOPC   C2817232   2.978   6.021  12.391  0.0928 -0.7249 -0.0347
  145DOPC   H8R17233   2.915   6.037  12.300  0.7599  1.9250 -0.0864
  145DOPC   H8S17234   2.953   5.922  12.436 -1.6802 -1.2454 -1.9975
  145DOPC   C2917235   3.122   6.017  12.352  0.8041 -1.0735  0.2216
  145DOPC   H9R17236   3.186   5.960  12.421  2.1813  1.4109  1.1359
  145DOPC  C21017237   3.175   6.082  12.245 -0.0495 -0.8994 -0.2548
  145DOPC  H10R17238   3.284   6.077  12.232  0.3464  1.5532  1.3243
  145DOPC  C21117239   3.116   6.164  12.133 -0.3375 -0.5816 -0.1723
  145DOPC  H11R17240   3.148   6.269  12.149  2.4401 -0.8798 -2.9910
  145DOPC  H11S17241   3.006   6.173  12.143 -0.2266  0.0393  0.5759
  145DOPC  C21217242   3.158   6.114  11.997 -0.1623  0.3154  1.2074
  145DOPC  H12R17243   3.123   6.011  11.975 -1.5585  1.0745 -0.2942
  145DOPC  H12S17244   3.265   6.121  11.969 -0.2399  0.7674  1.0142
  145DOPC  C21317245   3.102   6.209  11.883 -0.0625 -0.7710 -0.1611
  145DOPC  H13R17246   3.137   6.310  11.910  0.5804 -1.0820  0.1936
  145DOPC  H13S17247   2.991   6.209  11.891 -0.1670 -0.4940 -1.4442
  145DOPC  C21417248   3.128   6.167  11.739 -0.6996 -0.4460 -0.2335
  145DOPC  H14R17249   3.075   6.071  11.726  2.5935 -2.2958 -1.0827
  145DOPC  H14S17250   3.237   6.145  11.729 -0.2967 -1.0404  3.6890
  145DOPC  C21517251   3.076   6.272  11.642  0.0325  0.4517 -0.4312
  145DOPC  H15R17252   3.144   6.359  11.635 -0.5169  0.8947 -0.3375
  145DOPC  H15S17253   2.978   6.299  11.686  0.2120  1.7483 -0.7958
  145DOPC  C21617254   3.038   6.211  11.500 -0.5757 -0.1074 -0.3931
  145DOPC  H16R17255   2.999   6.292  11.434 -0.0108  0.4802 -0.0176
  145DOPC  H16S17256   2.963   6.132  11.521 -1.5934  1.4634  2.3369
  145DOPC  C21717257   3.163   6.156  11.427  0.2785 -0.2699 -0.0733
  145DOPC  H17R17258   3.207   6.078  11.493 -0.5614  0.3659  1.2804
  145DOPC  H17S17259   3.247   6.228  11.414  0.5430 -0.7996 -1.4286
  145DOPC  C21817260   3.118   6.087  11.294 -0.5200 -0.4412  0.1006
  145DOPC  H18R17261   3.014   6.047  11.298 -0.3367 -1.1228 -1.4296
  145DOPC  H18S17262   3.184   6.002  11.267 -0.9545 -0.4016 -1.1447
  145DOPC  H18T17263   3.122   6.153  11.205  0.4593 -2.1318 -1.1616
  145DOPC   C3317264   3.446   6.102  12.644 -0.2817  0.2551 -0.3607
  145DOPC   H3X17265   3.364   6.033  12.674  0.6279 -1.7126 -2.1925
  145DOPC   H3Y17266   3.541   6.060  12.682 -0.6828  0.0366  0.4434
  145DOPC   C3417267   3.447   6.121  12.491  0.6063  0.4888  0.2855
  145DOPC   H4X17268   3.347   6.164  12.465  0.2261  0.7406  2.0350
  145DOPC   H4Y17269   3.458   6.024  12.439  0.6255  1.3294 -1.3253
  145DOPC   C3517270   3.547   6.220  12.433 -0.1043 -0.2632  0.3207
  145DOPC   H5X17271   3.644   6.202  12.484  0.6054 -0.2897 -0.9754
  145DOPC   H5Y17272   3.510   6.319  12.467 -0.6861 -0.0843 -0.7848
  145DOPC   C3617273   3.559   6.221  12.282  0.0945  0.1205  0.5902
  145DOPC   H6X17274   3.462   6.256  12.240  0.7416  1.0458 -0.1923
  145DOPC   H6Y17275   3.630   6.300  12.250 -1.2724  0.5715 -1.5695
  145DOPC   C3717276   3.604   6.086  12.226  0.1506 -0.3173  0.1687
  145DOPC   H7X17277   3.671   6.037  12.299  0.8149  1.0583  0.5284
  145DOPC   H7Y17278   3.508   6.030  12.222 -0.6329  0.7941  1.9875
  145DOPC   C3817279   3.670   6.104  12.082  0.2841 -0.4614 -0.3410
  145DOPC   H8X17280   3.680   6.001  12.041  0.2515 -0.7310  0.3142
  145DOPC   H8Y17281   3.773   6.141  12.101 -0.3675  1.5368 -0.5277
  145DOPC   C3917282   3.586   6.185  11.987  0.1487  0.0611 -0.2141
  145DOPC   H9X17283   3.573   6.290  12.018  0.7105 -0.2935  1.2903
  145DOPC  C31017284   3.529   6.149  11.875 -0.3943  0.2492  0.0216
  145DOPC  H10X17285   3.476   6.225  11.815  1.1946  2.3303  1.0965
  145DOPC  C31117286   3.530   6.009  11.820 -0.3685 -0.3070 -0.3644
  145DOPC  H11X17287   3.431   5.959  11.829 -1.0801  1.4302  4.1913
  145DOPC  H11Y17288   3.593   5.940  11.881 -2.8174 -2.1017  0.3231
  145DOPC  C31217289   3.584   6.011  11.676 -0.5431  0.0139  0.2407
  145DOPC  H12X17290   3.611   5.906  11.648 -0.9082 -0.1838  0.6192
  145DOPC  H12Y17291   3.678   6.069  11.664 -0.9384  0.7739  0.7697
  145DOPC  C31317292   3.496   6.078  11.567  1.0010 -0.0452 -0.5449
  145DOPC  H13X17293   3.398   6.028  11.577  1.3947 -0.3982  2.1724
  145DOPC  H13Y17294   3.492   6.188  11.582  0.8060  0.1221 -1.7245
  145DOPC  C31417295   3.540   6.056  11.423  0.1538 -0.0839  0.8052
  145DOPC  H14X17296   3.538   5.949  11.396  2.2223 -0.0381  0.2908
  145DOPC  H14Y17297   3.475   6.108  11.348  1.7540  1.5114  0.4455
  145DOPC  C31517298   3.684   6.097  11.391  0.0778 -0.5145 -0.1335
  145DOPC  H15X17299   3.743   6.030  11.456  0.3489 -0.7610 -0.6286
  145DOPC  H15Y17300   3.689   6.205  11.417 -1.7881 -0.4022 -0.1206
  145DOPC  C31617301   3.739   6.091  11.246  0.2194  0.7344  0.1883
  145DOPC  H16X17302   3.715   5.989  11.209 -2.1696  1.9815 -2.1191
  145DOPC  H16Y17303   3.681   6.157  11.177  0.8973 -0.4994 -1.6182
  145DOPC  C31717304   3.882   6.128  11.231 -0.5005  0.2339  0.3667
  145DOPC  H17X17305   3.938   6.091  11.319  0.8048 -2.7210 -1.5318
  145DOPC  H17Y17306   3.934   6.082  11.144  1.6801  0.4150  1.4968
  145DOPC  C31817307   3.902   6.282  11.233 -0.6453  0.6689  0.9717
  145DOPC  H18X17308   3.851   6.327  11.146  0.0343  1.2014  0.8410
  145DOPC  H18Y17309   3.889   6.332  11.331  1.4878  2.1332  0.5751
  145DOPC  H18Z17310   4.011   6.302  11.223 -0.9455  2.3264  0.8473
  146DOPC     N17311   4.136   3.119  14.117 -0.0222 -0.0004  0.0405
  146DOPC   C1217312   4.130   2.998  14.028 -0.0917  0.0579  0.4066
  146DOPC  H12A17313   4.030   2.990  13.988  0.0805  1.4340 -0.3782
  146DOPC  H12B17314   4.127   2.905  14.083 -1.0553 -2.0458 -2.8682
  146DOPC   C1317315   4.151   3.244  14.041 -0.0245 -0.2300  0.6426
  146DOPC  H13A17316   4.176   3.324  14.108  2.4743  0.0661 -0.5030
  146DOPC  H13B17317   4.229   3.232  13.966 -0.4209  0.2381  0.1452
  146DOPC  H13C17318   4.058   3.259  13.989 -0.7341 -0.7024  1.7359
  146DOPC   C1417319   4.256   3.097  14.203 -0.4305  0.0348  1.0906
  146DOPC  H14A17320   4.336   3.058  14.142  0.2234 -0.1178  2.0118
  146DOPC  H14B17321   4.289   3.188  14.253  2.0389  0.4631 -1.1032
  146DOPC  H14C17322   4.229   3.026  14.280 -2.2352  0.4149  0.8585
  146DOPC   C1517323   4.013   3.132  14.199  0.0185  0.3459  0.4821
  146DOPC  H15A17324   4.028   3.213  14.269  1.4461  1.4455 -1.0326
  146DOPC  H15B17325   3.989   3.053  14.269 -0.0403  1.4093  1.6908
  146DOPC  H15C17326   3.927   3.149  14.137  0.1230 -1.5795 -0.2678
  146DOPC   C1117327   4.226   2.976  13.913 -0.0615 -0.6615 -0.0354
  146DOPC  H11A17328   4.202   2.884  13.856 -2.0578 -0.1186 -0.1564
  146DOPC  H11B17329   4.218   3.060  13.840  1.4557 -1.0526 -0.6895
  146DOPC     P17330   4.471   3.049  13.899 -0.0817 -0.1309 -0.3271
  146DOPC   O1317331   4.591   2.976  13.943  0.0466  0.5398 -0.1085
  146DOPC   O1417332   4.461   3.190  13.939  0.3302 -0.0011  0.0494
  146DOPC   O1217333   4.356   2.972  13.970 -0.6115 -0.4448 -0.6332
  146DOPC   O1117334   4.467   3.034  13.743  0.0926 -0.0087 -0.1190
  146DOPC    C117335   4.561   3.092  13.658  0.1174 -0.5092  0.0195
  146DOPC    HA17336   4.599   3.023  13.579 -1.2899 -0.6003 -0.6033
  146DOPC    HB17337   4.645   3.138  13.714  2.0891  0.0320 -3.1206
  146DOPC    C217338   4.503   3.212  13.579 -0.0492 -0.5636 -0.1193
  146DOPC    HS17339   4.464   3.283  13.655 -1.4477 -0.9247 -0.4696
  146DOPC   O2117340   4.394   3.175  13.494  0.5871  0.2278  0.1235
  146DOPC   C2117341   4.270   3.197  13.530  0.4012  0.1930 -0.2065
  146DOPC   O2217342   4.234   3.253  13.633 -0.0381 -0.3887  0.4701
  146DOPC   C2217343   4.176   3.144  13.421  0.3799 -0.0688 -0.0258
  146DOPC   H2R17344   4.121   3.057  13.462  0.5446 -0.5993 -0.8942
  146DOPC   H2S17345   4.235   3.104  13.336 -0.9002  2.0429 -2.0403
  146DOPC    C317346   4.620   3.280  13.501 -0.4480 -0.4159 -0.0152
  146DOPC    HX17347   4.698   3.303  13.577 -1.7422 -0.3571  1.3453
  146DOPC    HY17348   4.581   3.377  13.464 -1.1720 -0.7730 -0.2016
  146DOPC   O3117349   4.675   3.204  13.389  0.2166  0.5970  0.0143
  146DOPC   C3117350   4.805   3.207  13.370 -0.2646 -0.3459  0.5308
  146DOPC   O3217351   4.892   3.239  13.450  0.7643  0.3719 -0.7939
  146DOPC   C3217352   4.846   3.156  13.226  0.2221 -0.3668 -0.4461
  146DOPC   H2X17353   4.957   3.158  13.217  0.3642  2.5747  0.6850
  146DOPC   H2Y17354   4.811   3.051  13.233 -1.5446  0.2937  2.2294
  146DOPC   C2317355   4.060   3.233  13.367  0.4004 -0.1932 -0.4662
  146DOPC   H3R17356   4.104   3.322  13.317 -1.0553  1.8554  1.7123
  146DOPC   H3S17357   4.004   3.268  13.456 -0.0837  0.6459 -1.0908
  146DOPC   C2417358   3.949   3.162  13.282 -0.2196  0.3131  0.3100
  146DOPC   H4R17359   3.853   3.216  13.271 -0.7737 -0.7136 -0.0402
  146DOPC   H4S17360   3.922   3.066  13.332 -2.1648  0.6693  0.0191
  146DOPC   C2517361   4.003   3.121  13.140  0.2466 -0.3422 -0.4746
  146DOPC   H5R17362   4.078   3.040  13.157  2.5918  1.3380 -2.1038
  146DOPC   H5S17363   4.062   3.205  13.098 -1.3588  1.3128  0.4547
  146DOPC   C2617364   3.894   3.077  13.042  0.0120 -0.2481  0.3356
  146DOPC   H6R17365   3.807   3.146  13.031 -1.3584 -2.0420 -0.6434
  146DOPC   H6S17366   3.842   2.987  13.082 -1.8394 -0.3161 -2.0157
  146DOPC   C2717367   3.949   3.041  12.903 -0.0080  0.3455 -0.0125
  146DOPC   H7R17368   4.037   2.988  12.946 -0.1748  1.8466  2.3312
  146DOPC   H7S17369   3.988   3.133  12.854  0.1244 -0.1513 -0.8716
  146DOPC   C2817370   3.851   2.950  12.828 -0.7679 -0.1036  0.3842
  146DOPC   H8R17371   3.783   2.899  12.901 -0.9053  0.8413  0.9412
  146DOPC   H8S17372   3.902   2.878  12.762 -0.3574 -0.1325  0.7298
  146DOPC   C2917373   3.765   3.043  12.748 -0.2757  0.3292  0.5626
  146DOPC   H9R17374   3.718   3.122  12.808 -0.0431 -0.4376  1.7795
  146DOPC  C21017375   3.760   3.043  12.612 -0.3161 -0.1050  0.0687
  146DOPC  H10R17376   3.680   3.101  12.563 -0.8387 -0.1926  0.7913
  146DOPC  C21117377   3.842   2.952  12.522 -0.5213 -0.5675 -0.1087
  146DOPC  H11R17378   3.835   2.849  12.563  2.4575 -0.7048  0.2947
  146DOPC  H11S17379   3.950   2.979  12.512 -0.8326  0.1780 -1.8480
  146DOPC  C21217380   3.779   2.931  12.376  0.1308  0.8893 -0.6201
  146DOPC  H12R17381   3.670   2.921  12.395 -0.0652  4.1494  0.5841
  146DOPC  H12S17382   3.826   2.843  12.329  0.7590  1.6881 -1.5214
  146DOPC  C21317383   3.812   3.048  12.278  0.0908  0.0573 -1.0050
  146DOPC  H13R17384   3.919   3.079  12.281  0.4847 -1.3127  0.1572
  146DOPC  H13S17385   3.746   3.130  12.315  1.1567  0.9745 -1.0554
  146DOPC  C21417386   3.768   3.011  12.141  0.1172  0.2342  0.7831
  146DOPC  H14R17387   3.744   3.103  12.085  2.2241  0.2005 -0.2758
  146DOPC  H14S17388   3.676   2.949  12.141 -1.1363  2.0199  0.4410
  146DOPC  C21517389   3.865   2.916  12.070 -0.5057 -0.3740  0.1992
  146DOPC  H15R17390   3.879   2.828  12.137  1.3289  0.0790  0.4643
  146DOPC  H15S17391   3.965   2.956  12.041 -0.3360  0.5319  1.8884
  146DOPC  C21617392   3.797   2.856  11.938 -0.5212 -0.4609 -0.4561
  146DOPC  H16R17393   3.775   2.942  11.870  0.5439  0.4984  0.3653
  146DOPC  H16S17394   3.705   2.802  11.967 -1.7040  1.6498 -0.0807
  146DOPC  C21717395   3.879   2.756  11.865 -0.1233 -0.0954 -0.0145
  146DOPC  H17R17396   3.890   2.667  11.931  1.2646  0.5999  0.7323
  146DOPC  H17S17397   3.984   2.790  11.853 -0.7564  1.1682 -2.6489
  146DOPC  C21817398   3.831   2.707  11.730  0.1770  0.2184 -0.7988
  146DOPC  H18R17399   3.817   2.798  11.667  0.8800 -1.1155 -3.0083
  146DOPC  H18S17400   3.734   2.657  11.746  0.1229  0.8585  1.1726
  146DOPC  H18T17401   3.907   2.639  11.686 -1.2300 -1.4738 -0.7209
  146DOPC   C3317402   4.792   3.246  13.114  0.0061 -0.2294  0.5597
  146DOPC   H3X17403   4.828   3.351  13.110  1.8728 -0.8534 -0.8236
  146DOPC   H3Y17404   4.681   3.254  13.118  0.0684  0.5756  0.7013
  146DOPC   C3417405   4.847   3.181  12.980 -0.5919  0.0120  0.0238
  146DOPC   H4X17406   4.772   3.106  12.946  0.4220 -0.8223 -0.4189
  146DOPC   H4Y17407   4.949   3.141  13.000 -0.1175  0.6465 -1.0440
  146DOPC   C3517408   4.865   3.282  12.866 -0.3877 -0.7400 -0.2595
  146DOPC   H5X17409   4.945   3.343  12.913 -0.6928 -1.9801  1.9808
  146DOPC   H5Y17410   4.767   3.335  12.862 -0.8727 -1.6171 -0.3272
  146DOPC   C3617411   4.903   3.242  12.726  0.1764  0.9295 -0.2726
  146DOPC   H6X17412   4.923   3.337  12.672  3.1531  0.2325 -0.5544
  146DOPC   H6Y17413   5.002   3.195  12.741  0.3473  1.9410  2.3483
  146DOPC   C3717414   4.799   3.149  12.653 -0.3535  0.2128 -0.8058
  146DOPC   H7X17415   4.765   3.083  12.735  0.5803  0.0111 -0.5683
  146DOPC   H7Y17416   4.713   3.215  12.630  0.5475  0.3759 -4.1705
  146DOPC   C3817417   4.839   3.087  12.524 -0.0414 -0.1971 -0.0909
  146DOPC   H8X17418   4.756   3.035  12.472 -0.4962 -0.2583  0.6943
  146DOPC   H8Y17419   4.924   3.015  12.534  0.5991  0.3035 -1.5680
  146DOPC   C3917420   4.891   3.207  12.440  0.2327  0.8159 -0.2349
  146DOPC   H9X17421   4.983   3.251  12.482 -1.2037  0.1826  4.0618
  146DOPC  C31017422   4.842   3.255  12.331  0.4288  0.6353 -0.5993
  146DOPC  H10X17423   4.887   3.348  12.294  2.0624 -0.0806 -0.5191
  146DOPC  C31117424   4.717   3.216  12.260 -0.3850  0.6805 -0.9593
  146DOPC  H11X17425   4.666   3.305  12.219  0.9846  2.8160  1.6271
  146DOPC  H11Y17426   4.648   3.178  12.338  0.8348 -1.7994 -0.9812
  146DOPC  C31217427   4.741   3.125  12.138  0.4891 -0.0725  0.4401
  146DOPC  H12X17428   4.644   3.103  12.089 -0.6685  2.1930  1.5101
  146DOPC  H12Y17429   4.790   3.030  12.166  1.6068  0.9539  2.1458
  146DOPC  C31317430   4.831   3.193  12.034 -0.2652  0.0594 -0.1919
  146DOPC  H13X17431   4.805   3.301  12.034  1.0197  0.3978 -1.3040
  146DOPC  H13Y17432   4.938   3.187  12.062 -0.0318 -1.3141 -1.2721
  146DOPC  C31417433   4.812   3.133  11.895  0.5100  0.0643 -0.2487
  146DOPC  H14X17434   4.916   3.123  11.859  1.2668 -1.7657  2.1615
  146DOPC  H14Y17435   4.795   3.029  11.930  0.9366  1.2317  3.9743
  146DOPC  C31517436   4.710   3.205  11.793 -0.6510  0.2185 -0.0730
  146DOPC  H15X17437   4.613   3.238  11.837  1.3534  1.2798  3.9954
  146DOPC  H15Y17438   4.685   3.122  11.724 -1.0094 -1.8032  2.3516
  146DOPC  C31617439   4.768   3.329  11.717  0.0719  0.2371 -0.0849
  146DOPC  H16X17440   4.688   3.380  11.659 -2.3266 -0.8193  2.1036
  146DOPC  H16Y17441   4.797   3.406  11.792 -4.5075  1.8939  0.2895
  146DOPC  C31717442   4.892   3.298  11.637  0.2238 -0.0457  0.4422
  146DOPC  H17X17443   4.922   3.397  11.597 -2.1795  1.1695  1.4789
  146DOPC  H17Y17444   4.980   3.268  11.698  0.1354  1.4454  1.3435
  146DOPC  C31817445   4.888   3.193  11.523 -0.2663 -0.0138 -0.7951
  146DOPC  H18X17446   4.837   3.229  11.431 -2.5861  0.8455  0.7547
  146DOPC  H18Y17447   4.990   3.154  11.501 -0.3238  0.0963 -1.2723
  146DOPC  H18Z17448   4.817   3.115  11.558 -1.8770  2.0483  0.8207
  147DOPC     N17449   0.679   3.883  14.518 -0.3730 -0.0571 -0.5606
  147DOPC   C1217450   0.820   3.905  14.565  0.0776  0.0235 -0.0887
  147DOPC  H12A17451   0.833   3.832  14.643 -0.8972 -1.2295 -1.0416
  147DOPC  H12B17452   0.836   4.000  14.613 -1.2197  0.1062  0.2101
  147DOPC   C1317453   0.669   3.752  14.444  0.1965  0.1151 -0.2930
  147DOPC  H13A17454   0.742   3.746  14.364  0.7469  2.0111  0.0144
  147DOPC  H13B17455   0.698   3.673  14.511 -1.0382 -0.1303 -0.0302
  147DOPC  H13C17456   0.570   3.753  14.403  0.5865 -3.0451 -1.5556
  147DOPC   C1417457   0.634   3.990  14.423  0.2678  0.3544 -0.3846
  147DOPC  H14A17458   0.639   4.088  14.469  0.5581  0.4414 -0.6008
  147DOPC  H14B17459   0.679   3.988  14.325 -2.1372 -3.0610 -1.6186
  147DOPC  H14C17460   0.532   3.967  14.395 -0.0213 -1.2243  1.6755
  147DOPC   C1517461   0.580   3.871  14.632  0.2302 -0.1979 -1.0121
  147DOPC  H15A17462   0.482   3.852  14.590  0.3643  1.1894 -2.0137
  147DOPC  H15B17463   0.574   3.962  14.690 -0.2772  0.1241 -1.5680
  147DOPC  H15C17464   0.613   3.797  14.704  0.7703  0.0766 -0.9778
  147DOPC   C1117465   0.935   3.887  14.473 -0.4513  0.5105 -0.5674
  147DOPC  H11A17466   0.933   3.952  14.383  0.3506 -1.4195 -2.0622
  147DOPC  H11B17467   1.025   3.918  14.530 -0.7521 -0.0953  0.2676
  147DOPC     P17468   1.003   3.720  14.285 -0.4528  0.3208 -0.2927
  147DOPC   O1317469   0.892   3.766  14.195 -0.5373  0.4529 -0.3545
  147DOPC   O1417470   1.066   3.586  14.277 -0.3582  0.4672  0.3303
  147DOPC   O1217471   0.949   3.747  14.430 -0.0901 -1.2717 -0.2793
  147DOPC   O1117472   1.122   3.823  14.280 -0.4697  0.1759 -0.8701
  147DOPC    C117473   1.239   3.810  14.202  0.5503  0.5455 -0.3590
  147DOPC    HA17474   1.279   3.707  14.188  2.0189  1.2045 -1.2358
  147DOPC    HB17475   1.317   3.864  14.259 -0.6364 -0.1865  2.0923
  147DOPC    C217476   1.219   3.881  14.066  0.4764 -0.9905  0.0884
  147DOPC    HS17477   1.188   3.983  14.096 -0.4274 -0.8713 -1.1273
  147DOPC   O2117478   1.114   3.811  13.993 -0.0082  0.6105 -0.2551
  147DOPC   C2117479   1.052   3.871  13.903  0.0222 -0.6667  0.4133
  147DOPC   O2217480   1.066   3.990  13.869  0.2528  0.2673 -0.9194
  147DOPC   C2217481   0.957   3.777  13.830  0.3708  0.0877 -0.7335
  147DOPC   H2R17482   0.850   3.800  13.851  0.0373  0.1954 -2.4238
  147DOPC   H2S17483   0.983   3.677  13.871  0.4388  0.3739 -0.0760
  147DOPC    C317484   1.353   3.893  13.987 -0.3332 -1.0132  0.0715
  147DOPC    HX17485   1.392   3.794  13.955 -0.3123 -0.4562 -1.7857
  147DOPC    HY17486   1.424   3.949  14.051 -2.7625  1.6742  0.6335
  147DOPC   O3117487   1.340   3.971  13.864  0.0263  0.5217 -0.2396
  147DOPC   C3117488   1.322   4.102  13.889 -0.2412  0.8184  0.1953
  147DOPC   O3217489   1.311   4.151  13.997  0.3620  0.4280 -0.0058
  147DOPC   C3217490   1.297   4.178  13.759 -0.1904  0.1021 -0.1665
  147DOPC   H2X17491   1.211   4.133  13.704 -0.0150 -1.2628  0.6139
  147DOPC   H2Y17492   1.275   4.283  13.788 -2.3019 -1.0927  3.2619
  147DOPC   C2317493   0.979   3.761  13.673  0.1929 -0.3124 -0.2670
  147DOPC   H3R17494   0.947   3.661  13.635  1.3342 -0.2457 -1.4711
  147DOPC   H3S17495   1.087   3.780  13.657 -0.3193  2.6165 -0.7417
  147DOPC   C2417496   0.880   3.851  13.590 -0.0249  0.6147  0.4977
  147DOPC   H4R17497   0.903   3.955  13.620  0.3822  0.7548 -0.2665
  147DOPC   H4S17498   0.777   3.817  13.615  1.0173 -3.1879  0.1999
  147DOPC   C2517499   0.894   3.844  13.440 -0.2547 -0.0341  0.3152
  147DOPC   H5R17500   0.881   3.742  13.399 -1.2226  0.6323 -1.0961
  147DOPC   H5S17501   0.999   3.873  13.422 -0.1795  2.0546  3.3709
  147DOPC   C2617502   0.802   3.940  13.373 -0.2867 -0.1681 -0.3108
  147DOPC   H6R17503   0.823   4.047  13.397  0.0973 -0.8818  3.1009
  147DOPC   H6S17504   0.697   3.920  13.406  0.1942 -0.8707  0.8297
  147DOPC   C2717505   0.809   3.922  13.217  0.6571 -0.4796 -0.6270
  147DOPC   H7R17506   0.719   3.971  13.174  0.8890 -0.3905 -1.0151
  147DOPC   H7S17507   0.807   3.813  13.192  0.6178 -1.3214  2.6052
  147DOPC   C2817508   0.925   3.980  13.137 -0.7774 -0.2546 -0.2473
  147DOPC   H8R17509   0.938   3.907  13.054 -1.1513  0.3897 -0.8781
  147DOPC   H8S17510   1.019   3.985  13.196 -1.9093  1.4472  1.5657
  147DOPC   C2917511   0.897   4.116  13.077 -0.1980  0.2142  0.4023
  147DOPC   H9R17512   0.882   4.204  13.141  0.1727  2.8328 -2.8489
  147DOPC  C21017513   0.880   4.145  12.946 -0.4753  0.3119  0.8571
  147DOPC  H10R17514   0.866   4.250  12.914 -1.8056  0.4897  1.9376
  147DOPC  C21117515   0.887   4.048  12.832 -0.2230 -0.4002 -0.1614
  147DOPC  H11R17516   0.830   3.955  12.853 -1.0836  0.3013  0.6978
  147DOPC  H11S17517   0.991   4.016  12.811  0.9970  2.4774  0.9113
  147DOPC  C21217518   0.830   4.109  12.703  0.6641  0.7012 -0.4727
  147DOPC  H12R17519   0.893   4.193  12.666 -1.2957  1.9604 -1.1670
  147DOPC  H12S17520   0.733   4.155  12.733  0.6768  1.7996 -1.9425
  147DOPC  C21317521   0.804   4.011  12.592 -0.0992  0.1365 -0.5506
  147DOPC  H13R17522   0.703   3.966  12.602 -0.1465  0.5472  1.0042
  147DOPC  H13S17523   0.878   3.928  12.592  0.1235  0.3160  0.7188
  147DOPC  C21417524   0.802   4.081  12.454 -0.0219 -0.5261 -0.3221
  147DOPC  H14R17525   0.895   4.141  12.446  0.8582 -1.1663  3.4660
  147DOPC  H14S17526   0.716   4.152  12.451  1.5188  1.5066  1.2796
  147DOPC  C21517527   0.798   3.992  12.333 -0.5338  0.0341  0.1584
  147DOPC  H15R17528   0.738   3.899  12.344  1.7818 -1.7275 -1.2007
  147DOPC  H15S17529   0.899   3.947  12.330 -1.2290 -1.5091 -1.3811
  147DOPC  C21617530   0.771   4.066  12.207  0.2115 -0.8530 -0.5314
  147DOPC  H16R17531   0.823   4.164  12.216 -0.5301 -0.5640  1.1419
  147DOPC  H16S17532   0.662   4.087  12.202  0.2471 -0.9276 -1.7176
  147DOPC  C21717533   0.810   3.988  12.081  0.4945  0.9134 -0.4788
  147DOPC  H17R17534   0.763   3.887  12.085  1.4187  0.4919  0.1436
  147DOPC  H17S17535   0.919   3.970  12.073  0.1909 -0.6558 -1.4393
  147DOPC  C21817536   0.751   4.049  11.954  0.3521 -0.5826 -0.3260
  147DOPC  H18R17537   0.645   4.082  11.961  0.1455 -1.0547 -1.1117
  147DOPC  H18S17538   0.780   3.974  11.877  1.2820  1.0662 -1.6520
  147DOPC  H18T17539   0.812   4.138  11.927 -0.5017 -0.0872 -0.6501
  147DOPC   C3317540   1.419   4.163  13.662  0.3175  0.1767 -0.1744
  147DOPC   H3X17541   1.400   4.230  13.575  1.0192  1.9598  0.9920
  147DOPC   H3Y17542   1.423   4.059  13.624  0.1702  0.4182 -0.8860
  147DOPC   C3417543   1.555   4.194  13.720 -0.3240  0.1222  0.7030
  147DOPC   H4X17544   1.571   4.130  13.809  0.1426  0.6960  1.0434
  147DOPC   H4Y17545   1.544   4.298  13.757 -0.6995  0.6724 -0.8590
  147DOPC   C3517546   1.668   4.192  13.612  0.1373  0.1657  0.2652
  147DOPC   H5X17547   1.663   4.095  13.557 -1.4804  1.8770 -2.8238
  147DOPC   H5Y17548   1.768   4.193  13.660  0.7966  2.4603 -1.0429
  147DOPC   C3617549   1.660   4.305  13.513 -0.6174 -0.3201 -0.8467
  147DOPC   H6X17550   1.569   4.281  13.454 -0.6534 -1.5636 -0.2973
  147DOPC   H6Y17551   1.660   4.406  13.559  0.8706  0.1925 -1.8637
  147DOPC   C3717552   1.782   4.311  13.412  0.3429 -0.0382 -0.1994
  147DOPC   H7X17553   1.876   4.331  13.468  0.4615  2.3155 -1.1132
  147DOPC   H7Y17554   1.803   4.212  13.365  0.8292 -0.5768  1.1249
  147DOPC   C3817555   1.766   4.419  13.305  0.0281  0.3813 -0.1157
  147DOPC   H8X17556   1.866   4.447  13.266 -0.2882 -1.4100 -2.3935
  147DOPC   H8Y17557   1.721   4.511  13.349 -0.5135  0.1234 -0.1173
  147DOPC   C3917558   1.681   4.367  13.189 -0.1769  0.0124  0.1396
  147DOPC   H9X17559   1.590   4.319  13.228 -0.6703  1.8261  1.3435
  147DOPC  C31017560   1.697   4.377  13.057  0.5796 -0.7151 -0.1687
  147DOPC  H10X17561   1.636   4.324  12.982 -1.3847  1.1210  0.0440
  147DOPC  C31117562   1.808   4.456  13.001  0.7415  0.0549 -0.4859
  147DOPC  H11X17563   1.880   4.377  12.972 -0.3811 -1.5186  0.8095
  147DOPC  H11Y17564   1.861   4.526  13.069  1.7113  0.1689 -1.3435
  147DOPC  C31217565   1.774   4.529  12.871 -0.2391  0.9532 -0.1654
  147DOPC  H12X17566   1.861   4.598  12.860  0.6257 -0.0667  0.1589
  147DOPC  H12Y17567   1.685   4.591  12.895 -0.2525 -0.1612  3.1724
  147DOPC  C31317568   1.746   4.437  12.750  0.6070 -0.1714  0.9709
  147DOPC  H13X17569   1.808   4.345  12.756 -1.2136 -1.5275 -0.0563
  147DOPC  H13Y17570   1.641   4.403  12.758 -0.0541  1.4492 -0.4181
  147DOPC  C31417571   1.767   4.508  12.613  0.5950  0.1070  0.3172
  147DOPC  H14X17572   1.698   4.594  12.618  0.7884  0.4069 -1.4621
  147DOPC  H14Y17573   1.869   4.548  12.630  0.8074 -0.3145  0.0572
  147DOPC  C31517574   1.756   4.431  12.487 -0.3620  0.6217  0.3072
  147DOPC  H15X17575   1.655   4.390  12.471 -0.2362 -0.7016  2.5237
  147DOPC  H15Y17576   1.827   4.345  12.485 -0.8829  0.1861 -0.9953
  147DOPC  C31617577   1.782   4.532  12.372 -0.5008  0.2642  0.2032
  147DOPC  H16X17578   1.702   4.609  12.368  0.8370  1.8785  2.5617
  147DOPC  H16Y17579   1.878   4.586  12.381 -0.0543 -0.4517 -0.2011
  147DOPC  C31717580   1.781   4.460  12.235 -0.1498  0.5790  0.1207
  147DOPC  H17X17581   1.843   4.511  12.159  0.4846 -1.3438 -0.7291
  147DOPC  H17Y17582   1.840   4.366  12.232 -1.2329 -0.1347  0.4867
  147DOPC  C31817583   1.636   4.450  12.183 -0.4890  0.3735 -0.0009
  147DOPC  H18X17584   1.569   4.400  12.257 -0.1244  0.0274  0.1006
  147DOPC  H18Y17585   1.590   4.546  12.154  0.4895  0.9224  0.2356
  147DOPC  H18Z17586   1.640   4.380  12.097 -0.3088  1.0391 -0.5338
  148DOPC     N17587   2.593   0.016  13.825 -0.0104  0.2458 -0.9192
  148DOPC   C1217588   2.596  -0.056  13.694 -0.5167 -0.3822  0.1040
  148DOPC  H12A17589   2.579  -0.161  13.711 -0.4254 -0.4072  0.0411
  148DOPC  H12B17590   2.698  -0.038  13.663  0.1774  1.5027  3.0544
  148DOPC   C1317591   2.464  -0.020  13.893 -0.1809 -0.3251  0.3605
  148DOPC  H13A17592   2.454   0.021  13.992 -0.6564  0.2709  0.0740
  148DOPC  H13B17593   2.383   0.029  13.843  0.5583  3.5045  2.5432
  148DOPC  H13C17594   2.458  -0.128  13.896  3.6509 -0.8029 -1.8152
  148DOPC   C1417595   2.604   0.167  13.818  0.3202  0.2090  0.9156
  148DOPC  H14A17596   2.517   0.196  13.760 -0.5455  0.0929  2.1096
  148DOPC  H14B17597   2.594   0.223  13.910 -0.9724  0.9846  0.3377
  148DOPC  H14C17598   2.693   0.198  13.766  0.7588 -1.5577  0.5558
  148DOPC   C1517599   2.707  -0.042  13.917  0.1570 -0.4343  0.5826
  148DOPC  H15A17600   2.675  -0.129  13.971  0.9170 -0.0012  1.7692
  148DOPC  H15B17601   2.743   0.032  13.987 -0.8428  0.7933 -0.1612
  148DOPC  H15C17602   2.789  -0.078  13.856 -0.7535  0.8670 -1.5461
  148DOPC   C1117603   2.509   0.000  13.583 -0.1011 -0.2956 -0.1900
  148DOPC  H11A17604   2.556   0.097  13.554  2.4535 -1.4779 -0.2572
  148DOPC  H11B17605   2.519  -0.071  13.498 -1.5399 -0.1170 -0.5459
  148DOPC     P17606   2.289   0.119  13.560  0.3654 -0.4081  0.2623
  148DOPC   O1317607   2.285   0.226  13.658  0.0385 -0.2611 -0.3565
  148DOPC   O1417608   2.157   0.059  13.517 -0.4555  0.5712  0.1248
  148DOPC   O1217609   2.373   0.002  13.627  0.2517 -0.5377 -0.1257
  148DOPC   O1117610   2.371   0.166  13.437  0.2246  0.6828 -0.3671
  148DOPC    C117611   2.322   0.262  13.344  0.7788 -0.4000 -0.3803
  148DOPC    HA17612   2.394   0.346  13.348 -0.2060  0.4676 -0.5489
  148DOPC    HB17613   2.220   0.298  13.370  1.0181 -0.7450  1.1260
  148DOPC    C217614   2.315   0.211  13.198 -0.5826  0.3678  0.3504
  148DOPC    HS17615   2.220   0.153  13.190  1.0014 -2.3860  0.0627
  148DOPC   O2117616   2.439   0.144  13.168  0.2971  0.3371 -0.1690
  148DOPC   C2117617   2.409   0.010  13.142 -0.2189 -0.0436 -0.5721
  148DOPC   O2217618   2.299  -0.037  13.141  0.6644 -0.3177  0.7518
  148DOPC   C2217619   2.538  -0.066  13.118 -0.5291 -0.1026 -0.7109
  148DOPC   H2R17620   2.552  -0.111  13.219 -2.4542  0.2841 -0.2318
  148DOPC   H2S17621   2.625  -0.002  13.091 -0.9141 -0.5717 -3.2163
  148DOPC    C317622   2.302   0.334  13.091  0.1273  0.1324 -0.3423
  148DOPC    HX17623   2.379   0.413  13.105 -0.4847  0.6505  0.1519
  148DOPC    HY17624   2.206   0.385  13.113 -0.5321 -1.7922  1.6696
  148DOPC   O3117625   2.292   0.287  12.952 -0.3319 -0.3691  0.4885
  148DOPC   C3117626   2.408   0.289  12.888 -0.3027 -0.4671  0.3724
  148DOPC   O3217627   2.520   0.319  12.929  0.3821 -0.0652  0.2035
  148DOPC   C3217628   2.371   0.244  12.748  0.2800  0.1470  0.5618
  148DOPC   H2X17629   2.338   0.138  12.753  0.7051 -0.1209 -1.3388
  148DOPC   H2Y17630   2.283   0.306  12.720  1.2788  0.8956 -1.1312
  148DOPC   C2317631   2.516  -0.172  13.007 -0.1557  0.1206  0.6320
  148DOPC   H3R17632   2.428  -0.237  13.021 -0.2447 -0.4093 -1.8801
  148DOPC   H3S17633   2.602  -0.242  13.018  0.4249  0.3571 -1.8842
  148DOPC   C2417634   2.512  -0.097  12.864  0.2410 -0.6793  0.8449
  148DOPC   H4R17635   2.601  -0.030  12.860 -0.8714  0.8330  0.6875
  148DOPC   H4S17636   2.431  -0.024  12.887 -0.1590 -1.5629  2.4426
  148DOPC   C2517637   2.474  -0.192  12.752  0.0162  0.4503  0.4031
  148DOPC   H5R17638   2.363  -0.195  12.755 -0.0870  1.8232 -0.8597
  148DOPC   H5S17639   2.517  -0.293  12.769  0.3734  0.5658  0.1969
  148DOPC   C2617640   2.516  -0.152  12.601  0.0144 -0.0053 -0.2016
  148DOPC   H6R17641   2.627  -0.152  12.604  0.0061  0.3301  0.0502
  148DOPC   H6S17642   2.470  -0.054  12.576  1.3163  0.8891  0.7712
  148DOPC   C2717643   2.487  -0.251  12.488  0.5535 -0.2442  0.9025
  148DOPC   H7R17644   2.378  -0.269  12.489  0.4315  0.5081  1.6440
  148DOPC   H7S17645   2.522  -0.352  12.517 -0.9491 -1.0724 -0.0540
  148DOPC   C2817646   2.523  -0.197  12.345 -0.4430 -0.0647 -0.1303
  148DOPC   H8R17647   2.475  -0.097  12.335 -2.5145 -1.0026 -0.0008
  148DOPC   H8S17648   2.466  -0.263  12.276 -1.8463  0.9399  0.0217
  148DOPC   C2917649   2.669  -0.192  12.312  0.0611  1.1258  0.4567
  148DOPC   H9R17650   2.728  -0.114  12.363  1.6060  0.7990 -0.7735
  148DOPC  C21017651   2.743  -0.250  12.211  0.4253  0.0228 -0.2146
  148DOPC  H10R17652   2.853  -0.246  12.216  0.4106 -0.6639  1.1725
  148DOPC  C21117653   2.687  -0.358  12.118  0.0966  0.4196  0.6046
  148DOPC  H11R17654   2.594  -0.406  12.157  1.4973 -2.7854  0.2765
  148DOPC  H11S17655   2.761  -0.440  12.109  0.8996  1.2921 -1.2950
  148DOPC  C21217656   2.657  -0.305  11.979  0.1936 -0.6401  0.1453
  148DOPC  H12R17657   2.754  -0.262  11.943  1.3140 -2.4040  0.9397
  148DOPC  H12S17658   2.594  -0.213  11.979  0.2831 -0.5405 -1.5261
  148DOPC  C21317659   2.592  -0.410  11.883 -0.2003  0.3278  0.7362
  148DOPC  H13R17660   2.485  -0.383  11.871 -0.0090  0.9881  0.4769
  148DOPC  H13S17661   2.601  -0.507  11.936  0.5655 -0.6339 -1.0728
  148DOPC  C21417662   2.660  -0.395  11.743 -0.1374 -0.1290  0.0296
  148DOPC  H14R17663   2.637  -0.483  11.679  0.8566  0.2469 -0.8729
  148DOPC  H14S17664   2.769  -0.409  11.760  0.9548  4.1297 -2.0904
  148DOPC  C21517665   2.636  -0.267  11.668 -0.7208 -0.7322  0.5499
  148DOPC  H15R17666   2.675  -0.181  11.726  0.9593 -1.4003  0.4769
  148DOPC  H15S17667   2.529  -0.242  11.652 -0.1377  1.2360 -0.6467
  148DOPC  C21617668   2.707  -0.261  11.529 -0.0398 -0.3493 -0.5252
  148DOPC  H16R17669   2.814  -0.282  11.550 -1.0013 -2.1305  3.4684
  148DOPC  H16S17670   2.698  -0.157  11.490  0.5169  0.7406  2.0307
  148DOPC  C21717671   2.635  -0.358  11.428 -0.2260  0.5900  0.0464
  148DOPC  H17R17672   2.627  -0.459  11.474 -0.5803  0.9697  0.8229
  148DOPC  H17S17673   2.699  -0.369  11.337 -1.0575  1.1013 -0.6194
  148DOPC  C21817674   2.506  -0.314  11.366  0.4706 -0.3427  0.4491
  148DOPC  H18R17675   2.468  -0.387  11.292  0.3031  1.5574 -1.4474
  148DOPC  H18S17676   2.512  -0.214  11.316 -0.3554 -1.2447 -1.5567
  148DOPC  H18T17677   2.432  -0.298  11.447 -0.1952  2.3144 -0.5738
  148DOPC   C3317678   2.479   0.270  12.634  0.4543  0.1995 -0.1240
  148DOPC   H3X17679   2.553   0.188  12.650 -1.1793 -1.4443 -0.6619
  148DOPC   H3Y17680   2.506   0.378  12.638 -0.8161  0.4837  1.5972
  148DOPC   C3417681   2.419   0.234  12.496 -0.0053 -0.4031 -0.2134
  148DOPC   H4X17682   2.315   0.275  12.495  0.1735  0.2195  1.7389
  148DOPC   H4Y17683   2.419   0.124  12.505 -0.5074 -0.3427  0.6183
  148DOPC   C3517684   2.508   0.301  12.385  0.6804 -0.4853  0.7810
  148DOPC   H5X17685   2.609   0.259  12.364  0.9492  1.3427 -2.2377
  148DOPC   H5Y17686   2.521   0.404  12.424 -2.0758 -0.2043  1.1767
  148DOPC   C3617687   2.438   0.312  12.256  0.6973  0.0230 -0.1183
  148DOPC   H6X17688   2.330   0.314  12.282  0.6246  1.9706 -0.3896
  148DOPC   H6Y17689   2.462   0.404  12.199  1.2793 -0.1941 -0.2291
  148DOPC   C3717690   2.468   0.194  12.155 -1.1034 -0.1864 -0.6317
  148DOPC   H7X17691   2.578   0.193  12.141 -0.7531 -0.4443  1.7261
  148DOPC   H7Y17692   2.457   0.091  12.196  3.0995 -1.2651 -1.7566
  148DOPC   C3817693   2.392   0.199  12.022 -0.0440 -0.4565 -0.1458
  148DOPC   H8X17694   2.420   0.284  11.958  1.7159 -0.7352  0.1992
  148DOPC   H8Y17695   2.283   0.217  12.040 -1.0745 -4.3905 -1.3189
  148DOPC   C3917696   2.395   0.061  11.947 -0.2857  0.0803 -0.7010
  148DOPC   H9X17697   2.340  -0.026  11.986 -1.3195  0.9743 -0.1196
  148DOPC  C31017698   2.486   0.046  11.844 -0.0005  0.3866 -0.6454
  148DOPC  H10X17699   2.490  -0.053  11.796  4.0881  0.2529 -0.4049
  148DOPC  C31117700   2.588   0.135  11.787 -0.2507  0.2673  0.1561
  148DOPC  H11X17701   2.688   0.096  11.816  0.6634  0.7262 -2.1196
  148DOPC  H11Y17702   2.566   0.235  11.830  1.5194 -0.2158  2.3728
  148DOPC  C31217703   2.591   0.144  11.638  0.1822  0.0530  0.1903
  148DOPC  H12X17704   2.490   0.182  11.610 -0.1532 -1.5213 -0.8676
  148DOPC  H12Y17705   2.599   0.037  11.606  0.1320 -0.9065  3.0946
  148DOPC  C31317706   2.683   0.245  11.584 -0.5247  1.1858 -0.6951
  148DOPC  H13X17707   2.652   0.345  11.621  1.4555  1.0641  1.5664
  148DOPC  H13Y17708   2.791   0.233  11.610 -0.4958 -0.4353 -1.4026
  148DOPC  C31417709   2.684   0.252  11.435 -0.5096  0.0058  0.0962
  148DOPC  H14X17710   2.722   0.160  11.384 -0.5038  0.3981 -0.6177
  148DOPC  H14Y17711   2.579   0.266  11.401  0.0880  2.0906 -1.0279
  148DOPC  C31517712   2.760   0.373  11.376 -0.4361  0.1619 -0.2936
  148DOPC  H15X17713   2.859   0.365  11.426 -0.4185  1.0113 -0.1785
  148DOPC  H15Y17714   2.716   0.472  11.396  1.0361  0.8005 -0.0932
  148DOPC  C31617715   2.783   0.369  11.226  0.4603 -0.4879  0.4305
  148DOPC  H16X17716   2.834   0.275  11.195  0.0553 -0.9196  1.0631
  148DOPC  H16Y17717   2.683   0.378  11.179  0.4203 -2.3187  0.0883
  148DOPC  C31717718   2.865   0.488  11.180  0.2355 -0.2037  0.5691
  148DOPC  H17X17719   2.952   0.499  11.248  2.0257 -1.9021 -1.3028
  148DOPC  H17Y17720   2.905   0.467  11.079  0.3443 -1.8384  0.9295
  148DOPC  C31817721   2.785   0.621  11.174  0.6528  0.1523 -0.0970
  148DOPC  H18X17722   2.707   0.595  11.099  0.8133 -1.8553  0.3633
  148DOPC  H18Y17723   2.729   0.651  11.264 -1.2429  0.9975 -1.4879
  148DOPC  H18Z17724   2.845   0.708  11.142 -0.8836  1.4269  0.3807
  149DOPC     N17725   0.948   4.331  14.152  0.0436 -0.1089  0.0901
  149DOPC   C1217726   1.088   4.315  14.107  0.3424  0.2848  0.5758
  149DOPC  H12A17727   1.092   4.237  14.033  2.0432  0.3607  0.5406
  149DOPC  H12B17728   1.148   4.276  14.188  1.9043 -0.9320 -1.0940
  149DOPC   C1317729   0.864   4.384  14.042 -0.6475  0.0857  0.3210
  149DOPC  H13A17730   0.759   4.378  14.069 -0.6007  1.6636  0.9493
  149DOPC  H13B17731   0.882   4.485  14.009 -1.4730 -0.6582 -2.7422
  149DOPC  H13C17732   0.877   4.319  13.957  0.0473  0.2378  0.3087
  149DOPC   C1417733   0.933   4.417  14.277 -0.4617 -0.1288  0.5672
  149DOPC  H14A17734   0.999   4.379  14.354  1.5440 -0.1211 -1.0495
  149DOPC  H14B17735   0.982   4.511  14.254  1.3983 -0.7546  1.7212
  149DOPC  H14C17736   0.832   4.438  14.308 -0.4985  1.8502 -0.7259
  149DOPC   C1517737   0.899   4.200  14.199 -0.4268  0.6178 -0.4015
  149DOPC  H15A17738   0.968   4.158  14.270  1.2455  2.5789 -0.7861
  149DOPC  H15B17739   0.893   4.131  14.115 -0.9004  0.0414  0.0945
  149DOPC  H15C17740   0.812   4.221  14.259  0.5053  2.0089  0.5330
  149DOPC   C1117741   1.171   4.434  14.058 -0.4648  0.5384  0.0603
  149DOPC  H11A17742   1.265   4.386  14.026 -0.3467 -1.4112  2.9758
  149DOPC  H11B17743   1.121   4.486  13.973  1.2960  1.9832 -0.1549
  149DOPC     P17744   1.153   4.679  14.170 -0.0371 -0.0157  0.0070
  149DOPC   O1317745   1.179   4.739  14.305  0.6403 -0.2097  0.3421
  149DOPC   O1417746   1.014   4.691  14.118 -0.0689  0.1030 -0.0404
  149DOPC   O1217747   1.203   4.523  14.165 -0.2479 -0.0971  0.5452
  149DOPC   O1117748   1.254   4.757  14.078 -0.0480 -0.3206  0.0677
  149DOPC    C117749   1.232   4.755  13.937  0.1838 -0.1085  0.7861
  149DOPC    HA17750   1.155   4.831  13.912  0.0499 -0.7637 -0.9659
  149DOPC    HB17751   1.199   4.654  13.905  2.1715 -0.9309  1.2052
  149DOPC    C217752   1.362   4.796  13.859  0.3867  0.0939  0.6109
  149DOPC    HS17753   1.353   4.760  13.755  0.7131 -1.7273  1.1754
  149DOPC   O2117754   1.482   4.738  13.916 -1.0607 -0.8404 -0.3514
  149DOPC   C2117755   1.485   4.607  13.916  0.1221 -0.4712  0.1717
  149DOPC   O2217756   1.409   4.540  13.844 -0.2645  0.2030  0.0333
  149DOPC   C2217757   1.585   4.555  14.019 -0.1074 -0.2496  0.0537
  149DOPC   H2R17758   1.519   4.505  14.093 -0.4178 -2.0082 -1.3381
  149DOPC   H2S17759   1.633   4.645  14.063 -1.1123  0.6646 -0.6474
  149DOPC    C317760   1.385   4.949  13.846 -0.3422  0.4582  0.1280
  149DOPC    HX17761   1.480   4.973  13.793  0.5413 -0.5884  1.1714
  149DOPC    HY17762   1.398   4.987  13.950  1.6912 -0.4171  0.2324
  149DOPC   O3117763   1.267   5.021  13.788 -0.3340  0.0184 -0.8418
  149DOPC   C3117764   1.255   5.024  13.661 -0.3169  0.5801 -0.1494
  149DOPC   O3217765   1.334   4.967  13.587  0.2955  0.1059  0.5933
  149DOPC   C3217766   1.129   5.092  13.617 -1.0044  0.5917  0.3912
  149DOPC   H2X17767   1.055   5.063  13.695 -2.2659 -1.8372 -1.5760
  149DOPC   H2Y17768   1.146   5.202  13.612  1.0242  0.3431  0.7629
  149DOPC   C2317769   1.694   4.458  13.949  0.6693 -1.1099 -0.0295
  149DOPC   H3R17770   1.642   4.361  13.933 -0.4738 -0.4794 -0.2953
  149DOPC   H3S17771   1.767   4.437  14.030 -0.2208  0.1644  1.1616
  149DOPC   C2417772   1.754   4.521  13.822  0.2054  0.0881 -0.3250
  149DOPC   H4R17773   1.676   4.556  13.751  1.1728  2.2944 -0.3870
  149DOPC   H4S17774   1.810   4.437  13.773  0.3261 -0.3727  0.5840
  149DOPC   C2517775   1.860   4.634  13.846  0.1603  0.1414  0.2000
  149DOPC   H5R17776   1.956   4.588  13.880 -0.9480 -3.5875 -1.2670
  149DOPC   H5S17777   1.818   4.696  13.928 -0.3915 -2.1894  1.7806
  149DOPC   C2617778   1.879   4.724  13.717  0.2626  0.3864 -0.2283
  149DOPC   H6R17779   1.938   4.817  13.734 -1.0393  1.1014  0.5036
  149DOPC   H6S17780   1.774   4.755  13.698  0.6463  0.8577 -1.7360
  149DOPC   C2717781   1.950   4.650  13.605 -0.0574 -0.1824  0.1306
  149DOPC   H7R17782   1.906   4.552  13.580 -1.9424  0.6976 -0.1924
  149DOPC   H7S17783   2.054   4.626  13.636  0.0196  1.8398  1.6815
  149DOPC   C2817784   1.937   4.716  13.463 -0.6270  0.1903 -0.4056
  149DOPC   H8R17785   1.828   4.733  13.448 -0.5559  2.3912  1.0106
  149DOPC   H8S17786   1.959   4.642  13.383  0.5982  0.2356 -0.1311
  149DOPC   C2917787   2.019   4.840  13.451  0.1951 -0.3920 -0.7033
  149DOPC   H9R17788   2.094   4.853  13.531 -0.2103 -1.1250 -0.1954
  149DOPC  C21017789   2.021   4.909  13.338 -0.3703  0.3543 -0.5544
  149DOPC  H10R17790   2.084   4.999  13.343  0.3175 -0.0367 -1.8636
  149DOPC  C21117791   1.937   4.873  13.216  0.3125  0.0895 -0.2327
  149DOPC  H11R17792   1.836   4.831  13.236  1.1074 -1.9141 -0.2296
  149DOPC  H11S17793   1.981   4.782  13.170 -3.0376 -1.4265 -0.7478
  149DOPC  C21217794   1.943   4.974  13.097  0.4759  0.5471 -0.5487
  149DOPC  H12R17795   2.048   4.999  13.073  0.7352 -2.6871 -3.4540
  149DOPC  H12S17796   1.874   5.059  13.122 -1.5804 -0.7089 -1.6672
  149DOPC  C21317797   1.877   4.918  12.964 -0.1846  0.5528  0.2112
  149DOPC  H13R17798   1.773   4.887  12.983 -0.1223 -0.0015 -0.3245
  149DOPC  H13S17799   1.942   4.834  12.931  2.7012  1.8204  2.2020
  149DOPC  C21417800   1.881   5.024  12.857  0.0935 -0.3268  0.2390
  149DOPC  H14R17801   1.983   5.064  12.844  0.3404 -0.8956  0.3718
  149DOPC  H14S17802   1.808   5.105  12.881  1.9022  1.3775  0.2475
  149DOPC  C21517803   1.846   4.970  12.715  0.0390 -0.0835  0.8109
  149DOPC  H15R17804   1.839   5.056  12.645 -1.4443 -2.6561 -2.4269
  149DOPC  H15S17805   1.744   4.927  12.720 -0.4565  1.0305  0.4619
  149DOPC  C21617806   1.937   4.860  12.659 -0.0492  0.3419  0.2645
  149DOPC  H16R17807   1.888   4.825  12.566  0.2409  0.3118  0.1223
  149DOPC  H16S17808   1.953   4.773  12.726  0.7017  0.7372  0.6212
  149DOPC  C21717809   2.075   4.917  12.609  0.4837 -0.6712 -0.8346
  149DOPC  H17R17810   2.133   4.839  12.555  1.1254  1.4299 -3.4646
  149DOPC  H17S17811   2.133   4.947  12.698 -0.8314 -2.0155  0.5185
  149DOPC  C21817812   2.058   5.027  12.499 -0.1678  0.5358 -0.5803
  149DOPC  H18R17813   2.012   5.009  12.400 -0.9830  1.3470 -0.3596
  149DOPC  H18S17814   2.158   5.064  12.468  0.4870 -1.8255 -1.5579
  149DOPC  H18T17815   2.011   5.119  12.538 -0.9493 -0.3102  0.5630
  149DOPC   C3317816   1.064   5.053  13.484 -0.2008  0.5567  0.5946
  149DOPC   H3X17817   0.957   5.084  13.487 -0.7985 -1.4075  0.8865
  149DOPC   H3Y17818   1.070   4.942  13.475  0.2055  0.4694  1.8406
  149DOPC   C3417819   1.118   5.115  13.361  0.2361  0.1281  0.2379
  149DOPC   H4X17820   1.222   5.098  13.328  0.8376  0.9178  1.6486
  149DOPC   H4Y17821   1.092   5.223  13.369 -0.5048 -0.0009 -0.2457
  149DOPC   C3517822   1.024   5.064  13.241 -0.5344  0.2099 -0.2661
  149DOPC   H5X17823   0.927   5.118  13.242 -0.4370  0.4162 -1.2248
  149DOPC   H5Y17824   1.005   4.956  13.258 -1.8492  0.6009  0.9271
  149DOPC   C3617825   1.068   5.085  13.096 -0.1541 -0.2564 -0.3758
  149DOPC   H6X17826   1.109   5.188  13.089  0.2523 -0.1065  2.6558
  149DOPC   H6Y17827   1.151   5.017  13.066  0.0163  0.6506 -2.0249
  149DOPC   C3717828   0.950   5.065  12.992 -1.4869 -0.5851  0.2935
  149DOPC   H7X17829   0.899   4.969  13.015 -1.1666 -0.6036  0.9503
  149DOPC   H7Y17830   0.874   5.146  13.002 -1.4361 -0.5817  0.6628
  149DOPC   C3817831   1.002   5.056  12.843 -0.0169 -0.5325  0.1629
  149DOPC   H8X17832   1.078   5.137  12.833  0.8079 -1.4638 -1.5118
  149DOPC   H8Y17833   0.908   5.089  12.794 -0.5251 -0.3341  1.2461
  149DOPC   C3917834   1.052   4.933  12.772  0.3304  0.1563  0.1088
  149DOPC   H9X17835   1.062   4.837  12.825  0.1307 -0.4846 -0.9714
  149DOPC  C31017836   1.047   4.918  12.636  0.5625  0.0268 -0.2118
  149DOPC  H10X17837   1.097   4.829  12.594 -0.9520 -1.4704  1.0105
  149DOPC  C31117838   0.991   5.023  12.539 -0.1381  0.6264  0.8311
  149DOPC  H11X17839   1.058   5.111  12.546 -0.6644  1.1422 -0.4404
  149DOPC  H11Y17840   0.891   5.058  12.572 -0.5765  1.2721 -1.0989
  149DOPC  C31217841   0.985   4.969  12.393  0.1387 -0.2157 -0.0323
  149DOPC  H12X17842   0.952   5.065  12.346 -1.3679  0.6240  2.5328
  149DOPC  H12Y17843   0.907   4.891  12.384 -1.0523  1.0974 -2.1135
  149DOPC  C31317844   1.110   4.910  12.332 -0.7068  0.3452 -0.5434
  149DOPC  H13X17845   1.191   4.986  12.329  2.0473 -2.1865  2.1008
  149DOPC  H13Y17846   1.148   4.832  12.402 -0.7877 -0.0576 -0.9447
  149DOPC  C31417847   1.085   4.857  12.194  0.5312  0.0267 -0.1528
  149DOPC  H14X17848   1.175   4.793  12.183  0.2202 -0.3249 -0.6880
  149DOPC  H14Y17849   0.995   4.791  12.198  0.6598 -0.1668 -0.4232
  149DOPC  C31517850   1.058   4.970  12.091 -0.4908 -0.5430 -0.2753
  149DOPC  H15X17851   1.145   5.038  12.075 -0.4092 -0.5842 -0.0063
  149DOPC  H15Y17852   0.968   5.029  12.117 -2.2071 -2.5082 -1.4935
  149DOPC  C31617853   1.029   4.923  11.946 -0.0345 -0.2663 -0.0012
  149DOPC  H16X17854   0.958   4.841  11.973 -0.0787  0.7214  3.3044
  149DOPC  H16Y17855   0.988   5.006  11.884  0.1660  1.1036  1.6468
  149DOPC  C31717856   1.157   4.888  11.878  0.0189 -0.4974  0.5484
  149DOPC  H17X17857   1.233   4.966  11.899 -0.9686  0.0774  2.1578
  149DOPC  H17Y17858   1.192   4.800  11.936  3.5452 -0.0083 -0.6403
  149DOPC  C31817859   1.142   4.867  11.728 -0.2325  0.1628  0.6873
  149DOPC  H18X17860   1.078   4.776  11.715  1.7382 -1.3233  0.9861
  149DOPC  H18Y17861   1.094   4.953  11.676 -1.9345 -1.1304 -0.0148
  149DOPC  H18Z17862   1.244   4.838  11.696 -0.4380 -0.8955  0.9399
  150DOPC     N17863   3.598   5.682  14.007  0.4166  0.2436  0.0427
  150DOPC   C1217864   3.532   5.730  13.879  0.5928  0.4187  0.5020
  150DOPC  H12A17865   3.517   5.836  13.893 -0.1848  0.6222 -1.4946
  150DOPC  H12B17866   3.435   5.684  13.868 -0.2273  1.9894  0.8438
  150DOPC   C1317867   3.742   5.719  14.011  0.3426  0.7111  0.2517
  150DOPC  H13A17868   3.789   5.683  14.102 -0.6559 -0.3802  0.3799
  150DOPC  H13B17869   3.789   5.673  13.926  0.8705 -2.4464  2.0634
  150DOPC  H13C17870   3.767   5.823  14.004 -1.2387  1.1797  0.9725
  150DOPC   C1417871   3.583   5.534  14.003 -0.0816  0.1864 -0.5549
  150DOPC  H14A17872   3.624   5.504  13.908  3.8924  3.2358 -0.0480
  150DOPC  H14B17873   3.637   5.481  14.080 -0.2280 -0.1422 -0.6746
  150DOPC  H14C17874   3.482   5.496  13.999 -0.1102  0.3443 -1.5460
  150DOPC   C1517875   3.526   5.739  14.122 -0.0326 -0.4951 -0.1610
  150DOPC  H15A17876   3.421   5.719  14.111 -0.1903 -0.6582  1.3245
  150DOPC  H15B17877   3.543   5.846  14.122  3.1160 -0.8882 -0.6057
  150DOPC  H15C17878   3.565   5.696  14.214 -0.5758 -0.5391  0.0537
  150DOPC   C1117879   3.609   5.718  13.752 -0.2059  0.3738 -0.3375
  150DOPC  H11A17880   3.550   5.757  13.666 -0.1385 -1.6513 -1.3650
  150DOPC  H11B17881   3.700   5.781  13.765  0.0777 -0.1344  0.1895
  150DOPC     P17882   3.784   5.542  13.673  0.3169 -0.0451 -0.2890
  150DOPC   O1317883   3.783   5.403  13.627  0.2711  0.4798 -0.4404
  150DOPC   O1417884   3.872   5.589  13.787  0.3402  0.0814 -0.1225
  150DOPC   O1217885   3.640   5.575  13.720  0.8061  0.2621 -0.0303
  150DOPC   O1117886   3.799   5.645  13.550  0.4317  0.4883  0.2969
  150DOPC    C117887   3.709   5.619  13.436  0.8683 -0.3213 -0.1326
  150DOPC    HA17888   3.669   5.716  13.399 -1.9222 -2.1193 -2.3027
  150DOPC    HB17889   3.617   5.561  13.458  0.4127  0.3129 -0.3381
  150DOPC    C217890   3.769   5.550  13.314  0.5467 -0.2200 -0.3495
  150DOPC    HS17891   3.755   5.441  13.335 -4.4685  0.1210 -0.7227
  150DOPC   O2117892   3.905   5.599  13.292 -0.3825 -0.2841 -0.3019
  150DOPC   C2117893   3.976   5.504  13.224  0.7403 -0.4260 -0.2633
  150DOPC   O2217894   3.936   5.392  13.196 -0.2279  0.0476  0.2720
  150DOPC   C2217895   4.114   5.564  13.204  0.4653  0.4774 -0.2655
  150DOPC   H2R17896   4.173   5.545  13.296 -0.0634  1.4666  0.2964
  150DOPC   H2S17897   4.115   5.671  13.173  1.2818  0.2436 -1.0984
  150DOPC    C317898   3.684   5.594  13.184 -0.0589  0.5919  0.6750
  150DOPC    HX17899   3.716   5.698  13.165 -0.4981  0.4119 -1.2175
  150DOPC    HY17900   3.577   5.577  13.210 -0.1802  0.2485 -0.0330
  150DOPC   O3117901   3.710   5.523  13.057 -0.4795 -0.1079 -0.0367
  150DOPC   C3117902   3.669   5.395  13.048 -0.5480  0.7289 -0.7078
  150DOPC   O3217903   3.600   5.336  13.125 -0.1600  0.6674 -0.2684
  150DOPC   C3217904   3.710   5.328  12.918  0.4968 -0.1600 -0.3529
  150DOPC   H2X17905   3.740   5.223  12.942 -0.5671 -0.2814  0.5343
  150DOPC   H2Y17906   3.618   5.333  12.857  0.5206 -1.7991 -0.5676
  150DOPC   C2317907   4.188   5.486  13.086 -0.0293 -0.4299  0.3400
  150DOPC   H3R17908   4.118   5.454  13.006 -0.1674 -0.4715  0.4776
  150DOPC   H3S17909   4.217   5.390  13.134  0.5081  0.3201  1.5705
  150DOPC   C2417910   4.303   5.567  13.024 -0.6313  0.2592  0.0068
  150DOPC   H4R17911   4.356   5.508  12.947 -0.9329 -0.0513  0.0383
  150DOPC   H4S17912   4.376   5.604  13.099  0.7193 -1.0622 -0.6070
  150DOPC   C2517913   4.246   5.688  12.947  0.4120  0.7883  0.2536
  150DOPC   H5R17914   4.284   5.786  12.984  0.4089  1.2346 -0.8922
  150DOPC   H5S17915   4.139   5.709  12.969  0.6740  2.6947 -0.1105
  150DOPC   C2617916   4.277   5.683  12.799  0.2119 -0.2198 -0.1260
  150DOPC   H6R17917   4.386   5.678  12.777  0.1879  2.1857 -1.0772
  150DOPC   H6S17918   4.249   5.783  12.759  1.2393 -0.0801 -0.5390
  150DOPC   C2717919   4.212   5.572  12.721 -0.0986 -0.3369 -0.5395
  150DOPC   H7R17920   4.105   5.572  12.753  0.6689  0.3865  2.3312
  150DOPC   H7S17921   4.247   5.474  12.758  1.3031  0.2288 -0.3012
  150DOPC   C2817922   4.215   5.584  12.569  0.0388  1.2242  0.2030
  150DOPC   H8R17923   4.158   5.675  12.540 -0.7957  0.8566  0.6627
  150DOPC   H8S17924   4.155   5.501  12.526  1.7044 -0.2511  0.5844
  150DOPC   C2917925   4.353   5.576  12.513 -0.5130  0.5499 -0.8826
  150DOPC   H9R17926   4.418   5.650  12.562 -1.6521  0.3043  1.1183
  150DOPC  C21017927   4.399   5.496  12.414  0.2736  0.7651  0.3210
  150DOPC  H10R17928   4.505   5.483  12.386  0.2405 -1.7919  1.1263
  150DOPC  C21117929   4.308   5.405  12.341  0.2489 -0.0119  0.7230
  150DOPC  H11R17930   4.209   5.454  12.329 -1.1835 -2.8372  0.1085
  150DOPC  H11S17931   4.290   5.309  12.394 -1.5475 -1.0128 -1.5372
  150DOPC  C21217932   4.368   5.363  12.196  0.9544  0.0684 -0.1329
  150DOPC  H12R17933   4.331   5.262  12.167 -1.6355  0.4486  1.4981
  150DOPC  H12S17934   4.478   5.346  12.202  1.1830  1.3739 -0.3343
  150DOPC  C21317935   4.324   5.467  12.099 -0.3861 -0.7747  1.0734
  150DOPC  H13R17936   4.387   5.558  12.112 -0.0177 -0.1073 -3.4544
  150DOPC  H13S17937   4.218   5.499  12.102 -0.0448  0.3404  1.6489
  150DOPC  C21417938   4.365   5.430  11.958  0.3781 -0.1967 -0.3902
  150DOPC  H14R17939   4.470   5.393  11.956 -0.4221 -2.9179  2.1512
  150DOPC  H14S17940   4.366   5.529  11.906  0.5323  0.9704  1.7429
  150DOPC  C21517941   4.267   5.331  11.886  0.4688 -0.2668  0.1970
  150DOPC  H15R17942   4.161   5.360  11.907 -0.2548 -0.3223 -2.8459
  150DOPC  H15S17943   4.287   5.230  11.926  0.7165 -0.4743 -0.4356
  150DOPC  C21617944   4.283   5.337  11.732 -1.3593 -0.2297  0.7549
  150DOPC  H16R17945   4.384   5.301  11.700 -0.1824  2.3420  1.3296
  150DOPC  H16S17946   4.268   5.440  11.694  0.1083  0.1351  1.1025
  150DOPC  C21717947   4.178   5.248  11.664  0.0938 -0.2433 -0.6356
  150DOPC  H17R17948   4.082   5.284  11.708  0.8571  1.7413 -0.5300
  150DOPC  H17S17949   4.187   5.141  11.694  3.3331  0.5971  1.9399
  150DOPC  C21817950   4.184   5.275  11.512  0.4607 -0.2942 -0.1133
  150DOPC  H18R17951   4.097   5.226  11.464 -0.0125  1.4312 -1.1120
  150DOPC  H18S17952   4.274   5.228  11.467  0.5371 -0.0788 -0.1870
  150DOPC  H18T17953   4.172   5.384  11.492  0.7030 -0.5765 -1.9495
  150DOPC   C3317954   3.823   5.396  12.833  0.3677 -0.1579  0.0829
  150DOPC   H3X17955   3.918   5.392  12.890 -0.2036 -1.2706  1.0059
  150DOPC   H3Y17956   3.796   5.500  12.803  2.4556  0.4917  0.2840
  150DOPC   C3417957   3.837   5.327  12.693 -1.0012 -0.6477 -0.0915
  150DOPC   H4X17958   3.855   5.218  12.705  0.2950 -0.2706  1.7599
  150DOPC   H4Y17959   3.935   5.357  12.650 -0.5615 -1.8249  0.0704
  150DOPC   C3517960   3.730   5.355  12.583  1.0986  0.4430 -0.3631
  150DOPC   H5X17961   3.720   5.465  12.588  1.5350  0.4639  0.1425
  150DOPC   H5Y17962   3.636   5.306  12.614  1.8865 -2.0590 -1.6074
  150DOPC   C3617963   3.769   5.303  12.449 -0.5068 -0.0253  0.8147
  150DOPC   H6X17964   3.823   5.208  12.468  1.2271  0.7938  0.1552
  150DOPC   H6Y17965   3.676   5.297  12.389  0.7286 -1.8467 -1.0326
  150DOPC   C3717966   3.872   5.407  12.387  0.2710  0.3707 -0.8875
  150DOPC   H7X17967   3.840   5.508  12.419 -1.1359  0.0541 -1.2376
  150DOPC   H7Y17968   3.978   5.401  12.421 -0.2605 -0.3341  0.7522
  150DOPC   C3817969   3.877   5.406  12.229  0.0172 -0.6439 -0.4612
  150DOPC   H8X17970   3.933   5.500  12.208 -0.6160  0.1037  1.0597
  150DOPC   H8Y17971   3.781   5.420  12.176  0.0202 -1.2635 -0.6409
  150DOPC   C3917972   3.960   5.292  12.165  0.4875  0.3873  0.4765
  150DOPC   H9X17973   4.052   5.259  12.215  0.2684  0.3306  0.8507
  150DOPC  C31017974   3.926   5.212  12.056  0.4827 -0.2459 -0.7321
  150DOPC  H10X17975   3.986   5.128  12.018 -0.6940 -0.7611 -1.5372
  150DOPC  C31117976   3.793   5.220  11.983 -0.0711  0.4107  0.2512
  150DOPC  H11X17977   3.720   5.298  12.016  0.6952  1.0786  0.4109
  150DOPC  H11Y17978   3.741   5.124  12.003  1.3607 -0.3860  0.3245
  150DOPC  C31217979   3.803   5.243  11.830  0.9399  0.1720 -0.4347
  150DOPC  H12X17980   3.880   5.320  11.806  0.6815  0.3517 -0.6985
  150DOPC  H12Y17981   3.703   5.283  11.803 -0.4322 -1.5991  1.7153
  150DOPC  C31317982   3.826   5.124  11.736 -0.0672 -0.3719 -0.4011
  150DOPC  H13X17983   3.932   5.105  11.761 -0.2155 -0.9224 -0.1856
  150DOPC  H13Y17984   3.755   5.041  11.755  1.1778 -0.8922  2.5739
  150DOPC  C31417985   3.824   5.169  11.590 -0.3913  0.4833  0.1266
  150DOPC  H14X17986   3.727   5.215  11.560  0.6672  2.8200  0.0302
  150DOPC  H14Y17987   3.885   5.261  11.576  2.4196 -1.1578  0.9930
  150DOPC  C31517988   3.867   5.065  11.495 -0.2123 -0.5999 -0.2467
  150DOPC  H15X17989   3.799   4.978  11.506 -1.7541  0.1637 -2.9113
  150DOPC  H15Y17990   3.972   5.032  11.511 -0.2782 -0.7851 -0.1897
  150DOPC  C31617991   3.854   5.113  11.343  0.7434  0.0770  0.2631
  150DOPC  H16X17992   3.746   5.112  11.317  0.7019  1.6158  0.2957
  150DOPC  H16Y17993   3.901   5.211  11.324  1.8297 -0.5024 -0.1313
  150DOPC  C31717994   3.931   5.023  11.242  0.2312 -0.4624  0.2118
  150DOPC  H17X17995   3.907   4.916  11.254  0.3698 -0.9540 -3.0329
  150DOPC  H17Y17996   3.907   5.058  11.139  1.3452  0.7844  0.3484
  150DOPC  C31817997   4.083   5.031  11.260 -0.7411  0.1660  1.1105
  150DOPC  H18X17998   4.126   5.124  11.217  0.5295  0.0790  2.1349
  150DOPC  H18Y17999   4.120   5.010  11.362  2.8515  1.3356  0.2193
  150DOPC  H18Z18000   4.126   4.950  11.197 -1.4694 -0.2950  1.2006
  151DOPC     N18001   2.395   6.038  13.735  0.1916  0.4436 -0.2127
  151DOPC   C1218002   2.488   5.922  13.709 -0.1393  0.5800  0.2199
  151DOPC  H12A18003   2.586   5.954  13.740  0.4737  1.1720 -2.1494
  151DOPC  H12B18004   2.502   5.920  13.602  0.8897  0.7106  0.3400
  151DOPC   C1318005   2.256   6.004  13.679  0.0845  0.5998 -0.2372
  151DOPC  H13A18006   2.271   5.974  13.576  0.0409  2.0117 -0.6643
  151DOPC  H13B18007   2.218   5.919  13.734  0.5293  0.2745 -0.4218
  151DOPC  H13C18008   2.180   6.078  13.696  0.2342  0.9744 -1.1810
  151DOPC   C1418009   2.430   6.171  13.680 -0.2291 -0.0277 -0.4562
  151DOPC  H14A18010   2.376   6.248  13.733  2.6136  2.9338 -1.5728
  151DOPC  H14B18011   2.532   6.197  13.706  0.1836 -2.1864  0.2940
  151DOPC  H14C18012   2.422   6.185  13.574 -1.5251  0.4447 -0.3097
  151DOPC   C1518013   2.391   6.045  13.882 -0.6559  0.0155 -0.0100
  151DOPC  H15A18014   2.475   6.096  13.929 -1.3864 -0.8225  2.3402
  151DOPC  H15B18015   2.399   5.947  13.926 -1.0855  0.1234  0.3157
  151DOPC  H15C18016   2.306   6.094  13.926  0.1955 -0.6843  2.6356
  151DOPC   C1118017   2.471   5.783  13.779 -0.0306 -0.1558 -0.2516
  151DOPC  H11A18018   2.563   5.730  13.746  2.5370  2.5365  2.1220
  151DOPC  H11B18019   2.474   5.794  13.889 -1.5013 -0.1776 -0.1807
  151DOPC     P18020   2.349   5.585  13.659 -0.2916  0.3820 -0.3117
  151DOPC   O1318021   2.220   5.508  13.684 -0.1585 -0.3363 -0.1293
  151DOPC   O1418022   2.468   5.503  13.691  0.1421 -0.7064  0.3374
  151DOPC   O1218023   2.354   5.721  13.745 -0.6097 -0.1368  0.2396
  151DOPC   O1118024   2.351   5.630  13.506  0.5054  0.3741 -0.2209
  151DOPC    C118025   2.254   5.719  13.456 -0.8466  0.0467  0.8765
  151DOPC    HA18026   2.309   5.807  13.416 -0.5219 -0.2587  0.6525
  151DOPC    HB18027   2.188   5.760  13.536 -0.4173 -1.4264  2.0327
  151DOPC    C218028   2.187   5.672  13.330 -0.1465 -0.0293 -0.9153
  151DOPC    HS18029   2.219   5.733  13.243  0.1574  0.6417 -0.3434
  151DOPC   O2118030   2.036   5.672  13.341 -0.2223 -0.1268  0.0454
  151DOPC   C2118031   1.988   5.794  13.359 -0.5262 -0.0932  0.2908
  151DOPC   O2218032   2.056   5.895  13.373 -0.0573 -1.0606  0.0290
  151DOPC   C2218033   1.839   5.798  13.377  0.1155  0.2717 -0.1765
  151DOPC   H2R18034   1.803   5.898  13.409  1.2426  0.9675 -1.0257
  151DOPC   H2S18035   1.809   5.720  13.451  0.1197  1.0413  0.6577
  151DOPC    C318036   2.229   5.528  13.290  0.5591  0.1398 -0.0902
  151DOPC    HX18037   2.208   5.455  13.371 -1.4623  1.5130  0.7159
  151DOPC    HY18038   2.339   5.540  13.297  0.3264  1.5162  2.0414
  151DOPC   O3118039   2.170   5.492  13.155  0.4101 -0.1736 -0.6616
  151DOPC   C3118040   2.079   5.394  13.150  0.3315 -0.2872 -0.0840
  151DOPC   O3218041   2.023   5.332  13.242  0.2093 -0.3384  0.3267
  151DOPC   C3218042   2.055   5.365  13.003 -0.5446 -0.3973  0.2772
  151DOPC   H2X18043   2.151   5.374  12.947 -0.8004 -0.9320 -0.2568
  151DOPC   H2Y18044   2.002   5.267  12.998  0.1838 -0.7937  0.1422
  151DOPC   C2318045   1.764   5.773  13.241  0.2531  0.2749  0.4090
  151DOPC   H3R18046   1.659   5.770  13.276  0.9873  1.3236  2.9722
  151DOPC   H3S18047   1.790   5.681  13.186  1.5332  0.6649  0.3359
  151DOPC   C2418048   1.777   5.888  13.133 -0.1733 -0.2271 -0.2668
  151DOPC   H4R18049   1.881   5.884  13.094  0.2046  2.5667  0.2254
  151DOPC   H4S18050   1.756   5.987  13.179  2.2237  0.0612  0.3636
  151DOPC   C2518051   1.685   5.875  13.008 -0.1662  0.5551 -0.1589
  151DOPC   H5R18052   1.588   5.928  13.022 -0.1121  0.8094 -0.7412
  151DOPC   H5S18053   1.662   5.770  12.981 -3.2270  1.4357 -1.4606
  151DOPC   C2618054   1.745   5.941  12.886 -0.3893 -0.1556  0.3735
  151DOPC   H6R18055   1.844   5.907  12.847  0.8331  2.3091  1.0670
  151DOPC   H6S18056   1.766   6.040  12.933  0.6831 -0.5430  0.7447
  151DOPC   C2718057   1.645   5.941  12.767 -0.4585 -0.2940 -0.0341
  151DOPC   H7R18058   1.544   5.972  12.804 -0.5995  1.3666 -1.6964
  151DOPC   H7S18059   1.622   5.834  12.746 -0.7168 -0.5386  1.3405
  151DOPC   C2818060   1.688   6.035  12.653 -0.1581 -0.1195 -0.0432
  151DOPC   H8R18061   1.691   6.136  12.700 -2.5017  0.8089 -1.7445
  151DOPC   H8S18062   1.608   6.038  12.577  0.6801  2.9631 -0.9377
  151DOPC   C2918063   1.823   6.000  12.593  0.1805  0.2558  0.1122
  151DOPC   H9R18064   1.912   6.003  12.657  0.3683 -1.1977 -0.0635
  151DOPC  C21018065   1.848   5.958  12.468 -0.5511 -0.1596 -0.3303
  151DOPC  H10R18066   1.948   5.920  12.443 -0.2566  0.6541 -0.4142
  151DOPC  C21118067   1.747   5.943  12.354 -0.2323 -0.4007  0.0650
  151DOPC  H11R18068   1.681   6.032  12.363 -2.5868 -1.8307 -1.8002
  151DOPC  H11S18069   1.682   5.852  12.347 -1.3541  0.4884 -1.7439
  151DOPC  C21218070   1.820   5.951  12.222 -0.7867  0.3420  0.0393
  151DOPC  H12R18071   1.889   5.865  12.209 -0.9192  0.4381 -1.5735
  151DOPC  H12S18072   1.877   6.047  12.221  0.2763 -0.2609 -1.0777
  151DOPC  C21318073   1.716   5.951  12.108 -0.6620 -0.0609 -0.4406
  151DOPC  H13R18074   1.650   6.038  12.131  0.4741  0.8412 -0.5296
  151DOPC  H13S18075   1.650   5.862  12.112 -0.6557 -0.0318  0.4189
  151DOPC  C21418076   1.764   5.965  11.963 -0.0603 -0.4317  0.0622
  151DOPC  H14R18077   1.834   6.049  11.944 -1.2012  0.3231 -1.0219
  151DOPC  H14S18078   1.674   5.992  11.904  1.0871  0.6909 -1.2381
  151DOPC  C21518079   1.818   5.826  11.917 -0.1011 -0.3112 -0.1524
  151DOPC  H15R18080   1.730   5.759  11.928  1.0995 -2.0680 -0.8086
  151DOPC  H15S18081   1.890   5.779  11.987  0.0435 -0.6329 -0.5152
  151DOPC  C21618082   1.850   5.832  11.763  0.2298 -0.2484 -0.7925
  151DOPC  H16R18083   1.902   5.923  11.727 -0.8884  0.7549  0.0788
  151DOPC  H16S18084   1.747   5.835  11.722  0.6076 -0.6247 -1.8019
  151DOPC  C21718085   1.914   5.701  11.716  0.3776 -0.3734  0.6821
  151DOPC  H17R18086   1.862   5.621  11.773  2.8595 -2.0406  0.7911
  151DOPC  H17S18087   2.021   5.693  11.746  0.0968 -3.3660  1.2002
  151DOPC  C21818088   1.903   5.664  11.571  0.5847  0.0856 -0.7455
  151DOPC  H18R18089   1.965   5.576  11.546  0.6007 -0.4739  1.1472
  151DOPC  H18S18090   1.928   5.752  11.507 -2.2826  0.8267 -1.0027
  151DOPC  H18T18091   1.797   5.651  11.541 -0.1294  0.4364  1.4247
  151DOPC   C3318092   1.968   5.481  12.944  0.2677 -0.8424  0.0654
  151DOPC   H3X18093   2.007   5.584  12.956 -3.6610  0.7712  0.6568
  151DOPC   H3Y18094   1.866   5.472  12.987 -0.3255  2.2908 -0.4749
  151DOPC   C3418095   1.936   5.472  12.796 -0.0699  0.1438 -0.5957
  151DOPC   H4X18096   1.903   5.367  12.782  2.7049 -0.9424  0.2973
  151DOPC   H4Y18097   2.025   5.482  12.730 -0.0444  1.0136 -0.4466
  151DOPC   C3518098   1.820   5.558  12.739  0.0292 -0.4431  0.2105
  151DOPC   H5X18099   1.844   5.667  12.735 -2.2328  0.0957 -3.5835
  151DOPC   H5Y18100   1.729   5.549  12.801 -0.9125  1.1711 -0.8720
  151DOPC   C3618101   1.767   5.513  12.607  0.5251  0.3154  0.1982
  151DOPC   H6X18102   1.756   5.403  12.593 -1.9676  0.3874  1.0779
  151DOPC   H6Y18103   1.664   5.551  12.591  0.6826  0.8933  0.5102
  151DOPC   C3718104   1.863   5.560  12.498 -0.3645  0.2423  0.5177
  151DOPC   H7X18105   1.851   5.670  12.488 -1.6099  0.1545  0.7678
  151DOPC   H7Y18106   1.963   5.535  12.538  1.2781  1.5041 -2.5331
  151DOPC   C3818107   1.847   5.480  12.362  0.0837 -0.4231  0.1096
  151DOPC   H8X18108   1.754   5.516  12.313  0.0801 -1.1816 -0.4464
  151DOPC   H8Y18109   1.831   5.374  12.391  1.8347 -0.0815  2.7961
  151DOPC   C3918110   1.965   5.507  12.276 -0.4140  0.1443  0.4769
  151DOPC   H9X18111   1.956   5.607  12.231 -3.4510 -0.9023 -1.5679
  151DOPC  C31018112   2.054   5.422  12.223 -0.7386  0.8372  0.1079
  151DOPC  H10X18113   2.136   5.458  12.159 -0.1000 -1.0247 -0.1718
  151DOPC  C31118114   2.053   5.272  12.233 -0.2169 -0.2555 -0.0546
  151DOPC  H11X18115   1.971   5.244  12.303  0.7347  0.1070  1.2489
  151DOPC  H11Y18116   2.147   5.237  12.281  0.7284  0.8321 -1.0480
  151DOPC  C31218117   2.036   5.196  12.097 -0.8857  1.0643  0.4954
  151DOPC  H12X18118   2.132   5.209  12.043 -1.1285 -3.3765 -1.4062
  151DOPC  H12Y18119   1.947   5.244  12.051 -0.8369 -0.1446 -0.9397
  151DOPC  C31318120   2.026   5.046  12.137 -0.1099  0.3692  1.0536
  151DOPC  H13X18121   2.116   5.015  12.194  0.4471  0.4536  0.2315
  151DOPC  H13Y18122   1.937   5.038  12.203  0.1945 -0.2317  1.3974
  151DOPC  C31418123   1.994   4.961  12.009  0.0745 -0.2779 -0.4065
  151DOPC  H14X18124   1.967   4.858  12.038 -0.3310 -0.2029 -0.5087
  151DOPC  H14Y18125   1.905   5.008  11.961  0.6561  0.8986 -0.3672
  151DOPC  C31518126   2.101   4.955  11.905 -1.0705 -0.1902  0.0476
  151DOPC  H15X18127   2.134   5.055  11.872 -0.4528 -0.5655 -0.4912
  151DOPC  H15Y18128   2.074   4.894  11.816  0.0457 -1.2315  0.3933
  151DOPC  C31618129   2.227   4.878  11.955  0.0508  0.4828 -0.0814
  151DOPC  H16X18130   2.308   4.904  11.883 -0.0897 -2.0134 -1.2341
  151DOPC  H16Y18131   2.260   4.902  12.058  2.3320  1.0179 -0.8794
  151DOPC  C31718132   2.214   4.723  11.959 -0.2065  0.6636  0.1511
  151DOPC  H17X18133   2.120   4.699  12.014  0.6946  2.4175  2.6523
  151DOPC  H17Y18134   2.219   4.679  11.857 -1.0832  0.3396  0.2427
  151DOPC  C31818135   2.326   4.652  12.048  0.2153 -0.5154 -0.0967
  151DOPC  H18X18136   2.289   4.547  12.055 -0.7309 -0.2685 -1.1139
  151DOPC  H18Y18137   2.427   4.657  12.003  0.5338  0.9526  0.7253
  151DOPC  H18Z18138   2.331   4.708  12.144  1.1506  0.4496 -0.6922
  152DOPC     N18139   2.194   3.602  13.948  0.0060  0.3910  0.0345
  152DOPC   C1218140   2.240   3.485  13.864 -0.0530  0.2763 -0.0605
  152DOPC  H12A18141   2.169   3.468  13.784 -0.2211  0.8245 -0.0359
  152DOPC  H12B18142   2.249   3.398  13.926  0.4062  0.7474  0.5498
  152DOPC   C1318143   2.203   3.734  13.874  0.0609  0.4859 -0.4325
  152DOPC  H13A18144   2.302   3.756  13.836 -1.3195  1.5859 -3.7430
  152DOPC  H13B18145   2.128   3.754  13.799  0.3270  0.8675 -0.5995
  152DOPC  H13C18146   2.182   3.819  13.937 -1.7907  0.6298 -1.1748
  152DOPC   C1418147   2.281   3.618  14.070  0.0994  0.8418  0.2871
  152DOPC  H14A18148   2.249   3.691  14.143  0.2464 -0.6861  1.9441
  152DOPC  H14B18149   2.289   3.522  14.119 -0.6033 -0.4643 -2.0026
  152DOPC  H14C18150   2.376   3.652  14.032 -1.5113  2.3685 -2.7624
  152DOPC   C1518151   2.060   3.581  14.002 -0.5071  0.1246 -0.0781
  152DOPC  H15A18152   1.992   3.580  13.918  1.6102  1.2572 -1.9143
  152DOPC  H15B18153   2.025   3.654  14.074  0.1147 -0.5577  0.9380
  152DOPC  H15C18154   2.046   3.484  14.046 -1.0059  1.6252  3.3455
  152DOPC   C1118155   2.370   3.498  13.781  0.0043 -0.0735  0.2904
  152DOPC  H11A18156   2.397   3.411  13.718 -1.0384 -1.3604  1.5698
  152DOPC  H11B18157   2.357   3.580  13.707 -0.1153 -0.9601 -0.6959
  152DOPC     P18158   2.576   3.418  13.924  0.3510 -0.1249 -0.0328
  152DOPC   O1318159   2.501   3.305  13.996 -0.6428 -0.3317  0.0514
  152DOPC   O1418160   2.679   3.478  14.006  0.0515  0.1198  0.1820
  152DOPC   O1218161   2.474   3.531  13.873 -0.0194 -0.2551  0.2405
  152DOPC   O1118162   2.646   3.366  13.800 -0.2558 -0.0825 -0.2091
  152DOPC    C118163   2.753   3.431  13.732  0.1270  0.0831 -0.4107
  152DOPC    HA18164   2.829   3.359  13.695 -1.3641 -1.5032 -0.4694
  152DOPC    HB18165   2.797   3.505  13.803 -3.6088  0.2482  2.0218
  152DOPC    C218166   2.708   3.506  13.603  0.2852 -0.2096 -0.0478
  152DOPC    HS18167   2.632   3.579  13.637  0.0614  0.4746 -1.8779
  152DOPC   O2118168   2.648   3.409  13.513 -0.1121  0.0112  0.0458
  152DOPC   C2118169   2.539   3.453  13.448 -0.0399 -0.0854  0.0245
  152DOPC   O2218170   2.481   3.559  13.465  0.6592 -0.0236 -0.1045
  152DOPC   C2218171   2.493   3.340  13.371 -0.1520  0.6714  0.6554
  152DOPC   H2R18172   2.448   3.267  13.441 -0.8761 -1.2502 -1.6621
  152DOPC   H2S18173   2.579   3.297  13.316 -0.0804  1.1695  0.3689
  152DOPC    C318174   2.822   3.583  13.536 -0.2146  0.7220 -0.2281
  152DOPC    HX18175   2.902   3.511  13.507 -0.7628 -1.1256  2.3984
  152DOPC    HY18176   2.863   3.655  13.609 -0.6290 -0.5529  1.3271
  152DOPC   O3118177   2.768   3.650  13.418 -0.3472 -0.1474 -0.1309
  152DOPC   C3118178   2.843   3.723  13.342  0.1024  0.2090  0.2470
  152DOPC   O3218179   2.956   3.757  13.372  0.4004 -0.5986 -0.0816
  152DOPC   C3218180   2.765   3.771  13.225  0.2623 -0.6752  0.8445
  152DOPC   H2X18181   2.655   3.762  13.236  0.2147  0.7382  1.7596
  152DOPC   H2Y18182   2.779   3.881  13.228  1.1092 -0.7464  0.0120
  152DOPC   C2318183   2.374   3.372  13.275 -0.4029  1.2463 -0.2420
  152DOPC   H3R18184   2.294   3.426  13.330 -0.2291  1.2408  0.0224
  152DOPC   H3S18185   2.320   3.283  13.235 -0.0198  1.4415 -1.2151
  152DOPC   C2418186   2.416   3.457  13.158 -0.5642 -0.3174  0.0474
  152DOPC   H4R18187   2.520   3.496  13.158 -0.1892 -1.2177 -1.5919
  152DOPC   H4S18188   2.359   3.552  13.146  0.3236  0.1160 -0.9287
  152DOPC   C2518189   2.394   3.375  13.031  0.1055 -0.1243  0.4757
  152DOPC   H5R18190   2.287   3.344  13.037  0.1211 -0.3305 -0.2231
  152DOPC   H5S18191   2.466   3.290  13.039  1.7584  0.9953 -1.5660
  152DOPC   C2618192   2.419   3.448  12.896  0.1027 -0.1450 -0.4057
  152DOPC   H6R18193   2.510   3.510  12.914 -0.8410  0.4156  3.1794
  152DOPC   H6S18194   2.346   3.530  12.882 -2.2132 -1.3739  3.0759
  152DOPC   C2718195   2.417   3.362  12.770  0.0378  0.3227  0.1744
  152DOPC   H7R18196   2.310   3.334  12.754  0.7021 -1.1618 -2.1686
  152DOPC   H7S18197   2.471   3.265  12.768 -0.3728  0.0728  0.8241
  152DOPC   C2818198   2.457   3.440  12.640 -0.0537  0.0400  0.2143
  152DOPC   H8R18199   2.441   3.372  12.554 -0.2722  1.1577 -0.6608
  152DOPC   H8S18200   2.562   3.476  12.639 -0.4730  1.3551  0.8651
  152DOPC   C2918201   2.362   3.562  12.619  0.1782 -0.4912 -0.2116
  152DOPC   H9R18202   2.299   3.604  12.698 -0.8272 -1.2946 -0.5629
  152DOPC  C21018203   2.340   3.614  12.500 -0.2028  0.4444  0.0129
  152DOPC  H10R18204   2.258   3.686  12.484 -1.2549 -0.7910 -0.3736
  152DOPC  C21118205   2.399   3.570  12.365 -0.0755 -0.5625  0.0792
  152DOPC  H11R18206   2.473   3.488  12.380 -0.7396 -1.2920 -0.4910
  152DOPC  H11S18207   2.453   3.662  12.333  1.0565 -0.6773  1.5460
  152DOPC  C21218208   2.297   3.541  12.260  0.2882  0.7947 -0.0140
  152DOPC  H12R18209   2.208   3.608  12.266 -1.0523 -0.7070 -1.9151
  152DOPC  H12S18210   2.259   3.438  12.276  1.1117  0.6876  1.3769
  152DOPC  C21318211   2.350   3.559  12.117 -0.0812 -0.2438  0.3943
  152DOPC  H13R18212   2.433   3.484  12.112 -0.2198 -0.3356 -0.7044
  152DOPC  H13S18213   2.401   3.656  12.105 -0.7605  0.1392  0.5618
  152DOPC  C21418214   2.252   3.511  12.006  0.1566  0.2956 -0.2306
  152DOPC  H14R18215   2.161   3.574  12.011  0.7668  1.2569 -0.9300
  152DOPC  H14S18216   2.216   3.410  12.035  1.8499 -0.0684  0.7146
  152DOPC  C21518217   2.312   3.496  11.869 -0.2034 -1.2234 -0.3268
  152DOPC  H15R18218   2.397   3.425  11.873  0.2188 -0.6872  0.5115
  152DOPC  H15S18219   2.359   3.591  11.835 -0.3531 -1.1990 -0.4645
  152DOPC  C21618220   2.204   3.448  11.769 -0.4033  0.6770 -0.2128
  152DOPC  H16R18221   2.120   3.520  11.756 -0.7930  0.0468 -1.3466
  152DOPC  H16S18222   2.163   3.348  11.794 -0.3702  0.6383 -0.3127
  152DOPC  C21718223   2.271   3.424  11.633  0.1513 -0.4819 -0.1579
  152DOPC  H17R18224   2.358   3.356  11.648 -0.7385 -1.2409  2.0100
  152DOPC  H17S18225   2.305   3.525  11.603  2.1735 -1.0840 -0.0820
  152DOPC  C21818226   2.171   3.371  11.523 -0.2577  0.0170  0.3832
  152DOPC  H18R18227   2.092   3.447  11.504 -0.7160 -0.8386 -1.3201
  152DOPC  H18S18228   2.132   3.269  11.543 -2.2675  0.6105 -0.3097
  152DOPC  H18T18229   2.238   3.382  11.435 -1.2211  2.7495 -0.1166
  152DOPC   C3318230   2.824   3.728  13.087  0.5457 -0.3955  0.1906
  152DOPC   H3X18231   2.830   3.617  13.086 -0.2483 -0.6057  3.7778
  152DOPC   H3Y18232   2.923   3.778  13.087  0.3653 -0.0420 -0.1330
  152DOPC   C3418233   2.735   3.790  12.983  0.6316  0.3530  0.1934
  152DOPC   H4X18234   2.741   3.900  13.000 -1.3455  1.0016 -2.6457
  152DOPC   H4Y18235   2.632   3.752  12.998  0.8772 -0.2289  0.4180
  152DOPC   C3518236   2.773   3.752  12.848 -0.5239  0.1094  0.0741
  152DOPC   H5X18237   2.776   3.641  12.848 -1.4086  0.0816  0.9123
  152DOPC   H5Y18238   2.879   3.781  12.829  0.5961 -3.6146 -0.2072
  152DOPC   C3618239   2.676   3.785  12.741  0.3093 -0.6162  0.2084
  152DOPC   H6X18240   2.580   3.730  12.757  1.1107 -2.2492 -0.3478
  152DOPC   H6Y18241   2.659   3.895  12.741  2.2895 -0.2639  1.3654
  152DOPC   C3718242   2.724   3.741  12.598  0.2529 -0.4198  0.6085
  152DOPC   H7X18243   2.790   3.652  12.602  2.0391  0.7115 -1.6724
  152DOPC   H7Y18244   2.637   3.714  12.534  0.4250  0.2279  0.0940
  152DOPC   C3818245   2.800   3.857  12.519  0.5972  0.4201  0.0080
  152DOPC   H8X18246   2.861   3.910  12.595 -1.1961  0.0164  1.8424
  152DOPC   H8Y18247   2.721   3.932  12.496  1.2489  1.5914  1.3895
  152DOPC   C3918248   2.882   3.801  12.403  0.6037 -0.3965  0.7156
  152DOPC   H9X18249   2.956   3.722  12.424 -0.8134 -2.0775 -0.3089
  152DOPC  C31018250   2.866   3.820  12.277 -0.2477 -0.0783  0.6200
  152DOPC  H10X18251   2.932   3.757  12.215 -0.1790 -1.0086  1.6094
  152DOPC  C31118252   2.770   3.907  12.210  0.2970 -0.4444  0.2008
  152DOPC  H11X18253   2.814   4.008  12.196  2.1978 -1.3452 -0.7361
  152DOPC  H11Y18254   2.684   3.916  12.279  1.0651  0.4588  1.0767
  152DOPC  C31218255   2.713   3.839  12.086  0.1213  0.6677 -0.5017
  152DOPC  H12X18256   2.646   3.755  12.115  0.6697  0.6636  0.8320
  152DOPC  H12Y18257   2.796   3.790  12.031 -0.1201 -1.9973  1.3603
  152DOPC  C31318258   2.622   3.925  11.996 -0.6335 -0.3045  0.4685
  152DOPC  H13X18259   2.529   3.953  12.050 -0.7868  1.9802 -0.8570
  152DOPC  H13Y18260   2.680   4.016  11.972  0.7950 -1.4206 -0.5230
  152DOPC  C31418261   2.576   3.851  11.864  0.4938  0.3588 -0.8829
  152DOPC  H14X18262   2.518   3.766  11.906  0.4530  0.6695 -0.3020
  152DOPC  H14Y18263   2.505   3.915  11.806  1.9637  2.1397 -0.8051
  152DOPC  C31518264   2.689   3.814  11.772 -0.0179  0.2459 -0.0850
  152DOPC  H15X18265   2.775   3.755  11.811 -0.7864 -0.7824  0.1170
  152DOPC  H15Y18266   2.744   3.902  11.732  1.7857 -1.0171 -0.5186
  152DOPC  C31618267   2.628   3.742  11.645 -0.2955  0.2048 -0.0156
  152DOPC  H16X18268   2.517   3.734  11.638 -0.2478  0.2235 -1.0372
  152DOPC  H16Y18269   2.652   3.804  11.556  1.3621 -1.5844 -0.8881
  152DOPC  C31718270   2.691   3.609  11.608  0.0868 -0.3207 -0.0038
  152DOPC  H17X18271   2.652   3.592  11.505  0.3920  4.2313 -1.0973
  152DOPC  H17Y18272   2.802   3.618  11.599 -0.0022  2.1025  0.5302
  152DOPC  C31818273   2.644   3.508  11.710 -0.0554  0.1706 -0.1136
  152DOPC  H18X18274   2.534   3.493  11.713 -0.1727  1.0422  0.0894
  152DOPC  H18Y18275   2.685   3.405  11.699 -0.2168  0.1383 -0.4285
  152DOPC  H18Z18276   2.689   3.533  11.808 -1.1556 -0.1809  0.4927
  153DOPC     N18277   3.976   0.844  13.762  0.0108  0.6826  1.2235
  153DOPC   C1218278   4.037   0.889  13.630  0.0702 -0.1455 -0.5050
  153DOPC  H12A18279   4.024   0.799  13.572  1.1829  0.2114 -1.3321
  153DOPC  H12B18280   4.139   0.922  13.643 -0.5589  1.3171  1.0661
  153DOPC   C1318281   4.048   0.725  13.819  0.0763 -0.4655  0.6823
  153DOPC  H13A18282   4.007   0.689  13.912  0.0967  0.9366  1.2601
  153DOPC  H13B18283   4.035   0.642  13.752 -4.8576  0.3137  0.3405
  153DOPC  H13C18284   4.150   0.748  13.847  0.7280 -2.5621  0.2200
  153DOPC   C1418285   3.831   0.808  13.734  0.4838 -0.3608 -0.1269
  153DOPC  H14A18286   3.766   0.886  13.697 -0.0845 -1.7609 -2.2574
  153DOPC  H14B18287   3.830   0.726  13.664 -0.3673 -0.1970 -0.3298
  153DOPC  H14C18288   3.801   0.780  13.835  1.5283 -1.7353 -0.1602
  153DOPC   C1518289   3.987   0.950  13.860  0.7173 -0.5733 -0.1495
  153DOPC  H15A18290   3.942   1.042  13.825  0.1314 -0.4888  0.7827
  153DOPC  H15B18291   4.088   0.973  13.891 -0.4126  2.1698  1.9462
  153DOPC  H15C18292   3.945   0.922  13.955  1.8419  1.4842  1.0268
  153DOPC   C1118293   3.966   0.996  13.546  0.4211 -0.4509  0.6773
  153DOPC  H11A18294   4.018   1.001  13.448  0.4144  1.8726  0.7422
  153DOPC  H11B18295   3.859   0.971  13.530  0.4575  0.8688 -2.3333
  153DOPC     P18296   3.880   1.236  13.574  0.0310 -0.2963 -0.6209
  153DOPC   O1318297   3.951   1.363  13.598 -0.0645 -0.0715  0.8776
  153DOPC   O1418298   3.762   1.217  13.654  0.1637 -0.6360 -0.3939
  153DOPC   O1218299   3.977   1.125  13.608 -0.3348 -0.3941  0.2853
  153DOPC   O1118300   3.846   1.213  13.421  0.6155  0.1258  0.3560
  153DOPC    C118301   3.711   1.190  13.372 -0.9869  0.2621 -0.2322
  153DOPC    HA18302   3.654   1.282  13.344  0.8157  1.0810 -1.4088
  153DOPC    HB18303   3.655   1.128  13.445 -1.1570 -0.3076 -0.8418
  153DOPC    C218304   3.711   1.104  13.241 -0.4891  0.1802 -0.3137
  153DOPC    HS18305   3.768   1.012  13.264  0.1217  0.7586  0.5658
  153DOPC   O2118306   3.775   1.176  13.139 -0.5725  0.6191  0.0327
  153DOPC   C2118307   3.840   1.112  13.045 -0.4184  1.3041  0.8006
  153DOPC   O2218308   3.863   0.990  13.043  0.7306  0.4490  0.1722
  153DOPC   C2218309   3.861   1.220  12.934 -0.2722 -0.2239 -0.0906
  153DOPC   H2R18310   3.925   1.294  12.988  1.0047 -1.7633  0.5832
  153DOPC   H2S18311   3.763   1.268  12.916 -0.7215 -1.0779  0.0634
  153DOPC    C318312   3.565   1.067  13.197  0.3150 -0.0152  0.6500
  153DOPC    HX18313   3.515   1.167  13.198  1.6301  0.6842 -0.4588
  153DOPC    HY18314   3.512   0.995  13.263 -0.7741 -2.7481 -2.8680
  153DOPC   O3118315   3.558   1.022  13.059 -0.0622 -0.0236 -0.0271
  153DOPC   C3118316   3.560   0.896  13.044 -0.4879  0.7102  0.7319
  153DOPC   O3218317   3.540   0.816  13.135 -0.3389 -0.1701  0.0331
  153DOPC   C3218318   3.594   0.844  12.899  0.1968 -0.6120  0.0012
  153DOPC   H2X18319   3.705   0.840  12.904  0.2236 -3.8293 -0.5250
  153DOPC   H2Y18320   3.546   0.744  12.897 -1.5483  0.1684  0.8849
  153DOPC   C2318321   3.919   1.169  12.802 -0.2681  0.1561 -0.0978
  153DOPC   H3R18322   3.926   1.059  12.789  1.1584  0.4066 -1.9257
  153DOPC   H3S18323   4.025   1.200  12.790 -0.7315  1.5011 -1.0968
  153DOPC   C2418324   3.844   1.226  12.682  0.5924 -0.6024  0.2901
  153DOPC   H4R18325   3.845   1.337  12.672 -0.2617 -0.5324  0.8624
  153DOPC   H4S18326   3.737   1.204  12.701 -0.0402  1.6506 -0.2776
  153DOPC   C2518327   3.893   1.171  12.548  0.7054  0.2084  0.2166
  153DOPC   H5R18328   3.856   1.068  12.527 -1.1319  0.5295  1.6539
  153DOPC   H5S18329   4.004   1.175  12.550  0.7270  0.7592 -1.0185
  153DOPC   C2618330   3.838   1.249  12.430  0.5756 -0.1272  0.4319
  153DOPC   H6R18331   3.865   1.357  12.436  1.5578 -0.2684 -0.9455
  153DOPC   H6S18332   3.727   1.247  12.418  0.7643  1.8028 -2.7455
  153DOPC   C2718333   3.888   1.194  12.297 -0.3069  0.3041  0.2024
  153DOPC   H7R18334   3.836   1.103  12.260  2.7399 -1.2132 -0.7075
  153DOPC   H7S18335   3.987   1.151  12.324 -0.6716  0.1913  1.3960
  153DOPC   C2818336   3.892   1.286  12.175  0.2615 -0.4138 -0.2112
  153DOPC   H8R18337   3.795   1.341  12.178 -0.3694 -1.5332  1.0158
  153DOPC   H8S18338   3.902   1.234  12.077 -0.9399  0.7667 -1.0053
  153DOPC   C2918339   4.002   1.384  12.191  0.6019 -0.0389 -0.3316
  153DOPC   H9R18340   4.019   1.413  12.296 -0.4636  0.0086 -0.1568
  153DOPC  C21018341   4.084   1.425  12.087  0.4887  0.0277 -1.1690
  153DOPC  H10R18342   4.164   1.496  12.111 -1.0138  1.1529  0.7711
  153DOPC  C21118343   4.081   1.381  11.942  0.2735 -0.3838 -0.6858
  153DOPC  H11R18344   4.089   1.472  11.878 -0.7075 -0.0644 -0.3722
  153DOPC  H11S18345   3.982   1.337  11.917 -0.1626  0.6215 -0.7829
  153DOPC  C21218346   4.191   1.275  11.921 -0.7753  0.8094 -0.2701
  153DOPC  H12R18347   4.166   1.201  11.999 -0.8336  1.5810  0.4643
  153DOPC  H12S18348   4.292   1.320  11.924 -1.0168  1.3870 -0.6189
  153DOPC  C21318349   4.197   1.216  11.776  0.4040 -0.4291  0.2400
  153DOPC  H13R18350   4.091   1.197  11.747  0.5023 -0.5331 -0.0498
  153DOPC  H13S18351   4.252   1.120  11.780 -1.9680 -1.8463  0.9383
  153DOPC  C21418352   4.262   1.309  11.679 -0.0539  0.0863  0.2553
  153DOPC  H14R18353   4.371   1.305  11.699 -0.2859 -1.6596  1.4001
  153DOPC  H14S18354   4.240   1.413  11.711 -2.0289 -0.0612 -0.4820
  153DOPC  C21518355   4.229   1.286  11.532  0.2362  0.2347  0.1750
  153DOPC  H15R18356   4.125   1.250  11.515 -0.1061  1.2119  0.0940
  153DOPC  H15S18357   4.300   1.213  11.488 -0.9680 -2.2232  2.0849
  153DOPC  C21618358   4.234   1.417  11.457  0.3461 -0.0319  0.1437
  153DOPC  H16R18359   4.336   1.460  11.469  1.0615 -1.4735 -0.3968
  153DOPC  H16S18360   4.153   1.486  11.488 -0.0269  0.0803 -1.0479
  153DOPC  C21718361   4.210   1.402  11.308 -0.4581 -0.1055  0.7122
  153DOPC  H17R18362   4.110   1.360  11.283  0.6224 -0.7797 -3.1060
  153DOPC  H17S18363   4.281   1.342  11.247  1.3000  1.6974  0.8813
  153DOPC  C21818364   4.205   1.532  11.224 -0.4145 -0.2487 -0.0198
  153DOPC  H18R18365   4.131   1.605  11.263 -0.5733  0.0029 -0.7704
  153DOPC  H18S18366   4.191   1.512  11.115  0.4824 -0.7698 -0.0438
  153DOPC  H18T18367   4.302   1.583  11.241 -0.2848 -0.0320 -1.2983
  153DOPC   C3318368   3.547   0.929  12.786 -1.2103  0.2282 -0.0054
  153DOPC   H3X18369   3.580   1.035  12.800  1.1108 -0.4832  0.2582
  153DOPC   H3Y18370   3.436   0.929  12.787 -1.2797  1.3232  2.8343
  153DOPC   C3418371   3.603   0.858  12.653  0.4195  0.0273 -0.4121
  153DOPC   H4X18372   3.550   0.763  12.630  0.9264 -0.9094  1.9178
  153DOPC   H4Y18373   3.711   0.840  12.675  0.2500 -0.5560 -0.0142
  153DOPC   C3518374   3.591   0.957  12.537 -0.0425 -0.4842  0.0684
  153DOPC   H5X18375   3.647   1.048  12.569  1.2786 -1.4652  0.6578
  153DOPC   H5Y18376   3.482   0.979  12.540 -0.8373 -3.8870  1.3956
  153DOPC   C3618377   3.630   0.904  12.401 -0.0631 -0.3831 -1.4849
  153DOPC   H6X18378   3.741   0.909  12.395 -0.0119 -0.0951 -0.4817
  153DOPC   H6Y18379   3.605   0.796  12.398  2.3231 -1.3226  2.7018
  153DOPC   C3718380   3.562   0.988  12.291 -0.2014 -0.0036  0.2941
  153DOPC   H7X18381   3.456   1.007  12.317 -0.0618  1.4839 -0.1372
  153DOPC   H7Y18382   3.598   1.093  12.290  1.5921 -0.4983 -3.0215
  153DOPC   C3818383   3.581   0.919  12.153 -0.2053  0.1659  0.1688
  153DOPC   H8X18384   3.536   0.818  12.158 -1.0938  0.5923  1.1002
  153DOPC   H8Y18385   3.691   0.915  12.139  0.0442 -0.6202  2.0903
  153DOPC   C3918386   3.507   0.999  12.052 -0.4784  0.3237  0.2142
  153DOPC   H9X18387   3.399   1.009  12.069 -0.6667  3.7002 -1.9754
  153DOPC  C31018388   3.564   1.047  11.936 -0.2715 -0.4770 -0.6787
  153DOPC  H10X18389   3.499   1.112  11.876  1.7599  1.0766 -1.3120
  153DOPC  C31118390   3.712   1.034  11.890  0.5467 -0.5688 -0.2165
  153DOPC  H11X18391   3.773   0.967  11.954 -1.1545 -0.9091  1.1309
  153DOPC  H11Y18392   3.765   1.131  11.876  1.1114 -1.1173 -2.0422
  153DOPC  C31218393   3.706   0.976  11.751 -0.2647 -0.1726 -0.8143
  153DOPC  H12X18394   3.809   0.981  11.711  0.1353 -1.4765 -0.0224
  153DOPC  H12Y18395   3.647   1.031  11.674 -2.6667 -0.8835  0.4084
  153DOPC  C31318396   3.680   0.822  11.755 -0.6190 -0.5285  0.6251
  153DOPC  H13X18397   3.747   0.779  11.834 -0.4793 -0.9916  0.2607
  153DOPC  H13Y18398   3.576   0.801  11.787 -0.9431  1.7607  1.2288
  153DOPC  C31418399   3.720   0.751  11.621  0.7294 -0.1302 -0.5312
  153DOPC  H14X18400   3.821   0.769  11.578  0.8914 -2.0113 -1.0228
  153DOPC  H14Y18401   3.720   0.642  11.644 -1.4659  0.4929  3.1992
  153DOPC  C31518402   3.620   0.773  11.502 -0.3566  0.1864 -1.1418
  153DOPC  H15X18403   3.616   0.882  11.480  0.0820  0.5809  0.5994
  153DOPC  H15Y18404   3.522   0.734  11.537  1.4399 -3.5538  0.3304
  153DOPC  C31618405   3.655   0.698  11.373  0.2104 -0.7442  0.2687
  153DOPC  H16X18406   3.742   0.632  11.392  1.1130  0.5792  0.9419
  153DOPC  H16Y18407   3.565   0.638  11.348 -0.3335 -0.3599  1.2399
  153DOPC  C31718408   3.686   0.797  11.253  0.4118  0.4591 -0.1961
  153DOPC  H17X18409   3.597   0.859  11.231 -0.8358 -1.1776  0.0440
  153DOPC  H17Y18410   3.775   0.854  11.287  0.5222 -0.2015  0.6612
  153DOPC  C31818411   3.725   0.722  11.122 -0.4563 -0.8179  0.4829
  153DOPC  H18X18412   3.750   0.779  11.029 -0.6275 -1.9553 -0.2734
  153DOPC  H18Y18413   3.819   0.666  11.141  0.3494  0.1094 -0.5706
  153DOPC  H18Z18414   3.640   0.664  11.082 -1.1062  1.2387 -1.3914
  154DOPC     N18415   5.424   5.683  13.899  0.2247 -0.3506  0.0026
  154DOPC   C1218416   5.417   5.750  13.760 -0.2586  0.1454  0.4881
  154DOPC  H12A18417   5.498   5.819  13.744 -0.0035  0.3135  2.3323
  154DOPC  H12B18418   5.330   5.813  13.750  2.1340  3.8851  1.2482
  154DOPC   C1318419   5.414   5.789  14.009  0.5639  0.2637  0.1480
  154DOPC  H13A18420   5.390   5.738  14.101  0.9232  2.9552  1.8627
  154DOPC  H13B18421   5.497   5.851  14.039 -0.7370  1.5260  1.2779
  154DOPC  H13C18422   5.328   5.852  13.993  1.0252  1.8365  3.1654
  154DOPC   C1418423   5.549   5.610  13.912  1.1262  1.4104  0.1717
  154DOPC  H14A18424   5.560   5.533  13.837  1.1720  0.3345  1.2497
  154DOPC  H14B18425   5.632   5.676  13.894  1.8966  0.7947  1.3451
  154DOPC  H14C18426   5.552   5.561  14.009  2.3025 -1.4783 -1.2118
  154DOPC   C1518427   5.305   5.595  13.926  0.3677  0.2391  0.7279
  154DOPC  H15A18428   5.325   5.522  14.003  0.3499 -0.9544 -0.3522
  154DOPC  H15B18429   5.300   5.534  13.837  2.5329  1.8466 -0.5913
  154DOPC  H15C18430   5.213   5.649  13.942 -0.4100 -0.6821 -0.4448
  154DOPC   C1118431   5.425   5.655  13.634 -0.7071 -0.2426 -0.0138
  154DOPC  H11A18432   5.427   5.725  13.548 -0.8690  0.9337  0.9188
  154DOPC  H11B18433   5.519   5.596  13.645 -0.3025  0.7334  2.6327
  154DOPC     P18434   5.295   5.431  13.557 -0.2499  0.0569  0.1127
  154DOPC   O1318435   5.162   5.369  13.580 -0.4594 -0.3183 -0.3484
  154DOPC   O1418436   5.413   5.359  13.612 -0.0204  0.0917  0.1733
  154DOPC   O1218437   5.301   5.579  13.623 -0.1430 -0.4294  0.1868
  154DOPC   O1118438   5.328   5.465  13.408 -0.3060  0.5168  0.8425
  154DOPC    C118439   5.256   5.548  13.328  0.3466 -0.2492  0.6223
  154DOPC    HA18440   5.249   5.650  13.371  2.6384 -0.1621  0.9045
  154DOPC    HB18441   5.151   5.511  13.320  0.3818 -0.5004  1.2422
  154DOPC    C218442   5.308   5.563  13.183 -0.2012 -0.2027  0.3638
  154DOPC    HS18443   5.248   5.647  13.144 -0.8462 -1.8272 -2.3767
  154DOPC   O2118444   5.286   5.439  13.113 -0.0993 -0.3929 -0.0859
  154DOPC   C2118445   5.165   5.429  13.072 -0.5221  1.1447  0.1901
  154DOPC   O2218446   5.071   5.500  13.099  0.0222  0.1152 -0.0275
  154DOPC   C2218447   5.145   5.295  12.995 -0.6373  0.2874  0.4949
  154DOPC   H2R18448   5.065   5.236  13.043  0.3757 -1.0155  0.6191
  154DOPC   H2S18449   5.234   5.228  12.996 -0.4330  0.1956 -4.0469
  154DOPC    C318450   5.457   5.608  13.182  0.0940 -0.5046  0.4176
  154DOPC    HX18451   5.519   5.562  13.262  1.4767  2.6308  1.3371
  154DOPC    HY18452   5.466   5.718  13.195 -0.1610 -0.0520 -2.4857
  154DOPC   O3118453   5.512   5.587  13.049 -0.3100 -0.4161  0.3811
  154DOPC   C3118454   5.548   5.465  13.021 -0.0768 -0.4279 -0.0192
  154DOPC   O3218455   5.577   5.372  13.097  0.7192  0.2343 -0.5821
  154DOPC   C3218456   5.533   5.451  12.871 -0.4730 -0.0618 -0.2813
  154DOPC   H2X18457   5.425   5.470  12.858  0.1026  2.8209 -1.6307
  154DOPC   H2Y18458   5.587   5.532  12.818  0.1748  0.2997  0.8906
  154DOPC   C2318459   5.120   5.339  12.851 -0.2899 -0.6814  0.2370
  154DOPC   H3R18460   5.221   5.371  12.817  0.1185  0.1534  2.0909
  154DOPC   H3S18461   5.048   5.420  12.826  0.3349  0.1085  0.9338
  154DOPC   C2418462   5.083   5.235  12.752 -0.9130  0.0466 -0.3643
  154DOPC   H4R18463   5.008   5.166  12.795  1.2225 -0.6605  2.5210
  154DOPC   H4S18464   5.176   5.175  12.741  0.0420  1.1933  1.1026
  154DOPC   C2518465   5.061   5.293  12.611 -0.2137  0.2942  0.9290
  154DOPC   H5R18466   5.131   5.378  12.600  1.1271 -0.6972  1.4890
  154DOPC   H5S18467   4.955   5.324  12.597 -1.0964 -1.9214  2.1241
  154DOPC   C2618468   5.095   5.200  12.492  0.0895 -0.8444 -0.1241
  154DOPC   H6R18469   5.026   5.113  12.490 -0.2914 -0.5390 -1.6395
  154DOPC   H6S18470   5.189   5.145  12.512  0.6870  0.3336  0.4200
  154DOPC   C2718471   5.092   5.267  12.350  0.0307  0.3029 -0.2255
  154DOPC   H7R18472   5.165   5.351  12.346  1.2269 -0.5855  1.5857
  154DOPC   H7S18473   4.995   5.319  12.336  1.4334  3.0105 -0.5434
  154DOPC   C2818474   5.121   5.178  12.233  0.0830  0.5432 -0.3086
  154DOPC   H8R18475   5.082   5.226  12.141  0.2783  1.3552  0.0276
  154DOPC   H8S18476   5.058   5.088  12.250  0.2181  0.3313 -0.8877
  154DOPC   C2918477   5.269   5.156  12.231  0.0819  0.2168  0.5689
  154DOPC   H9R18478   5.306   5.090  12.311 -1.5774 -1.5153 -0.0257
  154DOPC  C21018479   5.351   5.202  12.130 -0.3933  0.5832  0.1987
  154DOPC  H10R18480   5.460   5.185  12.132 -0.4574 -0.2369 -1.6547
  154DOPC  C21118481   5.321   5.290  12.013  0.0797  0.1291  0.5576
  154DOPC  H11R18482   5.396   5.372  12.010  0.4299 -0.1951  0.4792
  154DOPC  H11S18483   5.223   5.343  12.015 -0.2316 -0.4472  0.6645
  154DOPC  C21218484   5.317   5.217  11.874 -0.5935 -0.1421 -0.2884
  154DOPC  H12R18485   5.423   5.184  11.865 -0.2772  1.2647 -2.4879
  154DOPC  H12S18486   5.303   5.282  11.785 -0.2070  1.4592  0.7841
  154DOPC  C21318487   5.213   5.103  11.869 -0.3441  0.0385  0.0277
  154DOPC  H13R18488   5.116   5.158  11.878 -0.8553 -0.6406 -1.1945
  154DOPC  H13S18489   5.229   5.031  11.952 -1.6636 -0.4193 -0.0870
  154DOPC  C21418490   5.219   5.036  11.736 -0.1581  0.5503  0.0039
  154DOPC  H14R18491   5.204   4.927  11.723  0.9575  0.4514 -0.5916
  154DOPC  H14S18492   5.327   5.048  11.711  0.2964 -2.8707 -0.1356
  154DOPC  C21518493   5.123   5.107  11.636 -0.0763  0.0808 -0.3603
  154DOPC  H15R18494   5.148   5.215  11.640 -0.3324  0.1374 -0.3014
  154DOPC  H15S18495   5.019   5.089  11.669 -0.4736  0.6914 -1.2506
  154DOPC  C21618496   5.141   5.060  11.491 -0.5252 -0.3039 -1.1395
  154DOPC  H16R18497   5.251   5.075  11.479 -0.3119 -0.4017  0.4887
  154DOPC  H16S18498   5.091   5.136  11.428  1.8363  1.3661 -1.1540
  154DOPC  C21718499   5.099   4.918  11.461 -0.5764  0.1366 -0.1657
  154DOPC  H17R18500   4.991   4.915  11.488 -0.7384 -0.5139 -0.8461
  154DOPC  H17S18501   5.153   4.851  11.533 -2.0608 -1.3171 -0.3399
  154DOPC  C21818502   5.125   4.876  11.316 -0.5672 -0.5338  0.4717
  154DOPC  H18R18503   5.069   4.782  11.292 -0.7164 -0.0438 -1.2765
  154DOPC  H18S18504   5.235   4.867  11.305 -0.5147  0.7660 -0.2063
  154DOPC  H18T18505   5.098   4.955  11.243 -2.0211 -1.9309 -0.5912
  154DOPC   C3318506   5.562   5.315  12.812  0.2807 -0.0375 -0.0503
  154DOPC   H3X18507   5.508   5.235  12.868  0.2515  0.0228  0.0075
  154DOPC   H3Y18508   5.672   5.305  12.827  0.0308  0.1787  2.3179
  154DOPC   C3418509   5.516   5.304  12.668 -0.5936 -0.5073 -0.1253
  154DOPC   H4X18510   5.414   5.343  12.652 -0.6003 -0.7027 -0.5718
  154DOPC   H4Y18511   5.524   5.196  12.642  1.9270 -0.5176  0.3900
  154DOPC   C3518512   5.606   5.394  12.583  0.4300 -0.0582  0.0113
  154DOPC   H5X18513   5.712   5.382  12.613  1.3545 -2.2460 -3.5272
  154DOPC   H5Y18514   5.578   5.500  12.599 -0.1686  0.1179 -1.9425
  154DOPC   C3618515   5.585   5.354  12.440 -0.1974  0.0974  0.1281
  154DOPC   H6X18516   5.606   5.245  12.441  2.3850  0.5133  0.0694
  154DOPC   H6Y18517   5.482   5.368  12.402  0.8417 -0.1694 -3.1428
  154DOPC   C3718518   5.691   5.419  12.348 -0.0569 -0.1497  0.4356
  154DOPC   H7X18519   5.658   5.522  12.319  0.5402  0.2022  0.9883
  154DOPC   H7Y18520   5.785   5.438  12.405 -0.2886  0.1575  0.7188
  154DOPC   C3818521   5.721   5.334  12.226  0.7677  0.8011  0.6858
  154DOPC   H8X18522   5.789   5.402  12.170  0.5827  0.0029 -0.5579
  154DOPC   H8Y18523   5.635   5.328  12.155  1.1103  1.2170  0.2290
  154DOPC   C3918524   5.775   5.197  12.243  0.5516  0.1293  0.3410
  154DOPC   H9X18525   5.752   5.141  12.335  3.2728  0.1043  1.0905
  154DOPC  C31018526   5.893   5.152  12.196 -0.2814 -0.1543  0.8057
  154DOPC  H10X18527   5.916   5.048  12.221  0.1750 -0.5251 -0.9780
  154DOPC  C31118528   5.996   5.217  12.101 -0.4438 -0.3660 -0.2493
  154DOPC  H11X18529   6.094   5.171  12.126 -0.6469 -0.7839 -0.2005
  154DOPC  H11Y18530   6.009   5.326  12.114 -0.2838 -0.6749  2.9916
  154DOPC  C31218531   5.969   5.178  11.954  0.0666 -0.1790  0.2642
  154DOPC  H12X18532   5.864   5.206  11.934  0.2110  0.1654 -0.0084
  154DOPC  H12Y18533   5.994   5.069  11.953  2.0187  0.2062  1.3905
  154DOPC  C31318534   6.060   5.273  11.868 -0.1805  0.1511 -0.3702
  154DOPC  H13X18535   6.053   5.377  11.906 -0.1203  0.3490 -0.8923
  154DOPC  H13Y18536   6.164   5.238  11.882 -0.6292 -1.3210 -0.5758
  154DOPC  C31418537   6.023   5.268  11.722 -0.4137 -0.5550 -0.6279
  154DOPC  H14X18538   6.031   5.163  11.685 -0.9858 -0.1805 -1.8520
  154DOPC  H14Y18539   5.929   5.317  11.689 -0.3120  0.8385  1.0615
  154DOPC  C31518540   6.141   5.347  11.652  0.5991 -0.1738 -0.2844
  154DOPC  H15X18541   6.238   5.296  11.673 -0.6755 -2.6250 -0.0014
  154DOPC  H15Y18542   6.146   5.451  11.690  0.6088  0.0603 -0.9099
  154DOPC  C31618543   6.132   5.332  11.497 -0.4406  0.3554  0.1471
  154DOPC  H16X18544   6.119   5.224  11.476 -2.9938  0.6309  0.0296
  154DOPC  H16Y18545   6.040   5.379  11.457 -1.2835 -0.5469  0.9825
  154DOPC  C31718546   6.270   5.367  11.432  0.1425 -0.3496 -0.2843
  154DOPC  H17X18547   6.258   5.374  11.322  1.5547 -0.4570 -0.4563
  154DOPC  H17Y18548   6.309   5.462  11.473  0.6016 -0.6997  0.1009
  154DOPC  C31818549   6.373   5.255  11.452  0.0786  0.5129  0.4364
  154DOPC  H18X18550   6.326   5.156  11.435  0.8030 -0.3229  2.8457
  154DOPC  H18Y18551   6.453   5.258  11.375  0.8023  0.0989  1.1613
  154DOPC  H18Z18552   6.406   5.247  11.558 -1.4043 -0.6818  0.8386
  155DOPC     N18553   6.692   3.754  14.037  0.0940 -0.0559  0.4893
  155DOPC   C1218554   6.804   3.856  14.018  0.1651  0.4673 -0.0379
  155DOPC  H12A18555   6.776   3.952  14.060  2.5190  1.1940  0.0453
  155DOPC  H12B18556   6.823   3.891  13.917  1.2838 -0.0973 -0.0442
  155DOPC   C1318557   6.719   3.627  13.967 -0.4464 -0.4265 -0.0965
  155DOPC  H13A18558   6.636   3.559  13.983 -1.2061  0.7549  1.1304
  155DOPC  H13B18559   6.737   3.650  13.863 -0.8911  0.6366  0.0478
  155DOPC  H13C18560   6.808   3.585  14.011  0.8041  0.9752 -1.2187
  155DOPC   C1418561   6.567   3.808  13.973 -0.1240 -0.0417  0.4494
  155DOPC  H14A18562   6.474   3.756  13.993  0.0457 -0.1020  1.1102
  155DOPC  H14B18563   6.547   3.906  14.014 -0.5174 -0.5091  1.3961
  155DOPC  H14C18564   6.581   3.833  13.869  0.4250  0.3599  0.6135
  155DOPC   C1518565   6.657   3.726  14.183  0.9071  0.5655 -0.0591
  155DOPC  H15A18566   6.735   3.675  14.238  1.0893  0.1481 -0.6975
  155DOPC  H15B18567   6.574   3.658  14.188  0.4715  1.0986  0.0155
  155DOPC  H15C18568   6.615   3.817  14.223 -3.3490 -0.0646 -2.4993
  155DOPC   C1118569   6.938   3.832  14.094 -0.1291 -0.3368  0.5778
  155DOPC  H11A18570   7.000   3.924  14.093  0.4769 -0.7332 -0.7293
  155DOPC  H11B18571   6.911   3.818  14.201  0.5466 -1.2549  0.6471
  155DOPC     P18572   7.162   3.696  14.106 -0.3381  0.4734 -0.1556
  155DOPC   O1318573   7.211   3.566  14.053 -0.4397  0.4798  0.5000
  155DOPC   O1418574   7.167   3.707  14.254 -0.2824  0.3899  0.3404
  155DOPC   O1218575   7.013   3.717  14.051 -0.1747  0.0363  0.1193
  155DOPC   O1118576   7.244   3.806  14.041  0.0802  0.3821  0.5712
  155DOPC    C118577   7.261   3.814  13.899  0.4398 -0.0636 -0.3892
  155DOPC    HA18578   7.290   3.714  13.860  0.8874 -0.2142  0.3031
  155DOPC    HB18579   7.353   3.872  13.873  1.0947 -1.0884 -0.4159
  155DOPC    C218580   7.139   3.880  13.826  0.9097  0.7323  0.0410
  155DOPC    HS18581   7.042   3.860  13.877 -0.8431 -0.5586 -3.4620
  155DOPC   O2118582   7.130   3.817  13.695  0.7641  0.1176 -0.5092
  155DOPC   C2118583   7.005   3.815  13.646 -0.3593  0.0939 -0.2273
  155DOPC   O2218584   6.906   3.835  13.713  0.5222 -0.1370  0.6432
  155DOPC   C2218585   7.015   3.777  13.500  0.6913  0.3595  0.1962
  155DOPC   H2R18586   7.069   3.860  13.451 -0.8792  2.3785  1.7216
  155DOPC   H2S18587   6.907   3.774  13.473  0.6291 -0.8595  0.5060
  155DOPC    C318588   7.157   4.029  13.802  1.0043 -0.5550 -0.1936
  155DOPC    HX18589   7.176   4.074  13.901  1.2663  1.5253 -1.1350
  155DOPC    HY18590   7.062   4.079  13.772 -1.0005 -3.1132  1.4332
  155DOPC   O3118591   7.267   4.068  13.717  0.1643  0.5527  0.3635
  155DOPC   C3118592   7.310   4.189  13.728  0.1359  0.1989 -0.3205
  155DOPC   O3218593   7.264   4.275  13.805 -0.4554  0.0643 -0.2473
  155DOPC   C3218594   7.431   4.202  13.637  0.2816 -0.7461  0.3013
  155DOPC   H2X18595   7.502   4.119  13.658  0.6172 -0.4973  0.1638
  155DOPC   H2Y18596   7.397   4.210  13.531  1.0639  3.2332  0.1859
  155DOPC   C2318597   7.077   3.636  13.491  0.6844 -0.2340 -0.7464
  155DOPC   H3R18598   6.999   3.556  13.488 -0.0725  0.5196 -1.9679
  155DOPC   H3S18599   7.143   3.603  13.574  0.7451 -1.2935 -1.1890
  155DOPC   C2418600   7.162   3.622  13.363  0.3813 -0.3295 -0.0274
  155DOPC   H4R18601   7.215   3.524  13.367 -0.4175 -0.7378  2.1240
  155DOPC   H4S18602   7.242   3.698  13.374 -0.3790  0.5468 -0.4216
  155DOPC   C2518603   7.087   3.645  13.229 -0.6328 -0.5653 -0.5385
  155DOPC   H5R18604   7.068   3.754  13.223  0.8963 -0.1712  1.1077
  155DOPC   H5S18605   6.998   3.579  13.231 -1.4903  0.5976  0.8772
  155DOPC   C2618606   7.177   3.603  13.108  0.3212 -0.8570 -0.5880
  155DOPC   H6R18607   7.183   3.492  13.103 -1.1535 -0.9189 -2.9587
  155DOPC   H6S18608   7.278   3.644  13.125 -1.0191  2.2279  0.8492
  155DOPC   C2718609   7.126   3.659  12.971 -0.6280 -0.6675 -0.2237
  155DOPC   H7R18610   7.109   3.768  12.964 -3.5898 -1.0121  0.4822
  155DOPC   H7S18611   7.026   3.615  12.951 -0.7210 -0.4946 -0.1363
  155DOPC   C2818612   7.213   3.610  12.853  0.1981  0.3864 -0.3463
  155DOPC   H8R18613   7.203   3.499  12.847 -2.4722  0.6262 -3.8168
  155DOPC   H8S18614   7.321   3.631  12.868  0.1308 -0.8279  2.2258
  155DOPC   C2918615   7.168   3.662  12.720  0.1120  0.1626  0.0313
  155DOPC   H9R18616   7.083   3.732  12.716  1.4757  2.1164  2.5135
  155DOPC  C21018617   7.222   3.625  12.600  0.7253  0.0358 -0.1681
  155DOPC  H10R18618   7.176   3.671  12.511  1.9338 -0.6333 -1.1688
  155DOPC  C21118619   7.331   3.528  12.583  0.3717  0.0334  0.0926
  155DOPC  H11R18620   7.295   3.424  12.575  1.9080 -0.3874 -2.9339
  155DOPC  H11S18621   7.397   3.526  12.673  0.6358  1.2561 -0.0543
  155DOPC  C21218622   7.423   3.559  12.470  0.1081 -0.2818  0.8125
  155DOPC  H12R18623   7.478   3.654  12.484  1.4061 -0.9114  0.1743
  155DOPC  H12S18624   7.366   3.571  12.375  1.2865 -0.8894 -0.0036
  155DOPC  C21318625   7.531   3.452  12.435 -0.5711  0.1313 -0.3834
  155DOPC  H13R18626   7.487   3.352  12.413 -0.9233  0.5761 -1.8135
  155DOPC  H13S18627   7.607   3.423  12.511  0.3317 -0.0996 -1.3531
  155DOPC  C21418628   7.617   3.499  12.316 -0.1088 -0.4053  0.1643
  155DOPC  H14R18629   7.715   3.448  12.324  0.6550  1.2141  1.6877
  155DOPC  H14S18630   7.635   3.607  12.331 -0.0341 -0.4108  0.1128
  155DOPC  C21518631   7.539   3.478  12.179 -0.7754 -0.4010  0.3156
  155DOPC  H15R18632   7.434   3.511  12.196 -0.6411  0.8495 -1.0791
  155DOPC  H15S18633   7.543   3.369  12.157 -2.0978 -0.2439 -0.8488
  155DOPC  C21618634   7.600   3.571  12.079  0.7721  0.4213  0.7786
  155DOPC  H16R18635   7.710   3.561  12.078  0.8141  0.6958  1.7257
  155DOPC  H16S18636   7.578   3.676  12.109 -0.5867  0.6703 -0.9310
  155DOPC  C21718637   7.539   3.561  11.941  0.2498  0.1764  0.4879
  155DOPC  H17R18638   7.573   3.653  11.890  1.7291  0.0124  1.1058
  155DOPC  H17S18639   7.430   3.573  11.959  0.0762  1.6187 -1.2860
  155DOPC  C21818640   7.583   3.435  11.859 -0.2760 -0.0997 -0.0767
  155DOPC  H18R18641   7.528   3.426  11.763 -1.7901  1.1733  0.6170
  155DOPC  H18S18642   7.555   3.349  11.924 -0.6920  0.3889  0.4011
  155DOPC  H18T18643   7.692   3.430  11.839 -0.7365  0.0234 -3.0577
  155DOPC   C3318644   7.505   4.335  13.672 -0.5788 -0.0791 -0.3275
  155DOPC   H3X18645   7.520   4.346  13.781 -0.9252  0.3182 -0.3170
  155DOPC   H3Y18646   7.459   4.426  13.626  0.0592 -1.5286 -4.2523
  155DOPC   C3418647   7.653   4.336  13.611  0.3385  0.2575 -0.3586
  155DOPC   H4X18648   7.696   4.238  13.640  0.4569  0.0852 -1.0856
  155DOPC   H4Y18649   7.725   4.410  13.652 -0.8124  1.9070 -1.1961
  155DOPC   C3518650   7.648   4.360  13.460 -0.3208  0.0734 -0.3920
  155DOPC   H5X18651   7.615   4.462  13.433  1.9311  0.9898  0.1721
  155DOPC   H5Y18652   7.580   4.284  13.415 -0.7183 -0.2040  0.6313
  155DOPC   C3618653   7.780   4.349  13.377  0.5896 -0.0160  0.6376
  155DOPC   H6X18654   7.750   4.383  13.275 -1.9461  0.2033  1.3671
  155DOPC   H6Y18655   7.854   4.421  13.417  0.2219  0.3971  0.5916
  155DOPC   C3718656   7.850   4.213  13.374 -0.0606  0.3455 -0.0825
  155DOPC   H7X18657   7.898   4.192  13.472 -0.0359 -1.1537 -0.3833
  155DOPC   H7Y18658   7.774   4.133  13.358  1.7094 -1.4529  0.0885
  155DOPC   C3818659   7.961   4.197  13.272 -0.1051 -0.0060  0.7550
  155DOPC   H8X18660   8.047   4.252  13.315  0.0670  0.2431  0.1031
  155DOPC   H8Y18661   7.921   4.232  13.174 -2.6677 -3.4738  0.3814
  155DOPC   C3918662   8.019   4.064  13.263 -0.1976  0.1672 -0.3656
  155DOPC   H9X18663   7.989   3.994  13.342  0.1076 -1.2225 -1.4337
  155DOPC  C31018664   8.112   4.021  13.176  0.5066  0.7742  0.0644
  155DOPC  H10X18665   8.160   3.922  13.183  1.6449  1.3461  0.5840
  155DOPC  C31118666   8.155   4.100  13.057 -0.1691  0.1983 -1.0593
  155DOPC  H11X18667   8.218   4.188  13.078 -0.7007  0.4263 -0.3771
  155DOPC  H11Y18668   8.065   4.141  13.005  0.1373  0.7738 -1.1363
  155DOPC  C31218669   8.220   4.000  12.964  0.1938  0.0914 -0.0585
  155DOPC  H12X18670   8.149   3.916  12.950  0.2889  0.2674 -1.8713
  155DOPC  H12Y18671   8.318   3.963  13.000  0.0222 -1.8435 -1.4181
  155DOPC  C31318672   8.244   4.063  12.829  0.3795  0.3918 -0.0266
  155DOPC  H13X18673   8.142   4.077  12.787  0.2012 -2.3379 -0.6662
  155DOPC  H13Y18674   8.296   4.161  12.836  1.9166 -0.3825 -0.3314
  155DOPC  C31418675   8.299   3.963  12.731  0.0287 -0.1330  0.8531
  155DOPC  H14X18676   8.403   3.928  12.747 -0.1411 -0.3867  1.4470
  155DOPC  H14Y18677   8.236   3.872  12.736 -0.8222  0.4985  2.0795
  155DOPC  C31518678   8.286   4.016  12.584 -0.5375  0.0512 -0.7235
  155DOPC  H15X18679   8.320   4.121  12.589  1.1039 -0.4232 -1.0142
  155DOPC  H15Y18680   8.183   3.994  12.550 -0.5687  0.2074 -0.7261
  155DOPC  C31618681   8.396   3.944  12.490  0.5465 -0.0003  0.6210
  155DOPC  H16X18682   8.497   3.989  12.500  1.1597 -1.0831 -0.3631
  155DOPC  H16Y18683   8.416   3.839  12.521 -1.7655 -0.1009  2.0086
  155DOPC  C31718684   8.364   3.959  12.349  0.1049  0.8877  0.6766
  155DOPC  H17X18685   8.435   3.904  12.283  1.0701 -0.2385  2.5537
  155DOPC  H17Y18686   8.259   3.924  12.337  0.4522  0.2995 -0.9858
  155DOPC  C31818687   8.369   4.106  12.311  0.4428 -0.8800 -0.5001
  155DOPC  H18X18688   8.290   4.164  12.362  1.2309 -0.6565  0.5164
  155DOPC  H18Y18689   8.460   4.155  12.353  0.7754 -1.9677  0.0815
  155DOPC  H18Z18690   8.362   4.117  12.201 -0.5890 -1.9640 -0.5618
  156DOPC     N18691   4.662   6.126  13.389 -0.2725  0.4854  0.0517
  156DOPC   C1218692   4.813   6.141  13.365 -0.6556  0.2684  0.4219
  156DOPC  H12A18693   4.833   6.085  13.275 -2.2823 -0.7442  0.6444
  156DOPC  H12B18694   4.861   6.089  13.447  1.5330  1.3001 -0.1482
  156DOPC   C1318695   4.604   6.175  13.262  0.2678  0.3099 -0.3663
  156DOPC  H13A18696   4.628   6.118  13.173  0.6173  2.2927 -1.6018
  156DOPC  H13B18697   4.497   6.179  13.274  0.1712  1.5046 -1.4293
  156DOPC  H13C18698   4.648   6.271  13.241 -1.1785  0.7725 -1.3794
  156DOPC   C1418699   4.616   6.210  13.504  0.1008 -0.4289  0.4746
  156DOPC  H14A18700   4.651   6.307  13.470  2.9404 -1.6176 -0.3304
  156DOPC  H14B18701   4.510   6.206  13.523 -0.0201  0.5318  0.0815
  156DOPC  H14C18702   4.662   6.197  13.600  2.7178  0.4761 -0.5734
  156DOPC   C1518703   4.638   5.980  13.421 -0.1377  0.3962 -0.5910
  156DOPC  H15A18704   4.644   5.931  13.325  0.0211  0.3948 -0.5812
  156DOPC  H15B18705   4.539   5.964  13.461 -0.5083  0.9817 -1.2382
  156DOPC  H15C18706   4.712   5.936  13.486  1.0993  1.4083 -1.2658
  156DOPC   C1118707   4.874   6.283  13.353 -0.3826  0.0346  0.4467
  156DOPC  H11A18708   4.836   6.352  13.432 -1.2585 -0.1402  0.1915
  156DOPC  H11B18709   4.984   6.274  13.363 -0.2894 -1.5614 -1.4874
  156DOPC     P18710   4.804   6.480  13.205  0.4493  0.2296  0.1027
  156DOPC   O1318711   4.892   6.586  13.256  0.4302  0.2307 -0.4848
  156DOPC   O1418712   4.667   6.474  13.263 -0.1683 -0.0062 -1.2136
  156DOPC   O1218713   4.865   6.334  13.221  0.3404  0.0273  0.1264
  156DOPC   O1118714   4.789   6.489  13.046  0.2542 -0.3391  0.8410
  156DOPC    C118715   4.716   6.381  12.983  0.2296  0.3528 -0.3119
  156DOPC    HA18716   4.613   6.383  13.024 -0.4773  0.7212 -2.0300
  156DOPC    HB18717   4.758   6.281  13.006 -0.1309  0.9267  3.4520
  156DOPC    C218718   4.713   6.398  12.825 -0.3964 -0.3418 -0.3223
  156DOPC    HS18719   4.635   6.329  12.785 -1.6497 -0.3055  1.8887
  156DOPC   O2118720   4.851   6.368  12.772 -0.0733  0.1621  0.3515
  156DOPC   C2118721   4.868   6.239  12.749 -0.1956  0.0180  0.2368
  156DOPC   O2218722   4.806   6.144  12.787  0.8673 -0.1294 -0.0753
  156DOPC   C2218723   4.998   6.207  12.676  0.2152  0.7937 -0.0698
  156DOPC   H2R18724   5.068   6.160  12.747  1.0269  0.3937 -1.1207
  156DOPC   H2S18725   5.043   6.299  12.632  0.0154  1.4081  0.9537
  156DOPC    C318726   4.672   6.539  12.792  0.3338 -0.7335  0.8149
  156DOPC    HX18727   4.760   6.606  12.807  0.2480 -0.7821  1.5373
  156DOPC    HY18728   4.595   6.587  12.856 -0.1174  1.9336 -1.5089
  156DOPC   O3118729   4.642   6.545  12.650  0.4158 -0.3439  0.5371
  156DOPC   C3118730   4.508   6.547  12.613 -0.0348  0.2413 -0.0862
  156DOPC   O3218731   4.412   6.525  12.685  0.8638 -0.2819  0.0504
  156DOPC   C3218732   4.484   6.591  12.475  0.2418  0.4683 -0.1576
  156DOPC   H2X18733   4.446   6.695  12.467 -1.5845 -0.2312 -1.0708
  156DOPC   H2Y18734   4.578   6.575  12.419  0.3499 -0.0097  0.1501
  156DOPC   C2318735   4.981   6.115  12.545  0.4030  0.2415 -0.4300
  156DOPC   H3R18736   4.914   6.029  12.565  0.2103  0.3411 -0.6500
  156DOPC   H3S18737   5.082   6.073  12.523  0.8733  1.6738 -1.2044
  156DOPC   C2418738   4.931   6.201  12.426  0.4186  0.1817 -0.9150
  156DOPC   H4R18739   4.982   6.299  12.413  0.3346  0.2341 -0.8491
  156DOPC   H4S18740   4.832   6.246  12.449  1.8359  2.3588  1.5155
  156DOPC   C2518741   4.925   6.121  12.299  0.1032 -0.1554  0.0312
  156DOPC   H5R18742   4.873   6.024  12.315  0.1746  0.1995  2.8715
  156DOPC   H5S18743   5.022   6.071  12.280 -0.4462 -1.1748 -0.1464
  156DOPC   C2618744   4.875   6.182  12.167  0.2378  0.1500  0.6034
  156DOPC   H6R18745   4.932   6.276  12.147 -0.2084  0.3975  0.4937
  156DOPC   H6S18746   4.770   6.217  12.173  1.0034  2.4534  1.9895
  156DOPC   C2718747   4.892   6.083  12.048  0.2252 -0.0395  0.3639
  156DOPC   H7R18748   4.833   5.994  12.080 -0.5138 -0.0973 -1.0759
  156DOPC   H7S18749   4.997   6.054  12.028  0.3384  0.6836 -0.0939
  156DOPC   C2818750   4.835   6.148  11.918 -0.1527  0.3535 -0.2845
  156DOPC   H8R18751   4.735   6.186  11.948 -1.5230 -3.9805  1.3210
  156DOPC   H8S18752   4.812   6.064  11.849 -1.2169  0.2674  0.1529
  156DOPC   C2918753   4.914   6.266  11.864  0.4756 -0.1059 -0.5614
  156DOPC   H9R18754   4.964   6.329  11.940  0.3530 -0.2690 -0.3438
  156DOPC  C21018755   4.949   6.281  11.737  0.1622  0.3090  0.2750
  156DOPC  H10R18756   5.011   6.367  11.710 -0.0755  0.6085  0.6793
  156DOPC  C21118757   4.902   6.203  11.616  0.1247 -0.9097 -0.0831
  156DOPC  H11R18758   4.912   6.265  11.525  0.5917 -1.3593 -0.3472
  156DOPC  H11S18759   4.793   6.182  11.622  0.4427 -4.3537 -2.9133
  156DOPC  C21218760   4.981   6.074  11.586  0.5232  0.4274 -0.7303
  156DOPC  H12R18761   4.992   6.018  11.681 -1.2853 -0.6984 -1.1295
  156DOPC  H12S18762   5.082   6.110  11.556  0.0420  2.5364 -0.0112
  156DOPC  C21318763   4.935   5.989  11.463  0.1167 -0.1955  0.6675
  156DOPC  H13R18764   4.824   5.993  11.464  0.0983 -0.2938 -0.3611
  156DOPC  H13S18765   4.960   5.881  11.468  0.8724 -0.0698 -0.1220
  156DOPC  C21418766   4.981   6.034  11.322  0.6406  0.4418  0.3083
  156DOPC  H14R18767   5.086   5.997  11.324 -0.7262 -3.9421  0.8512
  156DOPC  H14S18768   4.979   6.145  11.312 -0.5907  0.3872 -0.2113
  156DOPC  C21518769   4.915   5.970  11.202  0.0786  0.3333  0.9579
  156DOPC  H15R18770   4.826   6.031  11.179 -0.2553  0.2230  1.8945
  156DOPC  H15S18771   4.889   5.864  11.226  1.0821  0.5323  3.2274
  156DOPC  C21618772   5.007   5.965  11.078 -0.0091 -0.1118  0.4955
  156DOPC  H16R18773   5.055   5.865  11.070  0.5913  0.2697 -1.0036
  156DOPC  H16S18774   5.080   6.047  11.087  0.7194 -0.6780 -0.1662
  156DOPC  C21718775   4.934   5.998  10.946  0.4153  0.9012  0.6915
  156DOPC  H17R18776   4.882   6.096  10.952 -1.0190  0.3324 -1.0504
  156DOPC  H17S18777   4.841   5.941  10.923  0.5488  0.2537  1.7049
  156DOPC  C21818778   5.020   5.991  10.820 -0.2414 -0.4475  0.2942
  156DOPC  H18R18779   5.112   6.053  10.829 -0.6787  0.0844  1.2902
  156DOPC  H18S18780   4.969   6.009  10.723  1.0932  2.1932 -0.0124
  156DOPC  H18T18781   5.071   5.892  10.823  1.7686  0.5549  0.8811
  156DOPC   C3318782   4.373   6.501  12.411 -0.3104  0.1417 -0.3229
  156DOPC   H3X18783   4.271   6.517  12.452 -0.9249 -1.6973 -0.9854
  156DOPC   H3Y18784   4.384   6.393  12.436 -0.0321  0.6378  1.9469
  156DOPC   C3418785   4.366   6.523  12.258  0.1008  0.0082  0.0920
  156DOPC   H4X18786   4.353   6.632  12.240  0.8074  0.5570  2.5471
  156DOPC   H4Y18787   4.275   6.472  12.219 -0.1690  0.6330 -0.0990
  156DOPC   C3518788   4.480   6.465  12.184  0.3360 -0.2888  0.1118
  156DOPC   H5X18789   4.507   6.358  12.189  0.2458 -0.4365 -1.8872
  156DOPC   H5Y18790   4.573   6.521  12.208 -0.4129  1.4272 -0.7586
  156DOPC   C3618791   4.449   6.473  12.034  0.2188  0.3550  0.1446
  156DOPC   H6X18792   4.346   6.432  12.034 -0.3913  1.6944  2.6182
  156DOPC   H6Y18793   4.427   6.579  12.009 -0.9017 -0.3271 -2.0106
  156DOPC   C3718794   4.535   6.393  11.942  0.0219 -0.0594  0.0406
  156DOPC   H7X18795   4.629   6.448  11.922 -0.0570  0.3177  0.6935
  156DOPC   H7Y18796   4.551   6.288  11.976 -3.8060 -1.0167 -0.5966
  156DOPC   C3818797   4.479   6.372  11.800  0.7777  0.4535  0.4191
  156DOPC   H8X18798   4.396   6.298  11.798 -0.0928  1.4028  0.6656
  156DOPC   H8Y18799   4.557   6.325  11.735  1.1882  1.0334  0.4793
  156DOPC   C3918800   4.427   6.494  11.730  0.2522 -0.1279  0.0049
  156DOPC   H9X18801   4.330   6.525  11.771  0.4672  1.7340 -0.7873
  156DOPC  C31018802   4.474   6.560  11.625 -0.2664 -0.0112 -0.6668
  156DOPC  H10X18803   4.412   6.637  11.577 -0.1306  1.8954  1.9800
  156DOPC  C31118804   4.611   6.530  11.557 -0.1870 -0.6049  0.3991
  156DOPC  H11X18805   4.667   6.462  11.625  0.4959 -1.2679 -0.8000
  156DOPC  H11Y18806   4.664   6.628  11.556  2.1414 -1.7645 -1.5706
  156DOPC  C31218807   4.596   6.474  11.411 -0.2399 -0.3177  0.0899
  156DOPC  H12X18808   4.581   6.563  11.346  0.8134 -0.4293 -0.3306
  156DOPC  H12Y18809   4.511   6.404  11.408 -1.2895  0.7476  2.0983
  156DOPC  C31318810   4.716   6.389  11.358  0.1286  1.0098 -0.4924
  156DOPC  H13X18811   4.802   6.456  11.374  0.1238  1.1222 -0.9216
  156DOPC  H13Y18812   4.736   6.297  11.417  0.5695  1.1819 -0.3722
  156DOPC  C31418813   4.713   6.359  11.204  0.0067 -0.4711 -0.5007
  156DOPC  H14X18814   4.717   6.455  11.147 -0.4003  0.4827  1.0221
  156DOPC  H14Y18815   4.801   6.293  11.186  0.8145 -0.2012  2.0635
  156DOPC  C31518816   4.580   6.307  11.157  0.0592  0.3530  0.9883
  156DOPC  H15X18817   4.513   6.391  11.185 -0.6733 -0.5229  1.9458
  156DOPC  H15Y18818   4.548   6.234  11.234 -4.2952  1.6263  0.6077
  156DOPC  C31618819   4.573   6.269  11.009  0.1051  0.5353  0.4272
  156DOPC  H16X18820   4.566   6.365  10.954 -0.7713 -0.3422 -1.0681
  156DOPC  H16Y18821   4.670   6.221  10.981 -1.6486 -1.8852 -2.0084
  156DOPC  C31718822   4.469   6.164  10.974  0.0192  0.4114  0.2169
  156DOPC  H17X18823   4.488   6.124  10.872  0.1832  1.4283 -0.1631
  156DOPC  H17Y18824   4.487   6.076  11.039 -0.1644  0.4119  0.2697
  156DOPC  C31818825   4.324   6.207  10.994  0.6099 -0.3198  0.4963
  156DOPC  H18X18826   4.251   6.129  10.962  0.6045 -0.1290  0.0411
  156DOPC  H18Y18827   4.313   6.221  11.104 -0.3717  0.3575  0.3267
  156DOPC  H18Z18828   4.304   6.305  10.947 -1.5049 -1.3938 -1.0295
  157DOPC     N18829   4.619   2.594  13.784  0.2342 -0.6260  0.1747
  157DOPC   C1218830   4.688   2.509  13.898 -0.5183  0.1858 -0.3670
  157DOPC  H12A18831   4.605   2.467  13.954  1.0847 -1.6687  0.7354
  157DOPC  H12B18832   4.737   2.577  13.965 -0.6972 -0.2380  0.2018
  157DOPC   C1318833   4.524   2.685  13.853  0.0308  0.0311 -0.0980
  157DOPC  H13A18834   4.437   2.635  13.892 -0.2231  0.6738  0.1779
  157DOPC  H13B18835   4.574   2.727  13.939 -1.3072 -2.2114  1.9059
  157DOPC  H13C18836   4.491   2.764  13.788 -0.0936  1.8597  2.0572
  157DOPC   C1418837   4.539   2.510  13.690 -0.2391  0.2993 -0.3773
  157DOPC  H14A18838   4.467   2.445  13.738  0.0543 -0.3632 -0.8157
  157DOPC  H14B18839   4.486   2.579  13.626 -2.4855 -1.2535 -0.3005
  157DOPC  H14C18840   4.611   2.462  13.625  2.2726  1.4171  1.4211
  157DOPC   C1518841   4.721   2.670  13.711  0.0542  0.1558 -0.3898
  157DOPC  H15A18842   4.761   2.737  13.786  0.7603  1.0128 -1.5158
  157DOPC  H15B18843   4.685   2.728  13.628  0.4679 -1.1194 -1.4819
  157DOPC  H15C18844   4.801   2.606  13.676  1.1827  1.2653  0.0690
  157DOPC   C1118845   4.790   2.400  13.848 -0.2211 -0.1836  0.1455
  157DOPC  H11A18846   4.812   2.349  13.944 -0.6515 -0.9940 -0.1815
  157DOPC  H11B18847   4.746   2.319  13.786  0.8701 -1.5674  1.1381
  157DOPC     P18848   4.998   2.388  13.691 -0.1578  0.1513 -0.2865
  157DOPC   O1318849   5.031   2.254  13.746 -0.0659  0.0340 -0.2874
  157DOPC   O1418850   5.107   2.475  13.646 -0.0131  0.0182  0.7012
  157DOPC   O1218851   4.914   2.457  13.802  0.2641  0.3119 -0.5946
  157DOPC   O1118852   4.884   2.376  13.572  0.1632 -0.1373 -0.4647
  157DOPC    C118853   4.847   2.246  13.529 -0.2519 -0.4895 -0.5518
  157DOPC    HA18854   4.753   2.261  13.473 -0.0412  1.7759 -0.3893
  157DOPC    HB18855   4.818   2.178  13.612 -1.9002  1.3023  0.4067
  157DOPC    C218856   4.957   2.194  13.432  0.0894 -0.8852 -0.3031
  157DOPC    HS18857   5.050   2.167  13.487 -0.7112 -2.4314  0.3425
  157DOPC   O2118858   4.983   2.285  13.324  0.7678 -0.0050  0.1529
  157DOPC   C2118859   5.109   2.325  13.306  0.8452  0.4305 -0.2509
  157DOPC   O2218860   5.205   2.292  13.368 -0.2088  0.3462  0.3417
  157DOPC   C2218861   5.106   2.410  13.180  0.3189  0.8694  0.7669
  157DOPC   H2R18862   5.205   2.455  13.160  0.4966 -0.0657 -0.6027
  157DOPC   H2S18863   5.025   2.485  13.194  0.4029  0.7707  1.8793
  157DOPC    C318864   4.910   2.058  13.375 -0.0888 -0.9793  0.5473
  157DOPC    HX18865   4.817   2.080  13.318  1.3720  0.2031 -1.5271
  157DOPC    HY18866   4.886   1.990  13.459 -0.2886  1.4425  2.5407
  157DOPC   O3118867   5.013   2.001  13.291  0.1248  0.3408  0.0718
  157DOPC   C3118868   5.125   1.958  13.352  0.3218  0.3544  0.5319
  157DOPC   O3218869   5.148   1.963  13.473  1.3250  0.2969 -0.7475
  157DOPC   C3218870   5.225   1.915  13.242  0.0996 -0.7996 -0.4412
  157DOPC   H2X18871   5.329   1.920  13.282  0.4861 -1.1375 -1.3858
  157DOPC   H2Y18872   5.198   1.811  13.214 -0.6135 -0.1330 -2.3477
  157DOPC   C2318873   5.073   2.325  13.050  0.1394 -0.0896 -0.0956
  157DOPC   H3R18874   4.996   2.250  13.078 -0.2114  0.0841 -0.5925
  157DOPC   H3S18875   5.166   2.278  13.011  0.9560  1.3023  0.1059
  157DOPC   C2418876   5.019   2.408  12.934 -0.0247 -0.3431  0.8782
  157DOPC   H4R18877   5.085   2.493  12.905 -1.6150  0.0670 -1.8740
  157DOPC   H4S18878   4.924   2.446  12.976 -2.7940 -2.7932 -2.5292
  157DOPC   C2518879   4.979   2.320  12.813  1.1931  0.1601 -0.0358
  157DOPC   H5R18880   4.881   2.272  12.832  0.9820  0.5391 -0.1666
  157DOPC   H5S18881   5.047   2.232  12.810  1.0222  0.0600 -1.4113
  157DOPC   C2618882   4.976   2.372  12.664  0.4311  0.0948  0.4014
  157DOPC   H6R18883   4.929   2.472  12.657  0.0518 -0.1395 -0.5785
  157DOPC   H6S18884   4.906   2.306  12.608 -1.2718  3.0625 -1.1889
  157DOPC   C2718885   5.117   2.364  12.603  0.2071  0.1679  0.3240
  157DOPC   H7R18886   5.164   2.264  12.613 -0.2320 -0.4116 -2.6729
  157DOPC   H7S18887   5.179   2.430  12.668  0.4325 -1.7769  2.2171
  157DOPC   C2818888   5.118   2.399  12.448  0.2862  0.2303 -0.5768
  157DOPC   H8R18889   5.033   2.344  12.402 -0.9451  1.3056  0.3250
  157DOPC   H8S18890   5.208   2.358  12.398  1.0652  0.6221  0.4640
  157DOPC   C2918891   5.107   2.544  12.408 -0.2992 -0.3470  0.3751
  157DOPC   H9R18892   5.186   2.607  12.450 -0.8415 -0.3354  1.4147
  157DOPC  C21018893   5.024   2.596  12.316  0.1281  0.4167  0.4238
  157DOPC  H10R18894   5.040   2.702  12.288 -0.6673  0.6086  0.6636
  157DOPC  C21118895   4.902   2.523  12.265 -0.5152 -0.3126  0.7642
  157DOPC  H11R18896   4.807   2.580  12.269 -0.0713  0.4184  1.0267
  157DOPC  H11S18897   4.872   2.435  12.325 -0.8887 -1.6398 -1.2656
  157DOPC  C21218898   4.926   2.459  12.130  0.1490  0.0079 -0.4582
  157DOPC  H12R18899   4.858   2.371  12.130  1.8469 -1.4761  2.5272
  157DOPC  H12S18900   5.017   2.396  12.118  0.5543  0.5215 -0.1154
  157DOPC  C21318901   4.936   2.546  12.006  0.2828 -0.1232  0.2094
  157DOPC  H13R18902   5.010   2.621  12.040  0.7576  0.7566 -2.5083
  157DOPC  H13S18903   4.843   2.603  11.984  0.4268  0.3124  0.7190
  157DOPC  C21418904   4.981   2.481  11.872  0.2335  0.0075 -0.2317
  157DOPC  H14R18905   4.922   2.387  11.877  0.6366 -0.3814 -1.9287
  157DOPC  H14S18906   5.087   2.446  11.880  0.3736  0.8141  2.3452
  157DOPC  C21518907   4.947   2.564  11.746 -0.4914  0.0436 -0.8628
  157DOPC  H15R18908   5.022   2.646  11.738 -1.8850  1.4777  0.2172
  157DOPC  H15S18909   4.843   2.603  11.752  0.9089  4.0225  1.0223
  157DOPC  C21618910   4.975   2.497  11.615  0.0103 -0.2652 -0.3697
  157DOPC  H16R18911   4.947   2.389  11.621  0.9211 -0.5112 -0.4203
  157DOPC  H16S18912   5.085   2.498  11.600 -0.1422  0.6987 -1.5121
  157DOPC  C21718913   4.908   2.568  11.501 -0.7918  0.2930 -0.5193
  157DOPC  H17R18914   4.959   2.524  11.412  0.2653  2.3182 -0.9675
  157DOPC  H17S18915   4.941   2.674  11.501 -0.8675  0.3391 -2.0384
  157DOPC  C21818916   4.758   2.546  11.496 -0.7932 -0.1627 -0.7096
  157DOPC  H18R18917   4.736   2.438  11.506  1.5924 -0.7019 -0.5104
  157DOPC  H18S18918   4.715   2.582  11.401 -1.6633 -1.8596 -0.9823
  157DOPC  H18T18919   4.713   2.591  11.587  2.5399  2.7944 -0.2599
  157DOPC   C3318920   5.217   2.006  13.121 -0.1141  0.8578 -0.2792
  157DOPC   H3X18921   5.245   2.108  13.156 -0.2137  0.4255  1.1030
  157DOPC   H3Y18922   5.118   2.014  13.071 -0.3399  1.5898  0.2539
  157DOPC   C3418923   5.321   1.963  13.004  0.2366 -0.0978  0.3096
  157DOPC   H4X18924   5.278   1.864  12.977 -0.2526 -0.0774  0.9792
  157DOPC   H4Y18925   5.418   1.946  13.055 -0.8483 -1.7763  1.9426
  157DOPC   C3518926   5.330   2.058  12.881  0.7257 -0.0709 -1.0413
  157DOPC   H5X18927   5.328   2.155  12.934  2.2270  0.0398 -1.1507
  157DOPC   H5Y18928   5.237   2.056  12.820  0.6360 -0.0451 -0.9050
  157DOPC   C3618929   5.464   2.052  12.817  0.1417  0.9411  0.8666
  157DOPC   H6X18930   5.547   2.049  12.891  3.4671 -0.3092 -2.6429
  157DOPC   H6Y18931   5.479   1.959  12.759  0.4984  1.3753  0.2541
  157DOPC   C3718932   5.487   2.174  12.724  0.1650 -0.1417 -0.5320
  157DOPC   H7X18933   5.433   2.266  12.755  0.6301  0.4232 -1.3844
  157DOPC   H7Y18934   5.596   2.194  12.714  0.3609  0.1713  1.7605
  157DOPC   C3818935   5.425   2.154  12.585 -0.9094 -0.1421 -0.0066
  157DOPC   H8X18936   5.403   2.255  12.544 -0.3839  0.0189  0.0913
  157DOPC   H8Y18937   5.328   2.102  12.599 -1.5321  0.8702 -0.4317
  157DOPC   C3918938   5.505   2.064  12.492  0.1644  0.2665 -0.6536
  157DOPC   H9X18939   5.537   1.968  12.536 -0.0856  1.3467  2.0898
  157DOPC  C31018940   5.537   2.093  12.360 -0.6792  0.1646  0.1800
  157DOPC  H10X18941   5.593   2.016  12.304  0.6450  0.6842  0.7710
  157DOPC  C31118942   5.489   2.212  12.288  0.1734 -0.5214 -0.1715
  157DOPC  H11X18943   5.578   2.279  12.296  0.6636 -1.0058 -1.3377
  157DOPC  H11Y18944   5.394   2.251  12.330  0.1990  0.4433 -0.9681
  157DOPC  C31218945   5.471   2.193  12.140 -0.0573  0.4750  0.3740
  157DOPC  H12X18946   5.392   2.115  12.129  1.7389 -1.5483  1.1172
  157DOPC  H12Y18947   5.558   2.163  12.078 -1.5840 -1.0267 -1.1711
  157DOPC  C31318948   5.428   2.326  12.072 -0.7213  0.0029 -0.0530
  157DOPC  H13X18949   5.345   2.372  12.131 -0.5715  3.9189 -2.5056
  157DOPC  H13Y18950   5.504   2.407  12.068  0.3023 -0.9283  0.0545
  157DOPC  C31418951   5.402   2.307  11.918  0.6860 -0.3942 -0.9369
  157DOPC  H14X18952   5.470   2.231  11.873  1.1767  0.1929 -1.1946
  157DOPC  H14Y18953   5.300   2.264  11.903 -0.5801  1.8505  0.6707
  157DOPC  C31518954   5.418   2.436  11.844 -0.0145 -0.1098 -0.1884
  157DOPC  H15X18955   5.524   2.466  11.859 -0.4507  1.1868  0.4628
  157DOPC  H15Y18956   5.349   2.504  11.898  1.1906  1.4455 -0.5613
  157DOPC  C31618957   5.379   2.428  11.690  0.4931 -0.1062 -0.4763
  157DOPC  H16X18958   5.445   2.362  11.629  0.7979  0.4803 -0.7887
  157DOPC  H16Y18959   5.281   2.378  11.674  1.1205 -0.9584 -1.9071
  157DOPC  C31718960   5.375   2.565  11.625 -0.6265  0.7668  0.1030
  157DOPC  H17X18961   5.303   2.631  11.678 -2.5268 -0.1804 -1.2059
  157DOPC  H17Y18962   5.477   2.609  11.621 -0.9927  1.5536 -3.6982
  157DOPC  C31818963   5.338   2.560  11.476 -0.0112 -0.6901 -0.4522
  157DOPC  H18X18964   5.419   2.514  11.415 -0.2107 -0.9935 -0.4951
  157DOPC  H18Y18965   5.261   2.488  11.442 -0.3921  1.0545 -3.6187
  157DOPC  H18Z18966   5.314   2.664  11.446  0.6565 -0.4149 -0.0815
  158DOPC     N18967   2.306   1.351  13.658 -0.3782 -0.1002  0.0638
  158DOPC   C1218968   2.319   1.507  13.640 -0.0867  0.2266 -0.2445
  158DOPC  H12A18969   2.226   1.541  13.595  0.3151  0.2531 -1.0704
  158DOPC  H12B18970   2.397   1.537  13.572 -0.0443  0.9838  0.1257
  158DOPC   C1318971   2.437   1.298  13.704  0.2145  0.1750  0.7737
  158DOPC  H13A18972   2.434   1.190  13.709 -0.1882  0.2276  2.1257
  158DOPC  H13B18973   2.514   1.329  13.634 -0.2042  1.3514  0.8180
  158DOPC  H13C18974   2.474   1.332  13.800  1.7970 -1.9083  0.9842
  158DOPC   C1418975   2.261   1.289  13.530  0.4002 -0.0374  0.4420
  158DOPC  H14A18976   2.163   1.330  13.508  0.4283  0.5634  1.3864
  158DOPC  H14B18977   2.335   1.307  13.454  1.0949 -0.7411  0.9417
  158DOPC  H14C18978   2.248   1.184  13.549 -0.9009 -0.3176 -1.6534
  158DOPC   C1518979   2.197   1.315  13.760  0.1105  0.0671 -0.0892
  158DOPC  H15A18980   2.185   1.208  13.771 -0.7036  0.2031  0.4712
  158DOPC  H15B18981   2.099   1.341  13.725 -0.4109 -0.8616  0.6225
  158DOPC  H15C18982   2.216   1.357  13.858 -0.3749 -2.2955  1.1057
  158DOPC   C1118983   2.330   1.601  13.767 -0.3463  0.3139 -0.2658
  158DOPC  H11A18984   2.292   1.703  13.745 -2.1919 -0.1003  0.7674
  158DOPC  H11B18985   2.263   1.573  13.851  0.7358  1.1311  0.9152
  158DOPC     P18986   2.574   1.677  13.748 -0.4751 -0.0895  0.2655
  158DOPC   O1318987   2.699   1.596  13.760 -0.3480 -0.0581 -0.7124
  158DOPC   O1418988   2.586   1.817  13.794 -0.2176 -0.0635 -0.5828
  158DOPC   O1218989   2.460   1.605  13.828  0.2370  0.1038 -0.5983
  158DOPC   O1118990   2.535   1.668  13.598 -0.6142  0.0942  0.1184
  158DOPC    C118991   2.523   1.797  13.536  0.1972  0.5404 -0.0132
  158DOPC    HA18992   2.626   1.835  13.520 -0.0972  0.8428 -1.2625
  158DOPC    HB18993   2.461   1.868  13.594  0.1357  0.7204 -0.2976
  158DOPC    C218994   2.473   1.786  13.393  0.0407  0.5148 -0.3511
  158DOPC    HS18995   2.371   1.741  13.387  0.3935 -0.3310 -0.1960
  158DOPC   O2118996   2.564   1.712  13.310 -0.0478 -0.2828  0.2699
  158DOPC   C2118997   2.541   1.582  13.313 -0.6574  0.3305  0.3388
  158DOPC   O2218998   2.440   1.531  13.359 -0.1986  0.2122  0.1497
  158DOPC   C2218999   2.646   1.504  13.237 -1.1526 -0.1373  0.5895
  158DOPC   H2R19000   2.597   1.452  13.151  1.1821 -0.1187 -0.8477
  158DOPC   H2S19001   2.678   1.413  13.291  0.6303 -0.9910 -1.7171
  158DOPC    C319002   2.468   1.926  13.326  0.4452  0.5901  0.4123
  158DOPC    HX19003   2.566   1.978  13.325  0.3951  0.7152  1.1006
  158DOPC    HY19004   2.389   1.989  13.373 -0.2027  0.7839 -0.8919
  158DOPC   O3119005   2.430   1.915  13.183 -0.4882  0.8629 -0.2306
  158DOPC   C3119006   2.423   2.029  13.115 -0.4573 -0.0194 -0.9254
  158DOPC   O3219007   2.456   2.134  13.164  0.6043  0.0380  0.3570
  158DOPC   C3219008   2.370   2.005  12.972 -0.4946 -0.1852  0.1458
  158DOPC   H2X19009   2.398   1.904  12.936 -0.7514  0.2776 -1.4052
  158DOPC   H2Y19010   2.259   2.004  12.976 -0.5367  2.1005  1.0081
  158DOPC   C2319011   2.767   1.599  13.199  0.1002  0.4225 -0.0812
  158DOPC   H3R19012   2.803   1.650  13.291 -3.2135  0.8724  1.1275
  158DOPC   H3S19013   2.732   1.671  13.123 -1.2615 -1.3818 -1.2387
  158DOPC   C2419014   2.885   1.509  13.155 -0.8568 -0.1767 -0.2286
  158DOPC   H4R19015   2.919   1.452  13.244  0.2015  0.9739  0.1281
  158DOPC   H4S19016   2.962   1.587  13.139 -1.2549  0.1129 -0.7764
  158DOPC   C2519017   2.867   1.425  13.025 -0.0459  0.0618 -0.5289
  158DOPC   H5R19018   2.795   1.342  13.044  0.9717 -0.3353  2.1634
  158DOPC   H5S19019   2.956   1.358  13.030 -0.5680 -0.5443  1.6347
  158DOPC   C2619020   2.850   1.512  12.898  0.6545 -0.2184 -0.1228
  158DOPC   H6R19021   2.882   1.618  12.908  2.3003 -0.8052  1.4728
  158DOPC   H6S19022   2.739   1.512  12.894  0.6253 -1.3021  0.3402
  158DOPC   C2719023   2.900   1.427  12.776  0.2817  0.3382 -0.4523
  158DOPC   H7R19024   2.855   1.326  12.792  1.6342 -0.2857 -0.4978
  158DOPC   H7S19025   3.009   1.406  12.779  0.6160  2.0569  1.7992
  158DOPC   C2819026   2.850   1.470  12.630  0.0473 -0.8321 -0.5364
  158DOPC   H8R19027   2.739   1.478  12.634  0.0247 -0.6388 -1.4378
  158DOPC   H8S19028   2.887   1.396  12.555  0.6137 -0.4478 -0.6372
  158DOPC   C2919029   2.897   1.612  12.601  0.2438  0.3485  0.7334
  158DOPC   H9R19030   2.855   1.680  12.676 -0.6483  0.5665  0.0596
  158DOPC  C21019031   2.965   1.664  12.500 -0.0297 -0.5228 -0.2021
  158DOPC  H10R19032   2.989   1.772  12.504 -1.3776 -0.1532 -1.4218
  158DOPC  C21119033   3.017   1.589  12.375  0.4513  0.3542  0.2379
  158DOPC  H11R19034   3.040   1.484  12.405  0.5188  0.0409 -0.8688
  158DOPC  H11S19035   3.109   1.635  12.333  0.5164  1.2436  1.3064
  158DOPC  C21219036   2.920   1.563  12.259  0.6276  0.1137  0.5657
  158DOPC  H12R19037   2.861   1.654  12.237 -2.1335 -2.1776 -2.4478
  158DOPC  H12S19038   2.848   1.486  12.292  0.7027  0.5951  1.8937
  158DOPC  C21319039   2.991   1.516  12.135  0.2506  0.3256 -0.3500
  158DOPC  H13R19040   3.065   1.437  12.161 -0.8341 -0.3888  0.6652
  158DOPC  H13S19041   3.049   1.599  12.089 -0.4062  0.4156 -1.0237
  158DOPC  C21419042   2.900   1.455  12.028 -0.0953 -0.0536 -0.8012
  158DOPC  H14R19043   2.829   1.537  12.003  0.6099 -0.0121 -2.7628
  158DOPC  H14S19044   2.840   1.376  12.079  0.8606  0.0329  0.5201
  158DOPC  C21519045   2.985   1.410  11.908 -0.3092 -0.0100  0.5101
  158DOPC  H15R19046   2.935   1.319  11.868 -3.9545  0.8467  2.5796
  158DOPC  H15S19047   3.093   1.398  11.931 -0.3760 -0.9359  0.3876
  158DOPC  C21619048   2.971   1.512  11.795 -0.1604 -0.1403  0.1751
  158DOPC  H16R19049   3.012   1.611  11.822  2.1366 -0.6278 -1.3179
  158DOPC  H16S19050   2.866   1.506  11.757  0.5619 -1.4397 -1.7654
  158DOPC  C21719051   3.059   1.470  11.674  0.4859  0.1205 -0.7324
  158DOPC  H17R19052   3.024   1.369  11.644 -3.8074  1.7843 -2.1765
  158DOPC  H17S19053   3.165   1.459  11.704 -0.1998  0.0250  1.9819
  158DOPC  C21819054   3.047   1.576  11.562 -0.0489  0.8765  0.3428
  158DOPC  H18R19055   3.083   1.676  11.593  0.4813  1.0451 -0.7913
  158DOPC  H18S19056   2.942   1.594  11.531 -0.2458 -1.8350 -0.8914
  158DOPC  H18T19057   3.103   1.541  11.472  1.0068 -2.1406  2.0061
  158DOPC   C3319058   2.414   2.112  12.876 -0.5390  0.3495  0.2185
  158DOPC   H3X19059   2.525   2.119  12.871 -0.4660 -1.0934 -2.6246
  158DOPC   H3Y19060   2.377   2.215  12.896  2.0004  1.0730  1.5403
  158DOPC   C3419061   2.380   2.066  12.730  0.3313  0.1813  0.7478
  158DOPC   H4X19062   2.270   2.054  12.731  0.4190 -0.7628  1.8569
  158DOPC   H4Y19063   2.424   1.967  12.706  1.0701  0.5393  0.5892
  158DOPC   C3519064   2.418   2.164  12.617 -0.4193 -0.2020 -0.2127
  158DOPC   H5X19065   2.528   2.180  12.622 -0.4008  0.4124 -2.0985
  158DOPC   H5Y19066   2.384   2.262  12.656  0.1158 -0.6948  1.6155
  158DOPC   C3619067   2.366   2.112  12.486 -0.2538 -0.1482  0.5166
  158DOPC   H6X19068   2.402   2.011  12.458  1.4797  0.9143 -1.2663
  158DOPC   H6Y19069   2.259   2.083  12.489  0.2708 -2.2455  0.2801
  158DOPC   C3719070   2.397   2.202  12.357 -0.2096 -0.2699 -0.7062
  158DOPC   H7X19071   2.355   2.298  12.394 -1.1185 -1.3224  1.1744
  158DOPC   H7Y19072   2.505   2.218  12.336 -0.1721 -2.1569 -2.1821
  158DOPC   C3819073   2.327   2.153  12.227 -0.7221  0.7140  0.1709
  158DOPC   H8X19074   2.218   2.135  12.236 -0.5640 -0.4544 -0.0566
  158DOPC   H8Y19075   2.377   2.058  12.197  2.8389  1.9958  1.5270
  158DOPC   C3919076   2.347   2.240  12.105  0.4697 -0.6198 -0.7825
  158DOPC   H9X19077   2.450   2.276  12.115  0.4509 -0.3158 -1.6680
  158DOPC  C31019078   2.265   2.287  12.008  0.5021  0.2262 -0.3368
  158DOPC  H10X19079   2.307   2.355  11.932  1.6568 -0.6774 -0.5364
  158DOPC  C31119080   2.118   2.251  11.987  0.4890  0.2228  0.1844
  158DOPC  H11X19081   2.056   2.340  12.013  0.7952 -0.0871  2.1792
  158DOPC  H11Y19082   2.083   2.169  12.055 -4.0408  2.1740  0.5938
  158DOPC  C31219083   2.101   2.191  11.844 -0.6244  0.5189  0.2282
  158DOPC  H12X19084   2.142   2.264  11.771  0.5575 -0.0318  0.3210
  158DOPC  H12Y19085   1.991   2.181  11.831 -0.5324 -0.7419  0.3329
  158DOPC  C31319086   2.169   2.054  11.806  0.0438  0.0088 -0.7923
  158DOPC  H13X19087   2.275   2.061  11.841 -0.1845  2.2751 -0.3908
  158DOPC  H13Y19088   2.119   1.968  11.856  0.9515  0.1047  0.3340
  158DOPC  C31419089   2.180   2.026  11.656  0.2219 -0.1532  0.0395
  158DOPC  H14X19090   2.216   1.922  11.640 -1.7234 -1.0667  1.1560
  158DOPC  H14Y19091   2.076   2.029  11.616  0.3859  2.3033 -0.3291
  158DOPC  C31519092   2.276   2.125  11.594  0.2637  0.4114 -0.5747
  158DOPC  H15X19093   2.358   2.135  11.668 -1.4310 -2.4996  1.9120
  158DOPC  H15Y19094   2.228   2.225  11.591  0.9783  0.7774 -0.1791
  158DOPC  C31619095   2.328   2.091  11.452 -0.5483 -0.3040  0.3644
  158DOPC  H16X19096   2.364   1.987  11.458  0.6293  0.1521  2.2709
  158DOPC  H16Y19097   2.242   2.112  11.385  0.0416  1.5277  0.1199
  158DOPC  C31719098   2.446   2.173  11.401  0.3640 -0.0182  0.1475
  158DOPC  H17X19099   2.538   2.156  11.460  0.6560 -1.7878 -0.7389
  158DOPC  H17Y19100   2.478   2.129  11.304  2.0569  1.3021  0.0606
  158DOPC  C31819101   2.424   2.328  11.389  0.5058  0.8197  0.1172
  158DOPC  H18X19102   2.496   2.378  11.321  0.8162  2.0301  1.3112
  158DOPC  H18Y19103   2.335   2.363  11.331  1.3106  2.3483 -0.2492
  158DOPC  H18Z19104   2.426   2.377  11.488 -3.6047  0.3784  0.5881
  159DOPC     N19105   5.209   2.690  13.963  0.0307 -0.1581 -0.1572
  159DOPC   C1219106   5.144   2.790  13.858 -0.0551 -0.4649  1.3886
  159DOPC  H12A19107   5.131   2.887  13.902  2.3556  1.2151 -1.2454
  159DOPC  H12B19108   5.045   2.758  13.829  0.1625 -0.2029  0.3155
  159DOPC   C1319109   5.112   2.638  14.063  0.2557 -0.0079  0.7778
  159DOPC  H13A19110   5.167   2.573  14.129  1.9499 -0.4623 -1.0249
  159DOPC  H13B19111   5.075   2.725  14.117  2.2921  0.9908  0.6569
  159DOPC  H13C19112   5.032   2.575  14.027  0.3235 -0.8587  2.0425
  159DOPC   C1419113   5.325   2.766  14.021  0.3218  0.0362 -0.7150
  159DOPC  H14A19114   5.364   2.840  13.953  0.9084  0.5060  0.1198
  159DOPC  H14B19115   5.295   2.822  14.109  2.0071  0.1950 -0.1962
  159DOPC  H14C19116   5.407   2.702  14.052 -1.7623 -2.8546 -0.7381
  159DOPC   C1519117   5.264   2.579  13.881  0.0626  0.2793  0.7436
  159DOPC  H15A19118   5.327   2.509  13.933  0.8057  1.5591  1.6218
  159DOPC  H15B19119   5.335   2.605  13.805 -0.7870  1.2451  0.2564
  159DOPC  H15C19120   5.184   2.539  13.822  1.1575  1.3412 -1.5822
  159DOPC   C1119121   5.225   2.818  13.727 -0.0469 -0.0607 -0.2295
  159DOPC  H11A19122   5.264   2.725  13.680  2.1433  0.6471  0.0585
  159DOPC  H11B19123   5.163   2.861  13.646  2.2963  2.1474 -1.0067
  159DOPC     P19124   5.315   3.060  13.776  0.1494  0.2888 -0.1606
  159DOPC   O1319125   5.288   3.078  13.922 -0.2769  0.1063  0.1178
  159DOPC   O1419126   5.213   3.114  13.683 -0.5321  0.0656 -0.2903
  159DOPC   O1219127   5.336   2.901  13.750 -0.3664 -0.0782  0.2106
  159DOPC   O1119128   5.449   3.128  13.739 -0.0977  0.6139 -0.3098
  159DOPC    C119129   5.561   3.064  13.677  1.0848  0.0377  0.8255
  159DOPC    HA19130   5.567   2.953  13.678  2.1588  0.0619 -0.2523
  159DOPC    HB19131   5.656   3.100  13.724  1.6466  1.7266 -1.4324
  159DOPC    C219132   5.575   3.124  13.531 -0.0072  0.4022  0.1933
  159DOPC    HS19133   5.582   3.234  13.543  3.9298  0.4549 -1.2756
  159DOPC   O2119134   5.450   3.083  13.463  0.0979 -0.4628 -0.5860
  159DOPC   C2119135   5.435   2.959  13.421  0.2367 -0.2517  0.2979
  159DOPC   O2219136   5.504   2.865  13.444  0.2133 -0.2932 -0.0163
  159DOPC   C2219137   5.295   2.961  13.351 -0.1906  0.1085 -0.2319
  159DOPC   H2R19138   5.296   3.047  13.281 -1.7653  1.5564  1.4043
  159DOPC   H2S19139   5.230   2.985  13.438 -1.3509  0.3889 -1.1543
  159DOPC    C319140   5.700   3.082  13.442 -0.4495  0.2942  1.1027
  159DOPC    HX19141   5.720   2.975  13.465 -1.9997 -0.3697 -0.3717
  159DOPC    HY19142   5.792   3.140  13.465 -0.1874  0.4061 -0.1588
  159DOPC   O3119143   5.677   3.091  13.297  0.5202 -0.6740  0.2898
  159DOPC   C3119144   5.716   2.988  13.220  0.1856 -0.5138  0.3494
  159DOPC   O3219145   5.765   2.886  13.264  0.2476  0.1052 -0.5219
  159DOPC   C3219146   5.690   3.040  13.077 -0.3275  0.2315  1.2161
  159DOPC   H2X19147   5.584   3.022  13.046  0.1056  0.5857 -0.6141
  159DOPC   H2Y19148   5.707   3.149  13.076 -2.2521  0.6203 -1.4471
  159DOPC   C2319149   5.261   2.833  13.272 -0.3275  0.5767  0.1587
  159DOPC   H3R19150   5.237   2.754  13.347  2.8612  1.2707  2.0915
  159DOPC   H3S19151   5.346   2.811  13.205  0.8015  2.0019  1.0513
  159DOPC   C2419152   5.137   2.864  13.184 -0.2076  0.0073 -0.5100
  159DOPC   H4R19153   5.059   2.913  13.246  0.3657  1.1495 -0.6622
  159DOPC   H4S19154   5.085   2.776  13.141 -3.1686  2.0016 -1.2891
  159DOPC   C2519155   5.152   2.960  13.061  0.4096 -0.3830 -0.0778
  159DOPC   H5R19156   5.160   3.058  13.112 -0.0637 -0.0100 -0.7007
  159DOPC   H5S19157   5.053   2.962  13.010  0.5212 -0.4083 -0.2993
  159DOPC   C2619158   5.267   2.931  12.963 -0.0432 -0.2330 -0.1442
  159DOPC   H6R19159   5.241   2.842  12.902  0.6204 -0.9371  0.5821
  159DOPC   H6S19160   5.359   2.919  13.023  0.2898 -0.4187 -0.6771
  159DOPC   C2719161   5.301   3.041  12.876  0.3823 -0.2872 -0.1202
  159DOPC   H7R19162   5.412   3.051  12.884  0.1182  3.5937  0.5783
  159DOPC   H7S19163   5.274   3.136  12.927  1.4502 -0.4668  0.8327
  159DOPC   C2819164   5.236   3.040  12.731  0.0413  0.6209 -0.4643
  159DOPC   H8R19165   5.252   3.144  12.694  0.1089  1.1666  0.9961
  159DOPC   H8S19166   5.126   3.034  12.748 -1.0527  7.6215 -1.9404
  159DOPC   C2919167   5.289   2.934  12.632  0.1128 -0.2720 -0.3916
  159DOPC   H9R19168   5.335   2.848  12.683  2.2921  0.6136 -0.7720
  159DOPC  C21019169   5.278   2.934  12.499  0.0773 -1.1503  0.3896
  159DOPC  H10R19170   5.305   2.840  12.449  1.1671 -0.1382 -1.0387
  159DOPC  C21119171   5.217   3.045  12.416  0.2214 -0.4494  0.2148
  159DOPC  H11R19172   5.297   3.106  12.367 -0.1681 -0.3305 -0.2816
  159DOPC  H11S19173   5.165   3.121  12.478  1.4179  1.8757 -1.4842
  159DOPC  C21219174   5.123   3.015  12.292  0.5801  0.0753  0.3668
  159DOPC  H12R19175   5.092   3.112  12.249 -0.8183  0.2953  1.7756
  159DOPC  H12S19176   5.034   2.959  12.327  1.0254  1.0338  3.2751
  159DOPC  C21319177   5.185   2.925  12.184 -0.7201  0.3532  0.5850
  159DOPC  H13R19178   5.209   2.827  12.230  0.6364  0.5607  0.3685
  159DOPC  H13S19179   5.287   2.959  12.154  0.1558 -3.5551 -1.7334
  159DOPC  C21419180   5.098   2.895  12.065 -0.0054  0.1788  0.1859
  159DOPC  H14R19181   5.073   2.997  12.029  1.3902  0.3292 -0.4175
  159DOPC  H14S19182   5.002   2.846  12.092 -1.7096  1.8068 -2.4424
  159DOPC  C21519183   5.161   2.804  11.966 -0.0343 -0.1056 -0.0276
  159DOPC  H15R19184   5.084   2.788  11.887 -0.8059  0.6708  0.5341
  159DOPC  H15S19185   5.192   2.708  12.011 -1.9573 -0.1638  1.3221
  159DOPC  C21619186   5.283   2.858  11.889  0.2671 -0.2124 -0.0376
  159DOPC  H16R19187   5.332   2.772  11.837  0.9362  1.5559 -2.5357
  159DOPC  H16S19188   5.366   2.897  11.952  1.4430 -0.5372 -1.3170
  159DOPC  C21719189   5.245   2.970  11.796  0.0511 -0.2036  0.2286
  159DOPC  H17R19190   5.337   2.981  11.735  2.1680 -4.0185  2.3543
  159DOPC  H17S19191   5.237   3.068  11.849  0.6957 -0.4009  0.7113
  159DOPC  C21819192   5.127   2.953  11.691 -0.1243 -0.2121 -0.3955
  159DOPC  H18R19193   5.159   3.024  11.612  0.0283  1.6355  1.2631
  159DOPC  H18S19194   5.026   2.986  11.724  0.8197  2.5968 -0.0194
  159DOPC  H18T19195   5.118   2.856  11.637  0.4702  1.7368 -4.3533
  159DOPC   C3319196   5.766   2.967  12.964 -0.3978 -0.0025 -0.2105
  159DOPC   H3X19197   5.738   2.860  12.954  0.0734 -0.3782  1.9333
  159DOPC   H3Y19198   5.875   2.970  12.987 -0.3916  0.1943 -0.2672
  159DOPC   C3419199   5.733   3.046  12.835  0.0162 -0.0723 -0.5106
  159DOPC   H4X19200   5.765   3.152  12.846 -1.5682  0.4778 -0.8950
  159DOPC   H4Y19201   5.624   3.045  12.812  0.2283  1.9656 -1.8774
  159DOPC   C3519202   5.795   2.984  12.713 -0.9520  0.1238  0.0994
  159DOPC   H5X19203   5.750   2.884  12.701  0.4797 -0.3459 -2.0260
  159DOPC   H5Y19204   5.904   2.963  12.717 -1.2667 -1.4681  1.0343
  159DOPC   C3619205   5.770   3.078  12.592 -0.2678 -0.7313  0.1205
  159DOPC   H6X19206   5.662   3.073  12.566 -0.3924  0.9551  0.1643
  159DOPC   H6Y19207   5.801   3.184  12.604 -3.6078  0.5653 -1.3892
  159DOPC   C3719208   5.846   3.039  12.465 -0.5887  0.4474 -0.2110
  159DOPC   H7X19209   5.951   3.035  12.501 -0.3044  1.6033 -0.8704
  159DOPC   H7Y19210   5.835   2.943  12.411  0.2056  1.5820 -2.5055
  159DOPC   C3819211   5.839   3.152  12.358  0.6965  0.2622  0.3852
  159DOPC   H8X19212   5.927   3.136  12.292  1.5304  0.8032  1.3243
  159DOPC   H8Y19213   5.853   3.250  12.409 -0.9261  0.4256  0.5578
  159DOPC   C3919214   5.707   3.133  12.282  0.3382 -0.2245  0.2457
  159DOPC   H9X19215   5.617   3.123  12.345  0.8973  0.0786  1.1073
  159DOPC  C31019216   5.690   3.113  12.153  0.1867  0.1753 -0.2432
  159DOPC  H10X19217   5.590   3.090  12.114  0.0950  2.7165 -1.7391
  159DOPC  C31119218   5.786   3.127  12.037  0.6078  0.1700 -0.5543
  159DOPC  H11X19219   5.821   3.026  12.006 -0.3420 -0.5672  0.7213
  159DOPC  H11Y19220   5.880   3.175  12.071 -0.1966  0.3237  1.5777
  159DOPC  C31219221   5.730   3.218  11.918  0.1680  0.6059 -0.1901
  159DOPC  H12X19222   5.754   3.319  11.959  2.7202 -0.2140  0.5908
  159DOPC  H12Y19223   5.620   3.211  11.904 -0.1871  1.0417  1.9330
  159DOPC  C31319224   5.816   3.200  11.797  0.6098  0.4745  0.6431
  159DOPC  H13X19225   5.832   3.295  11.741  0.4910  0.1047 -0.0353
  159DOPC  H13Y19226   5.913   3.151  11.822  0.4078  0.1159  0.7290
  159DOPC  C31419227   5.757   3.102  11.684  0.0048 -0.0580  0.5765
  159DOPC  H14X19228   5.848   3.080  11.623 -0.2545 -1.8157  0.7730
  159DOPC  H14Y19229   5.723   3.005  11.727  0.3991 -0.0595  0.8895
  159DOPC  C31519230   5.652   3.166  11.597  0.5485 -0.6832 -0.0171
  159DOPC  H15X19231   5.692   3.262  11.559  0.2212  1.0204  3.4811
  159DOPC  H15Y19232   5.568   3.191  11.665  0.4756  2.9425 -1.2264
  159DOPC  C31619233   5.594   3.081  11.489  0.1174  0.6436 -0.0880
  159DOPC  H16X19234   5.686   3.034  11.448 -0.2516 -1.1375  1.0213
  159DOPC  H16Y19235   5.520   3.006  11.523 -1.6648  2.4190  0.0819
  159DOPC  C31719236   5.516   3.154  11.368 -0.0682 -0.4506 -0.8885
  159DOPC  H17X19237   5.568   3.236  11.315  1.3181  0.1203  1.2399
  159DOPC  H17Y19238   5.505   3.087  11.280 -1.9619  1.0706 -1.8874
  159DOPC  C31819239   5.379   3.211  11.412  0.4019  0.2002 -0.1651
  159DOPC  H18X19240   5.390   3.305  11.471 -0.3171  1.7968 -2.4386
  159DOPC  H18Y19241   5.334   3.242  11.315  0.6738  0.3111 -0.2539
  159DOPC  H18Z19242   5.312   3.140  11.466 -1.1490  1.7811  0.1109
  160DOPC     N19243   0.414   0.567  13.551  0.3462  0.2792  0.1689
  160DOPC   C1219244   0.486   0.627  13.441 -0.2350  0.7296 -0.5116
  160DOPC  H12A19245   0.568   0.683  13.482  0.9482 -1.1106 -0.2494
  160DOPC  H12B19246   0.419   0.688  13.382 -0.1087  0.0572 -1.3586
  160DOPC   C1319247   0.383   0.683  13.637  1.0160  0.1244 -0.3267
  160DOPC  H13A19248   0.318   0.752  13.586  2.0058  0.6476 -0.9200
  160DOPC  H13B19249   0.331   0.655  13.727  0.7103  3.6749  0.7602
  160DOPC  H13C19250   0.476   0.729  13.668  0.7031 -0.1701  1.1285
  160DOPC   C1419251   0.505   0.489  13.630 -0.1743  0.1623 -0.0698
  160DOPC  H14A19252   0.589   0.551  13.657  1.0239 -1.0685 -0.8783
  160DOPC  H14B19253   0.448   0.463  13.719 -1.2350  1.3285 -0.3714
  160DOPC  H14C19254   0.538   0.399  13.580  2.0069  1.7574 -1.6951
  160DOPC   C1519255   0.294   0.491  13.508  0.2079  0.6224  0.7775
  160DOPC  H15A19256   0.310   0.434  13.417  0.1465 -0.9111  1.6880
  160DOPC  H15B19257   0.209   0.555  13.490 -0.8414 -1.0189 -0.4151
  160DOPC  H15C19258   0.266   0.418  13.583 -1.9692  0.4770 -0.0913
  160DOPC   C1119259   0.548   0.513  13.353 -0.2575  0.0919  0.6869
  160DOPC  H11A19260   0.473   0.439  13.318 -0.1268 -0.3479  1.3048
  160DOPC  H11B19261   0.573   0.549  13.251  0.2000 -2.9353 -0.3946
  160DOPC     P19262   0.800   0.491  13.404  0.1042  0.2065 -0.1848
  160DOPC   O1319263   0.876   0.402  13.491 -0.0660 -0.3947  0.1449
  160DOPC   O1419264   0.809   0.636  13.420 -0.1130  0.0243  0.1358
  160DOPC   O1219265   0.651   0.444  13.412 -0.4689  0.6851  0.0858
  160DOPC   O1119266   0.835   0.460  13.256 -0.0020 -0.4672  0.0301
  160DOPC    C119267   0.833   0.328  13.203 -0.1803 -0.0488 -0.1632
  160DOPC    HA19268   0.756   0.263  13.250 -0.1117 -0.5217 -0.6873
  160DOPC    HB19269   0.934   0.291  13.234  0.3547  2.5400  1.5199
  160DOPC    C219270   0.823   0.329  13.051 -1.0327  0.0220  0.4633
  160DOPC    HS19271   0.843   0.225  13.015 -0.2085  0.7130 -1.1798
  160DOPC   O2119272   0.931   0.417  13.004 -0.5264 -0.7057 -0.5702
  160DOPC   C2119273   1.003   0.378  12.900 -0.4666 -0.8007  0.1902
  160DOPC   O2219274   1.008   0.271  12.847  0.4110 -0.3092  0.1711
  160DOPC   C2219275   1.107   0.491  12.882  0.6471 -0.4846  0.1068
  160DOPC   H2R19276   1.183   0.461  12.807 -0.2034 -0.0795 -0.9466
  160DOPC   H2S19277   1.168   0.489  12.975  3.4376 -2.5879 -1.6039
  160DOPC    C319278   0.683   0.388  13.005  0.7027 -0.1314  0.5492
  160DOPC    HX19279   0.683   0.492  13.043  2.1772 -0.2915  1.0361
  160DOPC    HY19280   0.597   0.340  13.057  0.1469  0.8642  0.5643
  160DOPC   O3119281   0.668   0.394  12.863  0.3852  0.2678  0.0861
  160DOPC   C3119282   0.654   0.276  12.802 -0.7611  0.2561 -0.1054
  160DOPC   O3219283   0.640   0.170  12.860 -0.3406  0.1891 -0.6092
  160DOPC   C3219284   0.677   0.278  12.650 -0.0815  0.8125  0.2498
  160DOPC   H2X19285   0.684   0.388  12.634 -1.4442  1.1530  1.7013
  160DOPC   H2Y19286   0.771   0.227  12.621 -0.8932  0.4343 -1.8553
  160DOPC   C2319287   1.042   0.630  12.838 -0.2532 -0.6577 -0.4094
  160DOPC   H3R19288   1.104   0.712  12.880  0.3348 -1.2438 -0.1166
  160DOPC   H3S19289   0.941   0.643  12.883  0.3190 -0.8406  0.9632
  160DOPC   C2419290   1.045   0.643  12.689  0.0569 -0.5132  0.7433
  160DOPC   H4R19291   1.148   0.612  12.659 -0.0780 -2.1709  1.8806
  160DOPC   H4S19292   1.047   0.750  12.659  1.3388 -0.9252 -0.8319
  160DOPC   C2519293   0.945   0.565  12.610  0.1723  0.8811  0.2537
  160DOPC   H5R19294   0.842   0.606  12.609 -0.4913 -0.6762 -1.2782
  160DOPC   H5S19295   0.945   0.463  12.655  0.0833  0.7017 -0.1476
  160DOPC   C2619296   0.981   0.543  12.455  0.2909 -0.4652 -0.3051
  160DOPC   H6R19297   1.022   0.638  12.415 -1.8478 -0.0813 -1.7246
  160DOPC   H6S19298   0.887   0.519  12.401 -1.1714 -0.5146  2.1230
  160DOPC   C2719299   1.088   0.436  12.444  0.9122 -0.7754  0.4498
  160DOPC   H7R19300   1.051   0.348  12.502  2.6829 -1.2572  0.8923
  160DOPC   H7S19301   1.176   0.473  12.500 -0.5895  3.8136  0.1707
  160DOPC   C2819302   1.110   0.404  12.297 -0.5387  0.2061  0.3359
  160DOPC   H8R19303   1.010   0.382  12.254 -0.2523  1.1421 -0.8718
  160DOPC   H8S19304   1.157   0.304  12.301  0.8766  0.8873  3.1696
  160DOPC   C2919305   1.192   0.511  12.222 -0.5768  0.0389 -0.0821
  160DOPC   H9R19306   1.288   0.546  12.262 -0.9069  3.0555 -1.6332
  160DOPC  C21019307   1.154   0.560  12.104  0.3003  0.7678 -0.1948
  160DOPC  H10R19308   1.220   0.634  12.057  0.2136  0.3307 -1.0275
  160DOPC  C21119309   1.033   0.512  12.022  0.4808 -0.5946  0.0120
  160DOPC  H11R19310   0.962   0.597  12.013  0.4919 -0.2067  2.5979
  160DOPC  H11S19311   0.981   0.418  12.053  0.0272 -0.0858  0.8408
  160DOPC  C21219312   1.103   0.467  11.892 -0.0927  0.2846  0.3231
  160DOPC  H12R19313   1.178   0.387  11.906 -0.2831  0.1731  0.6994
  160DOPC  H12S19314   1.151   0.553  11.840  0.4063  0.8940  1.7373
  160DOPC  C21319315   1.003   0.399  11.790  0.4309 -0.7008  0.9143
  160DOPC  H13R19316   0.922   0.467  11.756  1.1164 -0.6353 -0.6502
  160DOPC  H13S19317   0.955   0.324  11.857  0.7524 -0.0564  1.8997
  160DOPC  C21419318   1.073   0.337  11.666  0.1421 -1.0586 -0.0444
  160DOPC  H14R19319   1.028   0.237  11.647 -1.7296 -0.3771  0.4998
  160DOPC  H14S19320   1.178   0.321  11.697 -0.1075 -2.5613  0.0726
  160DOPC  C21519321   1.080   0.421  11.533 -0.1869 -0.2321 -0.4377
  160DOPC  H15R19322   0.974   0.428  11.498 -0.6407 -2.4875  0.3115
  160DOPC  H15S19323   1.149   0.368  11.464  2.8182 -1.6978  3.3319
  160DOPC  C21619324   1.135   0.567  11.539  1.2406 -0.1111 -0.1247
  160DOPC  H16R19325   1.235   0.579  11.585  2.2234 -1.2674 -1.8335
  160DOPC  H16S19326   1.054   0.615  11.598  0.5381 -0.8141 -0.4895
  160DOPC  C21719327   1.135   0.640  11.406 -0.4093  0.1389 -0.0561
  160DOPC  H17R19328   1.123   0.748  11.426  0.1065  0.2743 -0.4541
  160DOPC  H17S19329   1.047   0.616  11.342  0.6772  1.7883 -2.2980
  160DOPC  C21819330   1.259   0.623  11.322 -0.0780 -0.5964  0.7188
  160DOPC  H18R19331   1.257   0.689  11.233  0.3322 -0.7737  0.5765
  160DOPC  H18S19332   1.264   0.515  11.295  0.2928 -1.0468  2.4806
  160DOPC  H18T19333   1.349   0.662  11.374  0.8802  0.4495 -1.5955
  160DOPC   C3319334   0.551   0.224  12.573  0.6452  0.2413  0.4003
  160DOPC   H3X19335   0.461   0.271  12.619  0.6601  2.0249 -1.3069
  160DOPC   H3Y19336   0.539   0.115  12.596 -1.8968  0.0802 -1.2366
  160DOPC   C3419337   0.554   0.243  12.421  0.0188 -0.0950 -0.1527
  160DOPC   H4X19338   0.526   0.349  12.400 -0.2723 -0.0814  0.3052
  160DOPC   H4Y19339   0.484   0.171  12.373 -0.2607 -1.4441  2.1596
  160DOPC   C3519340   0.695   0.221  12.365  0.1677  0.6926  0.3132
  160DOPC   H5X19341   0.705   0.111  12.367  2.3489  0.8178 -0.9398
  160DOPC   H5Y19342   0.767   0.273  12.432 -0.3613  0.4351  1.0936
  160DOPC   C3619343   0.698   0.261  12.222  0.1949  0.4103  0.7654
  160DOPC   H6X19344   0.657   0.363  12.211 -2.3427 -0.6031  0.2565
  160DOPC   H6Y19345   0.801   0.250  12.182  0.7111  1.7325  1.6344
  160DOPC   C3719346   0.595   0.192  12.126  0.3137  0.3633  0.0879
  160DOPC   H7X19347   0.606   0.082  12.132 -1.2203  0.0843 -1.4387
  160DOPC   H7Y19348   0.494   0.218  12.164  0.1520 -1.4394  1.0007
  160DOPC   C3819349   0.612   0.238  11.980 -0.2271  1.0022  0.2857
  160DOPC   H8X19350   0.717   0.217  11.950 -0.7572  0.1632 -1.0972
  160DOPC   H8Y19351   0.583   0.346  11.981 -2.9573  0.3807 -1.2214
  160DOPC   C3919352   0.503   0.166  11.897  0.2836  0.1117  0.2794
  160DOPC   H9X19353   0.432   0.098  11.946  0.9806 -1.0806 -0.3187
  160DOPC  C31019354   0.509   0.164  11.758  0.3049  0.6774 -0.1822
  160DOPC  H10X19355   0.424   0.110  11.713  0.2626 -0.0756  0.7772
  160DOPC  C31119356   0.604   0.228  11.659 -0.5464  0.0855 -0.6361
  160DOPC  H11X19357   0.658   0.153  11.597 -1.6646  0.9007 -2.6899
  160DOPC  H11Y19358   0.685   0.290  11.704  0.7569 -0.6265 -1.9305
  160DOPC  C31219359   0.519   0.328  11.577 -0.9094 -0.0074  0.1265
  160DOPC  H12X19360   0.598   0.380  11.518  1.4283 -2.8168  0.5626
  160DOPC  H12Y19361   0.467   0.396  11.648 -1.5903 -1.7743  1.3863
  160DOPC  C31319362   0.415   0.264  11.473 -0.7865 -0.1008  0.5547
  160DOPC  H13X19363   0.468   0.216  11.388 -0.5379  0.5804  0.3156
  160DOPC  H13Y19364   0.349   0.191  11.523 -0.4769 -0.3860  0.5516
  160DOPC  C31419365   0.321   0.366  11.409 -0.1934 -0.1733 -0.0493
  160DOPC  H14X19366   0.281   0.434  11.488  0.6401 -0.4614  0.6350
  160DOPC  H14Y19367   0.385   0.426  11.342 -0.6987 -1.2137 -1.5352
  160DOPC  C31519368   0.212   0.294  11.324 -0.3865 -0.1921  0.6127
  160DOPC  H15X19369   0.174   0.207  11.382  2.7674 -0.7092  2.1236
  160DOPC  H15Y19370   0.276   0.253  11.242  0.9981  1.5882  0.7502
  160DOPC  C31619371   0.098   0.376  11.260  0.0182 -0.1327 -0.4857
  160DOPC  H16X19372   0.022   0.416  11.331 -0.8962  0.7399 -1.9147
  160DOPC  H16Y19373   0.137   0.473  11.222 -0.2315  1.0878  2.1066
  160DOPC  C31719374   0.017   0.310  11.147 -0.4365 -0.1804  1.1228
  160DOPC  H17X19375   0.095   0.292  11.070  0.1150  2.5288  0.9544
  160DOPC  H17Y19376  -0.019   0.211  11.182 -0.3606 -0.7773 -0.4097
  160DOPC  C31819377  -0.094   0.393  11.083  0.9994 -0.2106 -0.2750
  160DOPC  H18X19378  -0.108   0.384  10.973 -1.8165 -0.0150  0.0016
  160DOPC  H18Y19379  -0.189   0.359  11.129  0.0665  0.4455 -1.6504
  160DOPC  H18Z19380  -0.087   0.502  11.104 -2.4316  0.0021  0.2841
  161DOPC     N19381   2.300   2.764  13.924  0.6442 -0.5384 -0.5716
  161DOPC   C1219382   2.221   2.810  13.800  0.5218  0.1051 -0.4276
  161DOPC  H12A19383   2.266   2.773  13.709  0.0666  0.4291 -0.7934
  161DOPC  H12B19384   2.233   2.917  13.788  1.0626  0.0651 -0.2504
  161DOPC   C1319385   2.447   2.764  13.909  0.0786 -0.4473 -0.2851
  161DOPC  H13A19386   2.495   2.860  13.898 -0.4452 -0.3546 -2.0715
  161DOPC  H13B19387   2.500   2.717  13.990 -1.0158 -0.9954  0.1487
  161DOPC  H13C19388   2.472   2.699  13.827  0.7190  0.4146 -0.7848
  161DOPC   C1419389   2.260   2.632  13.958  0.5110  0.5101 -0.1836
  161DOPC  H14A19390   2.291   2.600  14.056  0.7275  1.3456  0.0299
  161DOPC  H14B19391   2.153   2.622  13.970  0.6579 -2.1473 -0.4153
  161DOPC  H14C19392   2.295   2.553  13.893 -1.6588 -1.3367  0.7682
  161DOPC   C1519393   2.260   2.854  14.040  1.1829 -0.2635 -0.3393
  161DOPC  H15A19394   2.301   2.823  14.135  0.2958 -0.5591 -0.0430
  161DOPC  H15B19395   2.153   2.849  14.056  1.0983 -1.5976 -1.1399
  161DOPC  H15C19396   2.288   2.957  14.027 -0.9557  0.6263  1.4291
  161DOPC   C1119397   2.074   2.778  13.800  0.4363 -0.3541 -1.0398
  161DOPC  H11A19398   2.042   2.788  13.906  2.9880 -2.3248  0.0376
  161DOPC  H11B19399   2.018   2.842  13.730  2.5097  0.1158 -2.3652
  161DOPC     P19400   1.915   2.577  13.771 -0.0342 -0.2598  0.2207
  161DOPC   O1319401   1.861   2.596  13.908 -0.1078 -0.5838  0.6308
  161DOPC   O1419402   1.922   2.444  13.708 -0.6670  0.1858  0.4127
  161DOPC   O1219403   2.059   2.641  13.759 -0.4827  0.5945  0.0292
  161DOPC   O1119404   1.834   2.669  13.667  0.0449 -0.1523  0.3476
  161DOPC    C119405   1.760   2.622  13.553 -0.4412 -0.5815  0.1555
  161DOPC    HA19406   1.672   2.689  13.540 -0.2331  0.6483  3.9311
  161DOPC    HB19407   1.724   2.518  13.568  1.5207 -1.2335  0.7043
  161DOPC    C219408   1.836   2.628  13.419 -0.8076  0.4149  0.7322
  161DOPC    HS19409   1.910   2.546  13.409 -1.2096 -0.5750  4.3708
  161DOPC   O2119410   1.896   2.759  13.396 -0.2498  0.3168 -0.4078
  161DOPC   C2119411   2.030   2.763  13.421 -0.2407  0.6762  0.1772
  161DOPC   O2219412   2.104   2.666  13.437  0.7034 -0.6225 -0.2308
  161DOPC   C2219413   2.066   2.906  13.431 -0.0521 -0.4010  0.1068
  161DOPC   H2R19414   2.171   2.922  13.464  0.1610 -1.0013 -0.2579
  161DOPC   H2S19415   2.002   2.943  13.514 -0.5161  0.6414 -0.7073
  161DOPC    C319416   1.729   2.606  13.310 -0.3808  0.8191  0.0907
  161DOPC    HX19417   1.665   2.696  13.305  0.8441  1.8252  1.5130
  161DOPC    HY19418   1.666   2.516  13.329  0.0239  0.7814  1.3504
  161DOPC   O3119419   1.793   2.589  13.178  0.1137 -0.2209 -0.0088
  161DOPC   C3119420   1.707   2.564  13.082  0.2127  0.3539 -0.1947
  161DOPC   O3219421   1.585   2.555  13.096  0.3072 -0.3338  0.4444
  161DOPC   C3219422   1.780   2.541  12.948 -1.0006 -0.6028 -0.2456
  161DOPC   H2X19423   1.795   2.644  12.910 -0.7444 -1.4394 -2.6029
  161DOPC   H2Y19424   1.875   2.490  12.976 -0.8623 -0.3381 -0.2261
  161DOPC   C2319425   2.031   2.985  13.306 -0.2484 -0.5631 -0.4434
  161DOPC   H3R19426   2.000   3.086  13.341 -0.8460 -0.1412 -2.0715
  161DOPC   H3S19427   1.939   2.944  13.258  0.4885 -1.6547 -0.9510
  161DOPC   C2419428   2.135   3.000  13.195 -1.0536  0.1868 -0.4376
  161DOPC   H4R19429   2.180   2.907  13.155 -0.6733 -0.5375  1.5673
  161DOPC   H4S19430   2.219   3.053  13.244 -0.6419 -1.1226  0.3022
  161DOPC   C2519431   2.091   3.095  13.086  1.1783 -0.1470 -0.0526
  161DOPC   H5R19432   2.177   3.143  13.034  0.6254  1.9538  0.8569
  161DOPC   H5S19433   2.021   3.178  13.111  1.0824 -0.6523  1.4938
  161DOPC   C2619434   2.017   3.014  12.974  0.6853  0.0663 -0.4029
  161DOPC   H6R19435   1.936   2.957  13.023 -0.7235  2.5941  0.3835
  161DOPC   H6S19436   2.084   2.942  12.922  0.6102 -0.9482  0.8806
  161DOPC   C2719437   1.968   3.103  12.862  0.8233  0.0048 -0.1015
  161DOPC   H7R19438   2.042   3.166  12.808  0.4432  0.7213  0.2004
  161DOPC   H7S19439   1.892   3.168  12.911 -0.0944  0.7881 -2.4173
  161DOPC   C2819440   1.898   3.025  12.754 -0.0497 -0.7420 -0.7292
  161DOPC   H8R19441   1.844   3.094  12.687  0.1514 -1.2947 -1.4691
  161DOPC   H8S19442   1.826   2.958  12.806  0.8003 -0.6987  0.5739
  161DOPC   C2919443   1.994   2.949  12.668 -0.2096 -0.6997 -0.2191
  161DOPC   H9R19444   2.028   2.853  12.710  4.3441 -0.3399 -2.4582
  161DOPC  C21019445   2.080   2.996  12.578  0.2987  0.5831 -0.0792
  161DOPC  H10R19446   2.141   2.919  12.529 -1.4868 -0.2638 -1.0497
  161DOPC  C21119447   2.094   3.130  12.529 -0.2390  0.2732  0.0399
  161DOPC  H11R19448   2.199   3.165  12.543  0.5056 -1.3554 -1.1927
  161DOPC  H11S19449   2.033   3.197  12.593  0.1010 -0.4672  1.1705
  161DOPC  C21219450   2.069   3.146  12.378 -0.0412  0.5802 -0.3276
  161DOPC  H12R19451   2.140   3.079  12.325  0.8218 -0.6326  2.1937
  161DOPC  H12S19452   2.099   3.250  12.354 -0.3601  0.7118 -0.1567
  161DOPC  C21319453   1.924   3.134  12.326 -0.1376 -0.3262 -0.1400
  161DOPC  H13R19454   1.864   3.190  12.401  0.9481  0.8616 -0.1318
  161DOPC  H13S19455   1.885   3.030  12.333  0.6659 -0.5651  0.9907
  161DOPC  C21419456   1.888   3.176  12.179 -0.1373  0.0896  0.5177
  161DOPC  H14R19457   1.926   3.280  12.166  2.4421 -0.6552  1.5692
  161DOPC  H14S19458   1.779   3.161  12.164  0.1724 -0.4610 -1.4468
  161DOPC  C21519459   1.956   3.082  12.076 -0.1976  0.2093 -0.2936
  161DOPC  H15R19460   1.925   2.980  12.107  0.6403  0.7296  2.4923
  161DOPC  H15S19461   2.063   3.090  12.105 -0.5793  2.6103  0.7152
  161DOPC  C21619462   1.922   3.091  11.932 -0.1668 -0.0106 -0.1331
  161DOPC  H16R19463   1.943   3.193  11.891 -0.5156  0.0103 -0.2625
  161DOPC  H16S19464   1.812   3.082  11.919 -0.2022  2.2111 -2.1685
  161DOPC  C21719465   1.989   2.982  11.846  0.1019  0.1915 -0.4454
  161DOPC  H17R19466   1.961   2.881  11.884  0.3006  0.5672  0.7166
  161DOPC  H17S19467   2.100   2.987  11.853  0.2267 -1.3738 -0.8587
  161DOPC  C21819468   1.948   3.005  11.692 -0.4731  0.2291 -0.3352
  161DOPC  H18R19469   1.954   3.112  11.663 -0.2929  0.5155  0.7166
  161DOPC  H18S19470   1.846   2.965  11.671  0.4494 -1.7473 -1.3672
  161DOPC  H18T19471   2.015   2.950  11.622  1.7208  2.1906  0.1001
  161DOPC   C3319472   1.706   2.473  12.834  0.1296  0.6733  0.7331
  161DOPC   H3X19473   1.615   2.535  12.819 -0.8929 -0.4546  2.0210
  161DOPC   H3Y19474   1.677   2.367  12.847 -1.1414  0.7396 -1.1900
  161DOPC   C3419475   1.776   2.480  12.701  0.1584 -0.0732  0.8817
  161DOPC   H4X19476   1.877   2.434  12.706 -0.0883 -1.0401 -1.4692
  161DOPC   H4Y19477   1.811   2.584  12.685 -0.9760  0.2273  0.2610
  161DOPC   C3519478   1.695   2.431  12.573 -0.9909 -0.7017 -0.3424
  161DOPC   H5X19479   1.600   2.487  12.561 -0.2725  0.3332 -1.4164
  161DOPC   H5Y19480   1.673   2.322  12.572 -0.2204 -0.9166 -3.7280
  161DOPC   C3619481   1.765   2.462  12.443  0.3060  0.0585  0.5525
  161DOPC   H6X19482   1.785   2.571  12.427  0.6158 -0.2550 -1.4523
  161DOPC   H6Y19483   1.865   2.416  12.455 -0.0353 -0.3728  1.9194
  161DOPC   C3719484   1.706   2.384  12.326  0.3063 -0.5103 -0.6047
  161DOPC   H7X19485   1.692   2.281  12.365 -1.3890 -0.3832 -0.8177
  161DOPC   H7Y19486   1.607   2.429  12.306  0.2246  0.0637  0.9757
  161DOPC   C3819487   1.795   2.378  12.201  0.2695 -0.1926  0.1646
  161DOPC   H8X19488   1.895   2.346  12.238  1.6877 -0.4920 -3.4524
  161DOPC   H8Y19489   1.801   2.486  12.175  0.1961 -0.0869  0.5772
  161DOPC   C3919490   1.743   2.288  12.087  0.1601  0.4655 -0.2761
  161DOPC   H9X19491   1.708   2.192  12.129  1.1588  0.3174  0.2545
  161DOPC  C31019492   1.726   2.316  11.953 -0.2693 -0.1973 -0.3240
  161DOPC  H10X19493   1.672   2.247  11.886 -1.8510  2.8995 -2.5066
  161DOPC  C31119494   1.781   2.440  11.880 -0.1035 -0.0870  0.3832
  161DOPC  H11X19495   1.825   2.408  11.783  1.4173 -1.4840  1.4670
  161DOPC  H11Y19496   1.863   2.486  11.939  1.2667  0.9932 -2.2327
  161DOPC  C31219497   1.672   2.541  11.860 -0.8421  0.1234 -0.3630
  161DOPC  H12X19498   1.618   2.552  11.957 -1.1476  0.6316 -0.5836
  161DOPC  H12Y19499   1.598   2.492  11.793  0.5418 -0.8684 -1.2170
  161DOPC  C31319500   1.720   2.679  11.811  0.2577  0.6674  0.2400
  161DOPC  H13X19501   1.762   2.740  11.894  3.2738  1.0698 -1.4169
  161DOPC  H13Y19502   1.802   2.665  11.737 -1.3144  1.9287 -1.8850
  161DOPC  C31419503   1.604   2.752  11.738 -0.1328  0.5202  0.1369
  161DOPC  H14X19504   1.504   2.706  11.751  0.8906 -1.5902  1.1242
  161DOPC  H14Y19505   1.594   2.850  11.790  0.8584  0.6577  0.0888
  161DOPC  C31519506   1.624   2.760  11.587 -0.7200  0.1158  0.0328
  161DOPC  H15X19507   1.630   2.658  11.544  0.3120 -0.4265  1.3936
  161DOPC  H15Y19508   1.713   2.819  11.556 -0.5552  0.2004  0.6448
  161DOPC  C31619509   1.505   2.824  11.523  0.8299 -0.7876  0.8358
  161DOPC  H16X19510   1.419   2.753  11.522  1.0194 -1.0281 -0.1927
  161DOPC  H16Y19511   1.470   2.912  11.579 -0.8130 -0.3969 -0.7142
  161DOPC  C31719512   1.536   2.880  11.384  1.0933  0.6608 -0.4579
  161DOPC  H17X19513   1.583   2.981  11.377  1.7685  0.3125 -1.0998
  161DOPC  H17Y19514   1.599   2.809  11.326 -0.0485 -0.2814 -0.5662
  161DOPC  C31819515   1.402   2.894  11.308 -0.6408 -0.1757  0.0894
  161DOPC  H18X19516   1.332   2.952  11.373  0.7534 -0.4552  1.9250
  161DOPC  H18Y19517   1.410   2.955  11.216  1.2537  0.1299  0.4262
  161DOPC  H18Z19518   1.361   2.795  11.277 -2.4745  1.0154 -1.5398
  162DOPC     N19519   0.771   0.015  14.167  0.1735  0.3634 -0.8049
  162DOPC   C1219520   0.821   0.035  14.025 -0.3239  0.4719  0.3258
  162DOPC  H12A19521   0.918  -0.011  14.017 -0.4777  0.0572  0.8160
  162DOPC  H12B19522   0.831   0.139  13.998 -1.5516  0.1371 -1.6775
  162DOPC   C1319523   0.786  -0.132  14.206  0.3027  0.4306 -1.1877
  162DOPC  H13A19524   0.880  -0.176  14.177  0.7736  1.5939 -1.4419
  162DOPC  H13B19525   0.783  -0.136  14.314  0.8240  2.2840 -1.0772
  162DOPC  H13C19526   0.706  -0.194  14.167 -0.3417  1.5334 -1.6783
  162DOPC   C1419527   0.626   0.062  14.183  0.0439  0.4711  0.3578
  162DOPC  H14A19528   0.559  -0.002  14.128 -0.1736  0.2070  0.9243
  162DOPC  H14B19529   0.592   0.054  14.285 -2.9020 -1.0823 -0.6347
  162DOPC  H14C19530   0.609   0.162  14.146 -0.1154  0.0072 -0.8777
  162DOPC   C1519531   0.850   0.105  14.253 -0.7727 -0.6222  0.4138
  162DOPC  H15A19532   0.955   0.082  14.252 -0.3480  1.0351  1.5652
  162DOPC  H15B19533   0.819   0.097  14.357  0.6507 -1.1647  0.8215
  162DOPC  H15C19534   0.840   0.205  14.213  0.4905 -1.2099 -1.4565
  162DOPC   C1119535   0.732  -0.026  13.917  0.4620  0.2478  0.0212
  162DOPC  H11A19536   0.797  -0.038  13.827  1.6069 -0.4950  0.9242
  162DOPC  H11B19537   0.716  -0.133  13.941  1.7498 -0.5618 -2.4046
  162DOPC     P19538   0.605   0.176  13.816  0.3941  0.0323 -0.5815
  162DOPC   O1319539   0.725   0.254  13.857 -0.7824  0.2112 -0.0978
  162DOPC   O1419540   0.478   0.251  13.838 -0.7537  0.1088  0.2289
  162DOPC   O1219541   0.606   0.038  13.892 -0.0052  0.1409 -0.1176
  162DOPC   O1119542   0.616   0.137  13.658 -0.6302  0.0998  0.3215
  162DOPC    C119543   0.549   0.030  13.605  0.2752  0.0911  0.1291
  162DOPC    HA19544   0.444   0.027  13.640  0.2152  2.2476  0.2615
  162DOPC    HB19545   0.592  -0.062  13.652 -1.2354 -1.6909 -1.7692
  162DOPC    C219546   0.562   0.018  13.453  0.3474 -0.0121 -0.7974
  162DOPC    HS19547   0.494  -0.066  13.429 -0.3111  0.5500 -0.9252
  162DOPC   O2119548   0.698   0.001  13.404 -0.0769 -0.2848 -0.1783
  162DOPC   C2119549   0.719  -0.078  13.299  0.6864 -0.3229  0.0318
  162DOPC   O2219550   0.638  -0.154  13.252  0.2611  0.0822 -0.2698
  162DOPC   C2219551   0.856  -0.061  13.267 -0.6645 -0.8417 -0.2821
  162DOPC   H2R19552   0.912  -0.110  13.350  0.8574  1.4021  0.0939
  162DOPC   H2S19553   0.888   0.045  13.261  1.2260 -1.4503 -2.2295
  162DOPC    C319554   0.508   0.152  13.404  0.4811  0.3925 -0.2565
  162DOPC    HX19555   0.575   0.238  13.424 -1.1355  2.1479 -1.9548
  162DOPC    HY19556   0.408   0.163  13.452 -0.0015 -2.2399 -0.5428
  162DOPC   O3119557   0.492   0.153  13.260 -0.3388  0.1212  0.5100
  162DOPC   C3119558   0.381   0.202  13.207  0.2176 -0.6978  0.1810
  162DOPC   O3219559   0.295   0.258  13.273 -0.1352 -0.3991 -0.4536
  162DOPC   C3219560   0.376   0.171  13.052 -0.4018  0.2049 -1.0136
  162DOPC   H2X19561   0.438   0.246  12.998  1.6780 -1.5245 -1.1481
  162DOPC   H2Y19562   0.422   0.073  13.029 -1.4792 -0.3245 -0.9807
  162DOPC   C2319563   0.892  -0.138  13.137 -0.0266  0.5561  0.0491
  162DOPC   H3R19564   0.854  -0.242  13.139 -3.2320  1.5422 -1.8246
  162DOPC   H3S19565   1.003  -0.127  13.135  0.0606 -0.2360  0.6054
  162DOPC   C2419566   0.839  -0.060  13.019 -0.0078 -0.8657  0.1401
  162DOPC   H4R19567   0.895   0.036  13.018 -0.1239 -0.7979  0.1957
  162DOPC   H4S19568   0.734  -0.029  13.037  1.0487  2.5136  1.0702
  162DOPC   C2519569   0.863  -0.127  12.885  0.1266  0.4992  0.8626
  162DOPC   H5R19570   0.817  -0.069  12.802 -0.3626  0.6180  1.2126
  162DOPC   H5S19571   0.805  -0.222  12.883  2.2641 -0.9058 -2.3208
  162DOPC   C2619572   1.008  -0.153  12.845  0.6285 -0.3156 -0.5957
  162DOPC   H6R19573   1.043  -0.221  12.926 -0.1003  0.3130  0.2761
  162DOPC   H6S19574   1.063  -0.056  12.847  1.4323 -0.7744  0.1861
  162DOPC   C2719575   1.030  -0.225  12.716  0.4993  0.4297 -0.2544
  162DOPC   H7R19576   0.981  -0.325  12.723  1.1129  0.0999 -0.6411
  162DOPC   H7S19577   1.140  -0.226  12.704  0.7487  0.8136  1.7448
  162DOPC   C2819578   0.962  -0.160  12.592 -0.1605 -0.1577 -0.3516
  162DOPC   H8R19579   0.853  -0.155  12.611  0.1876  0.1189  1.8802
  162DOPC   H8S19580   0.980  -0.230  12.507  0.7751  2.0270 -2.0423
  162DOPC   C2919581   1.015  -0.023  12.566  0.2131  0.7895  0.0563
  162DOPC   H9R19582   1.016   0.052  12.647 -2.2691  0.2239  0.6846
  162DOPC  C21019583   1.040   0.017  12.443  0.3517  0.0946 -0.6098
  162DOPC  H10R19584   1.068   0.121  12.425  0.3574  0.2016 -0.0035
  162DOPC  C21119585   1.035  -0.059  12.319  0.8612 -0.0235  0.1551
  162DOPC  H11R19586   0.951  -0.132  12.328  0.4090  0.6927  2.9440
  162DOPC  H11S19587   1.128  -0.116  12.297  1.7425  1.0608  0.9569
  162DOPC  C21219588   1.002   0.030  12.198 -0.2911 -0.9965  0.0506
  162DOPC  H12R19589   1.079   0.110  12.192  0.9307 -2.1025  0.4405
  162DOPC  H12S19590   0.898   0.065  12.211 -0.3977 -1.2693 -0.0670
  162DOPC  C21319591   1.003  -0.055  12.073  0.0611  0.4749  0.1564
  162DOPC  H13R19592   0.921  -0.129  12.086 -0.2060  0.8642  0.7085
  162DOPC  H13S19593   1.099  -0.109  12.060 -0.6459 -0.1818 -3.3903
  162DOPC  C21419594   0.963   0.023  11.947 -0.0217  0.7321 -0.9305
  162DOPC  H14R19595   1.043   0.090  11.909  1.0235 -0.0362 -0.1182
  162DOPC  H14S19596   0.875   0.085  11.976  0.1445  1.2423 -1.5129
  162DOPC  C21519597   0.913  -0.065  11.833  0.3454 -0.4048  0.2055
  162DOPC  H15R19598   0.900  -0.007  11.739 -0.7908  1.3446  1.3735
  162DOPC  H15S19599   0.811  -0.098  11.859  0.1942  0.3460  0.6083
  162DOPC  C21619600   0.990  -0.197  11.813 -0.1266  0.0987 -0.0336
  162DOPC  H16R19601   0.972  -0.268  11.896 -0.2216 -1.7939 -1.5995
  162DOPC  H16S19602   1.094  -0.161  11.799 -0.0758 -0.2929 -0.7278
  162DOPC  C21719603   0.949  -0.266  11.680 -0.0532  0.4342 -0.8382
  162DOPC  H17R19604   0.943  -0.189  11.600  1.7954  0.5773 -0.8833
  162DOPC  H17S19605   0.847  -0.307  11.697  1.0943 -1.7201  1.4083
  162DOPC  C21819606   1.039  -0.383  11.627  0.1007 -0.0696 -0.6989
  162DOPC  H18R19607   1.003  -0.418  11.528  2.2061  0.7060 -1.8066
  162DOPC  H18S19608   1.040  -0.456  11.711  0.7413  0.3394 -0.3499
  162DOPC  H18T19609   1.139  -0.344  11.600 -1.4659  3.3476 -2.1297
  162DOPC   C3319610   0.229   0.176  13.002 -0.4086 -0.4817 -0.2096
  162DOPC   H3X19611   0.167   0.265  13.023  0.4486 -0.0764  0.7299
  162DOPC   H3Y19612   0.172   0.091  13.045 -1.5914  0.1494 -0.5114
  162DOPC   C3419613   0.230   0.179  12.845  0.1233 -0.1448  0.7271
  162DOPC   H4X19614   0.269   0.082  12.806  1.7880  1.0533 -0.7709
  162DOPC   H4Y19615   0.296   0.264  12.818 -0.4944  0.3996  0.9192
  162DOPC   C3519616   0.091   0.198  12.779 -0.4113  0.0073 -0.5562
  162DOPC   H5X19617   0.057   0.297  12.817  1.1188 -0.3574  2.0100
  162DOPC   H5Y19618   0.016   0.131  12.826 -0.8003  1.0228  0.3130
  162DOPC   C3619619   0.086   0.185  12.630 -0.3043 -0.1050  0.2034
  162DOPC   H6X19620   0.130   0.091  12.588 -1.8041 -0.5084 -0.5455
  162DOPC   H6Y19621  -0.017   0.178  12.587 -0.2474 -0.2057  0.0820
  162DOPC   C3719622   0.162   0.298  12.560 -0.9190 -0.3199  0.7088
  162DOPC   H7X19623   0.102   0.391  12.550  0.5039  0.3611 -4.4331
  162DOPC   H7Y19624   0.263   0.326  12.595  0.0472 -0.9641 -1.4108
  162DOPC   C3819625   0.179   0.278  12.404  0.5538  0.7964  0.3821
  162DOPC   H8X19626   0.221   0.176  12.389 -1.2684 -0.3153  2.3253
  162DOPC   H8Y19627   0.259   0.346  12.367  0.7648  1.0696  1.3190
  162DOPC   C3919628   0.048   0.292  12.326 -0.0487 -0.0098 -0.3148
  162DOPC   H9X19629  -0.037   0.249  12.381  1.0264 -0.2106  1.2548
  162DOPC  C31019630   0.029   0.350  12.211  0.4520  0.1192  0.3760
  162DOPC  H10X19631  -0.071   0.341  12.165  0.7340  3.0294 -1.0611
  162DOPC  C31119632   0.134   0.399  12.113 -0.4155 -0.6191 -0.5717
  162DOPC  H11X19633   0.207   0.320  12.084 -1.0431 -1.5508  0.3483
  162DOPC  H11Y19634   0.198   0.475  12.162  2.0361 -1.7410 -1.8486
  162DOPC  C31219635   0.076   0.461  11.987 -0.2595  0.5721 -0.3773
  162DOPC  H12X19636  -0.009   0.527  12.016 -1.0565 -0.1903 -0.9281
  162DOPC  H12Y19637   0.037   0.378  11.924 -0.7632 -0.1092  0.7998
  162DOPC  C31319638   0.182   0.537  11.896  0.3680 -0.3580  0.0348
  162DOPC  H13X19639   0.221   0.614  11.965  0.2673 -0.8631  0.6718
  162DOPC  H13Y19640   0.264   0.464  11.875  0.3335 -1.2043  2.4312
  162DOPC  C31419641   0.110   0.587  11.767  0.7023 -0.0722  0.2689
  162DOPC  H14X19642   0.064   0.502  11.712  2.4947  0.3924 -2.0683
  162DOPC  H14Y19643   0.018   0.645  11.792 -0.1896 -1.3667  0.0986
  162DOPC  C31519644   0.204   0.658  11.675  0.6835  0.4979  0.5918
  162DOPC  H15X19645   0.286   0.585  11.655 -0.5216 -1.2366  1.7725
  162DOPC  H15Y19646   0.233   0.757  11.716 -1.7112  2.3081 -1.7179
  162DOPC  C31619647   0.142   0.681  11.533  0.3739  0.1326 -0.4305
  162DOPC  H16X19648   0.093   0.592  11.488  1.6506 -0.4156 -0.7951
  162DOPC  H16Y19649   0.073   0.765  11.554  2.7512  1.5605  2.5101
  162DOPC  C31719650   0.253   0.736  11.439  0.4497  0.4171 -0.6661
  162DOPC  H17X19651   0.309   0.814  11.494 -0.4952  0.1921  0.6539
  162DOPC  H17Y19652   0.326   0.661  11.401  1.3275  1.4740 -1.1147
  162DOPC  C31819653   0.196   0.796  11.311  0.0052 -0.5665 -0.3856
  162DOPC  H18X19654   0.125   0.721  11.270  1.0504 -1.8300  0.0365
  162DOPC  H18Y19655   0.143   0.891  11.334  2.4393  1.2887 -1.9700
  162DOPC  H18Z19656   0.273   0.814  11.234  1.0725 -0.5097  0.6578
  163DOPC     N19657   6.640   4.545  14.317  0.6840 -0.0827  0.3577
  163DOPC   C1219658   6.669   4.591  14.168 -0.7353  0.4598 -0.4938
  163DOPC  H12A19659   6.777   4.603  14.164 -0.3930 -1.0565  1.9170
  163DOPC  H12B19660   6.626   4.688  14.150  0.3348  1.3267  1.3725
  163DOPC   C1319661   6.495   4.526  14.354 -0.3832  0.2889  0.2657
  163DOPC  H13A19662   6.476   4.480  14.449 -1.7603  3.3174  1.5981
  163DOPC  H13B19663   6.435   4.616  14.350  1.4709  1.5259 -0.9253
  163DOPC  H13C19664   6.447   4.457  14.285  0.3626 -0.3356  0.3563
  163DOPC   C1419665   6.694   4.642  14.415 -0.5368  0.3163  0.4347
  163DOPC  H14A19666   6.642   4.620  14.507 -0.7900 -1.2725 -0.0500
  163DOPC  H14B19667   6.798   4.616  14.426 -0.8615 -0.8020  0.9879
  163DOPC  H14C19668   6.676   4.741  14.375  0.9515  0.1991 -0.6233
  163DOPC   C1519669   6.707   4.411  14.339  0.0861  0.3701  0.1672
  163DOPC  H15A19670   6.659   4.329  14.287  0.4564 -0.7723  1.5562
  163DOPC  H15B19671   6.702   4.397  14.446 -0.9750 -0.1185  0.0669
  163DOPC  H15C19672   6.812   4.411  14.315  0.4262 -2.1003  1.3394
  163DOPC   C1119673   6.636   4.494  14.056  0.2338  0.9625  0.1598
  163DOPC  H11A19674   6.671   4.531  13.957  0.8435  2.6148  0.9586
  163DOPC  H11B19675   6.700   4.406  14.079 -1.4230 -0.2410  0.3355
  163DOPC     P19676   6.381   4.540  14.012 -0.0989  0.0120 -0.1949
  163DOPC   O1319677   6.407   4.688  14.031  0.5628 -0.2030 -0.5215
  163DOPC   O1419678   6.255   4.487  14.075 -0.2612  0.1622  0.2256
  163DOPC   O1219679   6.503   4.454  14.064  0.3365 -0.1560  0.5610
  163DOPC   O1119680   6.369   4.516  13.859 -0.2913  0.1729 -0.3017
  163DOPC    C119681   6.385   4.379  13.825 -0.4030  0.0938 -0.4081
  163DOPC    HA19682   6.313   4.310  13.874 -1.4458  1.3902 -0.0643
  163DOPC    HB19683   6.486   4.346  13.859 -0.7126 -0.0359  0.4157
  163DOPC    C219684   6.386   4.359  13.679  0.6428  0.0858  0.2753
  163DOPC    HS19685   6.388   4.253  13.647  0.2954  0.5507 -1.4129
  163DOPC   O2119686   6.492   4.435  13.614  0.1805 -0.8472 -0.0673
  163DOPC   C2119687   6.611   4.392  13.629 -0.6562  0.2024 -0.4526
  163DOPC   O2219688   6.652   4.282  13.659  0.4221  0.6197  0.0888
  163DOPC   C2219689   6.706   4.516  13.606 -0.0919  0.2203 -0.3319
  163DOPC   H2R19690   6.813   4.486  13.614 -0.9311 -2.6970  2.1544
  163DOPC   H2S19691   6.687   4.585  13.691  0.2863  0.3990 -0.3922
  163DOPC    C319692   6.242   4.400  13.628  0.4960  0.2683  0.1230
  163DOPC    HX19693   6.205   4.492  13.677  1.4702  0.7164  0.0413
  163DOPC    HY19694   6.172   4.318  13.656  1.0751 -1.4849 -2.9818
  163DOPC   O3119695   6.235   4.408  13.485 -0.3111  0.3635  0.3470
  163DOPC   C3119696   6.237   4.527  13.428  0.6176  0.0871 -0.1678
  163DOPC   O3219697   6.246   4.634  13.484 -0.0833 -0.3312 -0.6361
  163DOPC   C3219698   6.236   4.507  13.278 -0.3727  0.4167  0.2606
  163DOPC   H2X19699   6.303   4.421  13.257 -0.3053  0.0834  1.7338
  163DOPC   H2Y19700   6.137   4.474  13.239  0.4033  0.6152 -2.0602
  163DOPC   C2319701   6.677   4.591  13.475  1.0583 -0.2916  0.3443
  163DOPC   H3R19702   6.742   4.681  13.468  2.1093 -1.1208 -0.8816
  163DOPC   H3S19703   6.579   4.643  13.467  0.3556 -1.6788 -0.3673
  163DOPC   C2419704   6.717   4.513  13.351 -0.1427 -0.5439  0.3161
  163DOPC   H4R19705   6.642   4.441  13.313  1.4241 -0.9338 -2.3121
  163DOPC   H4S19706   6.803   4.453  13.388  0.8923 -0.0899 -1.2367
  163DOPC   C2519707   6.766   4.597  13.235 -0.0948  0.3173  0.6215
  163DOPC   H5R19708   6.827   4.679  13.277 -0.3893  0.3667  0.9552
  163DOPC   H5S19709   6.694   4.647  13.167  2.7564  0.9351 -2.1822
  163DOPC   C2619710   6.850   4.522  13.135  0.3389  0.3949 -0.5403
  163DOPC   H6R19711   6.806   4.424  13.106  1.6800  0.1876 -2.0725
  163DOPC   H6S19712   6.947   4.488  13.178 -0.2963  0.3707  0.9295
  163DOPC   C2719713   6.875   4.607  13.003 -0.0260  0.4960  0.1882
  163DOPC   H7R19714   6.893   4.708  13.045 -0.4501  0.3793  0.6558
  163DOPC   H7S19715   6.779   4.600  12.947  0.1810 -3.0701  0.0117
  163DOPC   C2819716   6.981   4.550  12.916 -0.2762 -0.2451  0.0151
  163DOPC   H8R19717   6.945   4.449  12.883 -0.3325 -0.4788  0.7754
  163DOPC   H8S19718   7.073   4.526  12.973  0.8185  2.3123 -0.5603
  163DOPC   C2919719   7.025   4.639  12.800  0.1690  0.5077  0.0371
  163DOPC   H9R19720   7.081   4.721  12.848 -0.0191  0.3822  0.4783
  163DOPC  C21019721   7.017   4.635  12.666 -0.1809  0.2441  0.2804
  163DOPC  H10R19722   7.088   4.699  12.612 -1.2613  0.7977 -0.5417
  163DOPC  C21119723   6.958   4.518  12.592  0.6651 -0.0827 -0.0264
  163DOPC  H11R19724   6.871   4.473  12.645  2.1155 -1.3565  1.4050
  163DOPC  H11S19725   7.030   4.432  12.592 -0.6797 -1.2385  0.0116
  163DOPC  C21219726   6.898   4.550  12.451  0.2878  0.3457 -0.9545
  163DOPC  H12R19727   6.823   4.631  12.454 -1.5047 -1.2680 -0.6396
  163DOPC  H12S19728   6.847   4.453  12.429  2.1073 -0.9876  0.3587
  163DOPC  C21319729   6.988   4.593  12.336 -0.0189  0.2646 -0.2740
  163DOPC  H13R19730   7.085   4.539  12.336 -0.7865 -1.1547 -0.2008
  163DOPC  H13S19731   7.022   4.698  12.352 -1.3922  0.7843 -0.5832
  163DOPC  C21419732   6.926   4.595  12.193 -0.0404  0.3524 -0.3362
  163DOPC  H14R19733   6.844   4.669  12.190 -0.7533 -0.3311  1.1280
  163DOPC  H14S19734   6.888   4.495  12.162 -0.0865  0.2948 -0.1001
  163DOPC  C21519735   7.025   4.623  12.083 -0.8901 -0.2013  0.7848
  163DOPC  H15R19736   7.087   4.531  12.071  0.7942  1.0303 -0.6368
  163DOPC  H15S19737   7.104   4.698  12.107  1.3872 -1.6907 -1.4867
  163DOPC  C21619738   6.953   4.668  11.954  0.1226 -0.1710 -0.2833
  163DOPC  H16R19739   7.008   4.752  11.906  1.4294  1.8635  4.2593
  163DOPC  H16S19740   6.858   4.718  11.985 -1.6491 -2.4590 -1.6932
  163DOPC  C21719741   6.916   4.562  11.851 -0.5306 -0.1356  0.0647
  163DOPC  H17R19742   7.004   4.499  11.827 -1.2680 -1.5391  0.9214
  163DOPC  H17S19743   6.879   4.629  11.770 -0.4001 -0.6849 -0.4538
  163DOPC  C21819744   6.793   4.478  11.897 -1.2357 -0.7943 -0.0671
  163DOPC  H18R19745   6.761   4.410  11.815 -2.2925  0.0369 -0.3571
  163DOPC  H18S19746   6.710   4.543  11.931 -1.7895 -1.1720 -0.6672
  163DOPC  H18T19747   6.826   4.408  11.977  2.2461 -0.3793 -0.9738
  163DOPC   C3319748   6.289   4.633  13.207 -0.8346  0.2401 -0.2262
  163DOPC   H3X19749   6.392   4.656  13.243 -0.9841 -1.0426  1.1505
  163DOPC   H3Y19750   6.211   4.711  13.213 -2.1682 -1.0454 -0.3256
  163DOPC   C3419751   6.315   4.613  13.057 -0.0979  0.5154  0.2636
  163DOPC   H4X19752   6.227   4.562  13.013 -0.0657  0.0716  0.6967
  163DOPC   H4Y19753   6.405   4.549  13.039 -0.3763 -0.1120  0.9987
  163DOPC   C3519754   6.336   4.749  12.986 -0.1378  0.2442 -0.4660
  163DOPC   H5X19755   6.427   4.782  13.041  0.1388 -0.9182 -0.1851
  163DOPC   H5Y19756   6.250   4.813  13.015 -0.0000  0.8194 -1.3302
  163DOPC   C3619757   6.357   4.747  12.833 -0.1004  0.3904  0.1961
  163DOPC   H6X19758   6.265   4.693  12.802 -0.1791 -0.0065  1.0990
  163DOPC   H6Y19759   6.354   4.854  12.802  0.0619 -0.2901 -2.4044
  163DOPC   C3719760   6.501   4.693  12.806  0.0917 -0.5311 -0.0731
  163DOPC   H7X19761   6.575   4.766  12.842 -0.7954  0.3107  0.0876
  163DOPC   H7Y19762   6.515   4.600  12.866 -0.7893  0.2531  1.4091
  163DOPC   C3819763   6.530   4.671  12.650  0.0324 -0.2092 -0.7822
  163DOPC   H8X19764   6.639   4.651  12.649 -0.1023 -0.9736 -1.1043
  163DOPC   H8Y19765   6.511   4.760  12.585  0.3394  0.6792  0.3163
  163DOPC   C3919766   6.447   4.555  12.587  0.9927 -0.1720 -0.6288
  163DOPC   H9X19767   6.391   4.490  12.656 -0.1543 -3.3258 -4.1761
  163DOPC  C31019768   6.454   4.518  12.462  0.0081  0.5880 -0.0845
  163DOPC  H10X19769   6.396   4.429  12.431  0.0710  0.1339  1.0425
  163DOPC  C31119770   6.538   4.573  12.341 -0.1270  0.5522 -0.6468
  163DOPC  H11X19771   6.615   4.500  12.309  1.7218  2.4512 -0.7912
  163DOPC  H11Y19772   6.596   4.664  12.368  0.3740  0.5598 -1.6944
  163DOPC  C31219773   6.456   4.604  12.213 -0.6316 -0.2792 -0.1238
  163DOPC  H12X19774   6.528   4.662  12.151 -0.5804  1.1148  1.1721
  163DOPC  H12Y19775   6.364   4.659  12.243  0.3931  0.6778  1.3876
  163DOPC  C31319776   6.409   4.478  12.136 -0.4853 -1.0533 -1.0094
  163DOPC  H13X19777   6.480   4.395  12.154 -0.5917 -1.1763 -1.1555
  163DOPC  H13Y19778   6.313   4.444  12.181  0.8361 -1.0659  2.0448
  163DOPC  C31419779   6.394   4.494  11.987  0.0257  0.3043  0.5446
  163DOPC  H14X19780   6.317   4.571  11.964 -0.6811  0.7349  3.9146
  163DOPC  H14Y19781   6.491   4.535  11.952 -0.7402  1.5043 -0.2492
  163DOPC  C31519782   6.371   4.372  11.897  0.2004  0.3544 -0.1224
  163DOPC  H15X19783   6.275   4.325  11.928 -0.5576  1.4633 -0.7369
  163DOPC  H15Y19784   6.457   4.302  11.904 -1.1687 -1.5807 -1.4285
  163DOPC  C31619785   6.354   4.413  11.755 -0.6112  0.1267  0.2044
  163DOPC  H16X19786   6.354   4.323  11.690 -0.2526  1.5495 -1.8847
  163DOPC  H16Y19787   6.261   4.472  11.740 -0.6259 -0.2481 -1.4628
  163DOPC  C31719788   6.473   4.475  11.683 -0.8414 -0.5668 -0.9071
  163DOPC  H17X19789   6.501   4.572  11.731 -0.2736 -1.7130  1.1803
  163DOPC  H17Y19790   6.567   4.418  11.694  1.0803  2.2918 -1.3865
  163DOPC  C31819791   6.442   4.507  11.541  0.5952  0.2295  0.3388
  163DOPC  H18X19792   6.528   4.545  11.483 -0.6139 -1.1993 -2.6162
  163DOPC  H18Y19793   6.405   4.413  11.494  1.6314  0.2514 -0.5798
  163DOPC  H18Z19794   6.357   4.578  11.538 -2.3153 -2.9022  1.9315
  164DOPC     N19795   1.492   2.623  13.879  0.3185 -0.4739  0.0189
  164DOPC   C1219796   1.345   2.658  13.892 -0.0266 -0.4176  0.2075
  164DOPC  H12A19797   1.339   2.754  13.940  0.5663  1.7502 -3.6342
  164DOPC  H12B19798   1.303   2.587  13.962 -0.8868  0.9685  1.1402
  164DOPC   C1319799   1.554   2.601  14.012 -0.3438 -0.3944  0.2585
  164DOPC  H13A19800   1.659   2.577  13.997 -0.3284  0.5916 -1.4472
  164DOPC  H13B19801   1.543   2.684  14.080  1.8191  0.0492  0.1554
  164DOPC  H13C19802   1.501   2.524  14.066 -0.7884  0.2343  0.7290
  164DOPC   C1419803   1.556   2.729  13.805 -0.5388 -0.3554 -0.1375
  164DOPC  H14A19804   1.514   2.725  13.706 -0.8453 -1.7184  0.0271
  164DOPC  H14B19805   1.555   2.823  13.858 -0.4079 -0.0978 -0.5857
  164DOPC  H14C19806   1.662   2.711  13.794 -0.5843 -0.5793 -0.2264
  164DOPC   C1519807   1.506   2.494  13.798 -0.2128  0.4374 -0.3635
  164DOPC  H15A19808   1.478   2.405  13.852  2.9595 -1.1668 -1.1018
  164DOPC  H15B19809   1.608   2.476  13.764  0.0852  1.3495  0.0288
  164DOPC  H15C19810   1.462   2.502  13.700 -0.5274 -0.8138 -0.3411
  164DOPC   C1119811   1.253   2.667  13.771  0.0012  0.1288  0.2805
  164DOPC  H11A19812   1.250   2.576  13.707 -2.6729  1.4466 -1.6831
  164DOPC  H11B19813   1.146   2.683  13.795 -0.0341  3.6614 -1.5809
  164DOPC     P19814   1.226   2.919  13.712  0.0034 -0.0981  0.4078
  164DOPC   O1319815   1.265   3.003  13.599 -0.0024  0.0583 -0.0819
  164DOPC   O1419816   1.281   2.957  13.842 -0.3518 -0.0526  0.2170
  164DOPC   O1219817   1.285   2.772  13.682 -0.6925 -0.5618  0.2872
  164DOPC   O1119818   1.074   2.913  13.726 -0.1754  0.0376  1.3912
  164DOPC    C119819   0.981   2.865  13.632  0.2598  0.3755  0.1680
  164DOPC    HA19820   0.906   2.800  13.681  1.2819 -1.0609 -0.1156
  164DOPC    HB19821   1.024   2.797  13.555  0.3473 -3.4005  3.2462
  164DOPC    C219822   0.921   2.990  13.554  0.5818 -0.0811 -0.2279
  164DOPC    HS19823   0.827   2.956  13.505  0.6163 -1.1099  0.4043
  164DOPC   O2119824   1.013   3.048  13.462 -0.1874 -0.3965 -0.1349
  164DOPC   C2119825   1.038   2.984  13.350 -0.3004 -0.5627  0.4272
  164DOPC   O2219826   0.968   2.891  13.310  0.1732 -1.1443  0.0066
  164DOPC   C2219827   1.163   3.046  13.282  0.5261 -0.6038  0.3183
  164DOPC   H2R19828   1.180   2.995  13.184 -1.5438  1.7415 -1.3910
  164DOPC   H2S19829   1.244   3.028  13.355  0.2035 -0.5108  0.7030
  164DOPC    C319830   0.865   3.097  13.652  0.0519  0.1612 -0.3222
  164DOPC    HX19831   0.954   3.147  13.698  0.0442 -0.1983  0.0851
  164DOPC    HY19832   0.810   3.038  13.729  0.1345 -0.1538 -0.5040
  164DOPC   O3119833   0.775   3.196  13.601 -0.1758 -0.4383  0.2341
  164DOPC   C3119834   0.838   3.301  13.543 -0.4638 -0.1823  0.2400
  164DOPC   O3219835   0.956   3.338  13.559  0.2557  1.1554  0.2427
  164DOPC   C3219836   0.741   3.390  13.483  0.2427 -0.2361  0.2156
  164DOPC   H2X19837   0.640   3.344  13.486  0.9432 -1.7968  1.5215
  164DOPC   H2Y19838   0.736   3.482  13.544 -0.6356  0.4918 -0.9035
  164DOPC   C2319839   1.139   3.193  13.243  0.3613 -0.0966  0.4739
  164DOPC   H3R19840   1.239   3.239  13.256  0.8617 -0.6232 -1.2667
  164DOPC   H3S19841   1.057   3.233  13.306 -0.3617 -0.3621 -0.2823
  164DOPC   C2419842   1.083   3.216  13.102 -0.5626  0.3484  0.0067
  164DOPC   H4R19843   1.065   3.324  13.082 -1.4563  0.0787 -0.6750
  164DOPC   H4S19844   0.984   3.168  13.094 -0.5676  0.3365  0.1324
  164DOPC   C2519845   1.173   3.164  12.979  0.1076 -0.3153 -0.1697
  164DOPC   H5R19846   1.187   3.055  12.995 -1.6784 -0.5925 -0.2914
  164DOPC   H5S19847   1.273   3.211  12.990  0.8289 -1.8085 -0.0880
  164DOPC   C2619848   1.118   3.175  12.838  0.6452  0.1842  0.5758
  164DOPC   H6R19849   1.092   3.278  12.805 -1.3335 -0.5263 -0.2077
  164DOPC   H6S19850   1.023   3.118  12.833 -0.5413  2.1576 -2.2196
  164DOPC   C2719851   1.212   3.124  12.729 -0.2827 -0.1480  0.9987
  164DOPC   H7R19852   1.240   3.018  12.741 -1.5828 -0.7248 -0.6327
  164DOPC   H7S19853   1.309   3.177  12.718 -0.2914 -0.2540  0.3598
  164DOPC   C2819854   1.134   3.134  12.590 -0.3554  0.4366 -0.2097
  164DOPC   H8R19855   1.118   3.244  12.581 -3.5512  0.0737 -0.0672
  164DOPC   H8S19856   1.030   3.102  12.610 -0.2198  1.4504  2.4911
  164DOPC   C2919857   1.197   3.082  12.471 -0.6243 -0.1673 -0.3615
  164DOPC   H9R19858   1.307   3.084  12.470 -0.5731 -1.5877 -2.0865
  164DOPC  C21019859   1.143   3.010  12.378  0.0061  0.2337 -0.2885
  164DOPC  H10R19860   1.208   2.960  12.305 -1.1102  0.6035 -1.5660
  164DOPC  C21119861   0.997   2.980  12.348  0.2542  0.0275  0.3016
  164DOPC  H11R19862   0.942   2.973  12.444 -0.1106 -1.1321  0.0263
  164DOPC  H11S19863   0.980   2.881  12.300  0.8763 -0.1881  0.5296
  164DOPC  C21219864   0.918   3.074  12.254  0.2613  0.2105 -0.6190
  164DOPC  H12R19865   0.915   3.176  12.298 -3.6218  0.2525 -0.6051
  164DOPC  H12S19866   0.808   3.057  12.255  0.3680 -0.9591 -2.7785
  164DOPC  C21319867   0.972   3.090  12.113 -0.4746 -0.4271  0.6365
  164DOPC  H13R19868   1.071   3.139  12.107 -1.2952  1.5254  2.0141
  164DOPC  H13S19869   0.897   3.155  12.063  0.3593 -0.1728 -0.3081
  164DOPC  C21419870   0.979   2.955  12.036 -0.2742  0.1361  0.1291
  164DOPC  H14R19871   0.890   2.890  12.048 -0.9792  1.2679  1.3396
  164DOPC  H14S19872   1.058   2.890  12.079 -0.1676 -1.4538 -2.2683
  164DOPC  C21519873   1.010   2.967  11.886  0.2581  0.3402 -1.0097
  164DOPC  H15R19874   0.919   3.013  11.842  0.8985  2.5937 -0.1628
  164DOPC  H15S19875   1.033   2.866  11.846 -0.0173 -0.8423  1.6102
  164DOPC  C21619876   1.125   3.059  11.861  0.2526 -0.7268 -0.3700
  164DOPC  H16R19877   1.195   3.051  11.946  0.3370 -0.9971 -0.4656
  164DOPC  H16S19878   1.085   3.162  11.875 -0.9115 -1.3778  1.3954
  164DOPC  C21719879   1.182   3.050  11.718  0.4240  0.4870 -0.4467
  164DOPC  H17R19880   1.217   2.944  11.718  3.0019  1.2673  0.9086
  164DOPC  H17S19881   1.268   3.114  11.689  0.5588  0.6307  0.2616
  164DOPC  C21819882   1.079   3.053  11.601  0.0217  0.2598 -0.2914
  164DOPC  H18R19883   1.025   3.150  11.611 -1.0185 -0.0152 -2.7040
  164DOPC  H18S19884   1.008   2.970  11.617  1.5194 -1.4236 -1.8824
  164DOPC  H18T19885   1.139   3.041  11.508  1.8143 -2.0034  1.0557
  164DOPC   C3319886   0.790   3.432  13.344 -0.2342  0.4093 -0.5469
  164DOPC   H3X19887   0.899   3.442  13.325 -0.1344  1.7333  0.5405
  164DOPC   H3Y19888   0.764   3.539  13.326  1.1565  0.9859  0.6562
  164DOPC   C3419889   0.737   3.337  13.239 -0.2972 -0.0049 -0.2089
  164DOPC   H4X19890   0.630   3.313  13.254 -0.0110 -0.9457  0.4742
  164DOPC   H4Y19891   0.790   3.241  13.258 -1.4646 -0.6391 -0.0436
  164DOPC   C3519892   0.772   3.371  13.092 -0.0813 -0.5728  0.1767
  164DOPC   H5X19893   0.881   3.391  13.086  0.0935 -1.4905  0.0335
  164DOPC   H5Y19894   0.716   3.462  13.061 -3.1279 -2.3615 -0.0021
  164DOPC   C3619895   0.729   3.263  12.996  0.4145 -0.2555  0.2002
  164DOPC   H6X19896   0.777   3.170  13.032  0.0178 -1.1216 -1.4030
  164DOPC   H6Y19897   0.620   3.249  13.013  0.6039 -1.5577  0.4318
  164DOPC   C3719898   0.766   3.294  12.854  0.6089 -0.4169  0.0436
  164DOPC   H7X19899   0.706   3.385  12.829  0.8414 -0.1637  0.4055
  164DOPC   H7Y19900   0.875   3.313  12.859  0.5968 -0.0653 -0.7749
  164DOPC   C3819901   0.738   3.199  12.736 -0.6548  0.4515  0.2623
  164DOPC   H8X19902   0.802   3.109  12.748  0.0803  1.2537  3.0622
  164DOPC   H8Y19903   0.760   3.262  12.647 -2.2794  0.1610 -0.4007
  164DOPC   C3919904   0.593   3.162  12.722  0.4272 -0.7242 -0.1314
  164DOPC   H9X19905   0.547   3.143  12.820 -1.2961 -2.9068 -1.2792
  164DOPC  C31019906   0.531   3.120  12.616 -0.5554 -0.1500  0.2387
  164DOPC  H10X19907   0.425   3.093  12.625 -0.2332 -1.6120 -0.1118
  164DOPC  C31119908   0.582   3.107  12.477  0.2821  0.0276  0.3672
  164DOPC  H11X19909   0.567   3.002  12.442  1.0292  0.2936 -0.8370
  164DOPC  H11Y19910   0.692   3.118  12.464  0.1549 -0.3235 -1.3495
  164DOPC  C31219911   0.506   3.207  12.377  0.4682  0.3936  0.5501
  164DOPC  H12X19912   0.567   3.299  12.391  0.0219  0.8104 -0.1405
  164DOPC  H12Y19913   0.399   3.216  12.405  0.9857  1.5501  2.3331
  164DOPC  C31319914   0.521   3.162  12.231 -0.0842 -0.1827  0.1133
  164DOPC  H13X19915   0.627   3.141  12.205  0.0829  0.7925 -0.0392
  164DOPC  H13Y19916   0.465   3.070  12.207 -1.0034  0.1859  0.7908
  164DOPC  C31419917   0.500   3.277  12.131 -0.1278  0.5131 -0.5084
  164DOPC  H14X19918   0.587   3.343  12.151  0.4221  0.2453 -1.9660
  164DOPC  H14Y19919   0.405   3.329  12.160 -1.1595 -0.8439 -1.3369
  164DOPC  C31519920   0.519   3.244  11.984 -0.1401  0.1791 -0.2997
  164DOPC  H15X19921   0.466   3.149  11.959 -1.1180  0.3000  1.1875
  164DOPC  H15Y19922   0.626   3.218  11.973  0.0791  0.0726  1.6525
  164DOPC  C31619923   0.484   3.352  11.882  0.2176 -0.2628  0.2183
  164DOPC  H16X19924   0.375   3.370  11.877  0.7869  3.9448 -0.3329
  164DOPC  H16Y19925   0.526   3.453  11.900 -2.1082  0.7193  0.4764
  164DOPC  C31719926   0.526   3.329  11.739  0.1513  0.1488 -0.0675
  164DOPC  H17X19927   0.629   3.288  11.737 -0.4097 -1.4060 -2.8238
  164DOPC  H17Y19928   0.460   3.249  11.698  1.1397 -0.9038  0.3394
  164DOPC  C31819929   0.516   3.456  11.646 -0.2824  0.9069  0.0253
  164DOPC  H18X19930   0.409   3.488  11.652 -0.8247 -0.9429  0.9154
  164DOPC  H18Y19931   0.584   3.540  11.671 -0.5378  1.6489 -1.6501
  164DOPC  H18Z19932   0.547   3.434  11.542 -1.9655  2.1820 -0.7938
  165DOPC     N19933   4.685   0.969  13.917 -0.2151 -0.7191 -0.6817
  165DOPC   C1219934   4.656   1.050  13.793  0.5029  0.4312  0.1761
  165DOPC  H12A19935   4.682   1.154  13.806 -0.8185  0.6956  0.8738
  165DOPC  H12B19936   4.550   1.046  13.774  0.3358  1.9690  0.5912
  165DOPC   C1319937   4.832   0.979  13.953  0.3272 -0.0423  0.0347
  165DOPC  H13A19938   4.865   1.081  13.939 -0.7581  0.1477 -1.4357
  165DOPC  H13B19939   4.841   0.952  14.057  2.0092  1.3421  0.2823
  165DOPC  H13C19940   4.881   0.912  13.884  2.1816  1.2241  0.0452
  165DOPC   C1419941   4.638   0.829  13.915  0.1570  0.2326 -0.5097
  165DOPC  H14A19942   4.650   0.784  14.012  1.6541  0.8999 -0.3510
  165DOPC  H14B19943   4.534   0.827  13.887 -0.0644 -0.7277  0.3547
  165DOPC  H14C19944   4.686   0.770  13.839  1.1880  0.4631 -0.0509
  165DOPC   C1519945   4.610   1.034  14.032  0.2659 -0.5645  0.2914
  165DOPC  H15A19946   4.646   1.135  14.050  0.2157 -0.3664 -0.6948
  165DOPC  H15B19947   4.615   0.976  14.123  0.2537 -2.0601 -0.6377
  165DOPC  H15C19948   4.505   1.043  14.007  0.2484  2.2207  1.0106
  165DOPC   C1119949   4.721   1.001  13.659  0.8466  0.1958  0.5527
  165DOPC  H11A19950   4.678   1.069  13.582  2.0438 -1.9427 -2.2125
  165DOPC  H11B19951   4.831   1.018  13.661  0.8559  0.1689  0.2678
  165DOPC     P19952   4.529   0.846  13.567  0.2167  0.2097  0.2112
  165DOPC   O1319953   4.441   0.966  13.571  0.1811  0.3602 -0.4430
  165DOPC   O1419954   4.468   0.727  13.634  0.0947 -0.0346  0.3645
  165DOPC   O1219955   4.680   0.868  13.631  0.0609 -0.3829  0.4317
  165DOPC   O1119956   4.559   0.812  13.415  0.0434  0.1463 -0.0227
  165DOPC    C119957   4.675   0.759  13.362  0.7075  0.1838 -0.1398
  165DOPC    HA19958   4.658   0.651  13.343  2.3187 -0.1259  0.0073
  165DOPC    HB19959   4.763   0.763  13.430  1.0281 -1.3597 -0.4248
  165DOPC    C219960   4.720   0.828  13.232  0.3950 -0.2347  0.3594
  165DOPC    HS19961   4.813   0.780  13.194 -0.1076 -2.2181  1.4920
  165DOPC   O2119962   4.744   0.970  13.252 -0.1091 -0.0414 -0.1192
  165DOPC   C2119963   4.850   1.010  13.317  0.7608  0.1993 -0.4384
  165DOPC   O2219964   4.936   0.934  13.363  0.3521 -1.0578  0.0547
  165DOPC   C2219965   4.859   1.165  13.326  0.0557 -0.7479 -0.2137
  165DOPC   H2R19966   4.967   1.191  13.329 -0.1939  0.2996  0.6241
  165DOPC   H2S19967   4.811   1.193  13.422  0.4274 -0.6206 -0.0640
  165DOPC    C319968   4.612   0.814  13.115 -0.6615 -0.0240 -0.1022
  165DOPC    HX19969   4.516   0.861  13.146 -0.9723 -0.1154 -0.9054
  165DOPC    HY19970   4.593   0.706  13.097 -0.7264 -0.2195  1.0606
  165DOPC   O3119971   4.654   0.891  12.999 -0.1535 -0.6041 -0.4745
  165DOPC   C3119972   4.738   0.829  12.927  0.2931  0.2712 -0.5418
  165DOPC   O3219973   4.792   0.721  12.959 -0.1409  0.2348 -0.0574
  165DOPC   C3219974   4.777   0.902  12.801 -0.3929  0.5076 -0.0714
  165DOPC   H2X19975   4.714   0.993  12.797 -0.0838  0.6859 -1.1764
  165DOPC   H2Y19976   4.885   0.925  12.815 -0.4270 -0.1826  1.6089
  165DOPC   C2319977   4.787   1.240  13.207 -0.2634 -0.5716  0.5108
  165DOPC   H3R19978   4.768   1.346  13.232 -0.2668 -0.5086  0.2467
  165DOPC   H3S19979   4.692   1.189  13.181  1.0452 -2.9964  0.1725
  165DOPC   C2419980   4.866   1.222  13.076 -0.1640  0.2739  0.2168
  165DOPC   H4R19981   4.886   1.114  13.057  3.3570  1.0845 -1.3620
  165DOPC   H4S19982   4.966   1.268  13.093 -1.0686  2.4673 -0.0492
  165DOPC   C2519983   4.794   1.279  12.958 -0.3584  0.1804  0.4678
  165DOPC   H5R19984   4.776   1.388  12.970  1.8871  0.6576 -0.0653
  165DOPC   H5S19985   4.695   1.230  12.954 -0.1052 -0.2520 -1.3703
  165DOPC   C2619986   4.866   1.260  12.825 -0.7336  0.0959 -0.8141
  165DOPC   H6R19987   4.882   1.153  12.798  1.6142  0.4016 -0.8298
  165DOPC   H6S19988   4.964   1.306  12.849 -1.0637 -0.5184  1.9609
  165DOPC   C2719989   4.784   1.333  12.711 -0.4096  0.0045 -0.2776
  165DOPC   H7R19990   4.677   1.335  12.739 -0.6578 -0.5949 -1.1724
  165DOPC   H7S19991   4.796   1.263  12.626 -0.1992 -0.0304 -0.2200
  165DOPC   C2819992   4.830   1.475  12.681 -1.0025 -0.5815  0.2248
  165DOPC   H8R19993   4.940   1.486  12.667 -0.9774  1.2896  1.4493
  165DOPC   H8S19994   4.810   1.539  12.770 -1.4702  1.0268 -0.9901
  165DOPC   C2919995   4.752   1.528  12.561 -0.2549 -0.2391  0.2021
  165DOPC   H9R19996   4.679   1.605  12.588 -0.2723 -0.4952  0.9095
  165DOPC  C21019997   4.788   1.512  12.429 -0.4498 -0.6090 -0.2111
  165DOPC  H10R19998   4.729   1.555  12.347  0.9274 -0.4915 -1.1721
  165DOPC  C21119999   4.906   1.437  12.391  0.4919  0.6866 -0.4272
  165DOPC  H11R20000   4.881   1.333  12.423 -0.2688  0.6706 -1.0184
  165DOPC  H11S20001   4.997   1.463  12.449 -0.2363 -0.9029  1.5116
  165DOPC  C21220002   4.930   1.444  12.237  0.3783 -0.4620 -0.6971
  165DOPC  H12R20003   4.860   1.378  12.181  1.7845 -1.3301 -1.4820
  165DOPC  H12S20004   5.026   1.397  12.211 -0.5988 -1.2626 -3.1430
  165DOPC  C21320005   4.934   1.581  12.162  0.8644 -0.3164 -0.2170
  165DOPC  H13R20006   4.999   1.637  12.233  2.3784 -1.1666 -0.8894
  165DOPC  H13S20007   4.829   1.619  12.154  0.4570 -1.2627  0.5438
  165DOPC  C21420008   5.012   1.591  12.028 -0.0877  0.0865 -0.5050
  165DOPC  H14R20009   5.103   1.532  12.048  0.3601  1.7277  3.0908
  165DOPC  H14S20010   5.050   1.694  12.011  0.1028  0.1482  0.2692
  165DOPC  C21520011   4.933   1.533  11.910  0.3933 -0.6364  0.3753
  165DOPC  H15R20012   4.833   1.582  11.910  0.9342  0.5037  0.0137
  165DOPC  H15S20013   4.920   1.423  11.920 -0.7750 -0.6415 -0.9138
  165DOPC  C21620014   4.997   1.558  11.769  0.1314 -0.7762  0.2161
  165DOPC  H16R20015   5.106   1.535  11.768  0.4599  0.5966  1.1327
  165DOPC  H16S20016   4.990   1.668  11.753 -0.0563 -1.0336 -1.6374
  165DOPC  C21720017   4.930   1.484  11.657  0.3550  0.1270 -0.6738
  165DOPC  H17R20018   4.820   1.493  11.668  0.5237  0.6105  0.8540
  165DOPC  H17S20019   4.964   1.378  11.662 -1.1362 -0.4573 -2.1867
  165DOPC  C21820020   4.971   1.542  11.521  0.1969  0.1405 -0.0021
  165DOPC  H18R20021   5.081   1.530  11.514  0.0726 -0.3390 -1.4735
  165DOPC  H18S20022   4.950   1.650  11.509  1.4289  0.2171 -1.8855
  165DOPC  H18T20023   4.919   1.489  11.439  2.4002  1.2639 -2.2476
  165DOPC   C3320024   4.767   0.802  12.683  0.0041  0.2577 -0.1178
  165DOPC   H3X20025   4.661   0.771  12.671 -0.1482 -0.5555  2.5709
  165DOPC   H3Y20026   4.827   0.710  12.698 -1.1410 -0.6048 -0.7065
  165DOPC   C3420027   4.821   0.875  12.552  0.7370 -0.1977  0.4581
  165DOPC   H4X20028   4.915   0.929  12.581  0.0181  1.0927  0.4704
  165DOPC   H4Y20029   4.748   0.950  12.516 -1.1596 -2.4521 -0.5974
  165DOPC   C3520030   4.848   0.777  12.432 -0.5693 -0.6481 -0.0271
  165DOPC   H5X20031   4.745   0.740  12.411 -0.7756 -0.3182  0.3871
  165DOPC   H5Y20032   4.916   0.691  12.449 -0.7120 -0.4996  1.4029
  165DOPC   C3620033   4.889   0.835  12.299 -0.4206 -0.9007  0.3598
  165DOPC   H6X20034   4.970   0.903  12.329 -0.4028 -0.9753  0.4827
  165DOPC   H6Y20035   4.917   0.746  12.238  0.1113  0.0615 -0.8470
  165DOPC   C3720036   4.776   0.910  12.229 -0.4660 -0.1637  0.2110
  165DOPC   H7X20037   4.681   0.893  12.285  0.5585  0.0186  2.0726
  165DOPC   H7Y20038   4.772   0.878  12.123 -1.4640  1.5833 -0.3209
  165DOPC   C3820039   4.799   1.064  12.214 -0.3130 -0.1867 -0.0814
  165DOPC   H8X20040   4.904   1.076  12.179 -0.3669  0.3097 -0.0688
  165DOPC   H8Y20041   4.796   1.102  12.318 -1.0875  1.9287 -0.8207
  165DOPC   C3920042   4.691   1.132  12.124  0.4681 -0.3543 -0.8232
  165DOPC   H9X20043   4.712   1.107  12.019  4.6938  1.2945 -0.5720
  165DOPC  C31020044   4.589   1.215  12.169  0.3969  0.5579  0.2675
  165DOPC  H10X20045   4.542   1.270  12.086  0.3483  0.5239  0.2724
  165DOPC  C31120046   4.563   1.267  12.306 -0.0769  0.6387 -0.4156
  165DOPC  H11X20047   4.607   1.367  12.328  0.7049 -0.5579  4.5169
  165DOPC  H11Y20048   4.583   1.181  12.373  0.6398 -0.0410 -1.4575
  165DOPC  C31220049   4.415   1.284  12.339  0.4401  0.2495 -0.5862
  165DOPC  H12X20050   4.349   1.195  12.353 -0.5502  1.0303 -0.1325
  165DOPC  H12Y20051   4.364   1.354  12.269  1.0509  1.5323  0.2413
  165DOPC  C31320052   4.403   1.359  12.472  0.3891 -0.1747  0.6672
  165DOPC  H13X20053   4.457   1.456  12.474  0.1898 -0.0680  0.7858
  165DOPC  H13Y20054   4.298   1.394  12.479  0.2465 -0.4696  0.0894
  165DOPC  C31420055   4.436   1.286  12.602  0.0932 -0.1516  0.3581
  165DOPC  H14X20056   4.384   1.188  12.591  0.3871 -0.1123 -2.1521
  165DOPC  H14Y20057   4.545   1.265  12.604 -0.2509 -2.1322  0.7080
  165DOPC  C31520058   4.402   1.352  12.731  0.2515 -0.4407  0.5880
  165DOPC  H15X20059   4.316   1.420  12.713 -0.1002 -1.3405 -1.3533
  165DOPC  H15Y20060   4.488   1.409  12.773 -0.1685  0.5942  0.0718
  165DOPC  C31620061   4.363   1.237  12.821  0.4667  0.3279 -0.0855
  165DOPC  H16X20062   4.273   1.195  12.771 -1.4642  2.4299  1.4527
  165DOPC  H16Y20063   4.438   1.155  12.819 -0.9971 -1.1430  1.6758
  165DOPC  C31720064   4.313   1.273  12.967 -0.7749 -0.2052  0.3343
  165DOPC  H17X20065   4.392   1.333  13.016  0.1633 -0.9096 -0.2969
  165DOPC  H17Y20066   4.228   1.342  12.948  0.3562  0.2854 -3.8977
  165DOPC  C31820067   4.283   1.163  13.066  0.3711  0.1924  0.4290
  165DOPC  H18X20068   4.372   1.110  13.107  0.6579 -0.5117 -1.0397
  165DOPC  H18Y20069   4.229   1.206  13.153  0.4703  1.5580 -0.1691
  165DOPC  H18Z20070   4.212   1.095  13.015  0.5572  0.2360  0.1064
  166DOPC     N20071   5.472   4.295  13.562  0.2847  0.1974 -0.1400
  166DOPC   C1220072   5.538   4.326  13.696 -0.2034 -0.6384  0.6268
  166DOPC  H12A20073   5.455   4.334  13.764 -0.5874  1.1167 -0.0067
  166DOPC  H12B20074   5.571   4.428  13.694 -1.4788 -0.2093  0.8014
  166DOPC   C1320075   5.410   4.160  13.568  0.3039 -0.7162  0.8395
  166DOPC  H13A20076   5.480   4.080  13.584 -0.1521 -1.3380 -0.1606
  166DOPC  H13B20077   5.343   4.156  13.652 -1.2437 -1.3214 -0.3696
  166DOPC  H13C20078   5.363   4.132  13.475  2.6527 -0.5312 -0.5077
  166DOPC   C1420079   5.572   4.304  13.440 -0.1099  0.3260 -0.2827
  166DOPC  H14A20080   5.522   4.278  13.348 -0.4922 -1.8161  0.4605
  166DOPC  H14B20081   5.618   4.401  13.438  0.3426  0.1089 -2.2970
  166DOPC  H14C20082   5.640   4.221  13.455 -1.6786 -0.7991  1.0489
  166DOPC   C1520083   5.368   4.409  13.531 -0.7534 -0.5203 -0.3196
  166DOPC  H15A20084   5.305   4.387  13.446 -0.1430 -2.1997 -0.3668
  166DOPC  H15B20085   5.412   4.505  13.509  1.1189 -0.6905  2.2723
  166DOPC  H15C20086   5.300   4.419  13.615 -1.3796 -2.2064 -0.5755
  166DOPC   C1120087   5.641   4.230  13.759  0.7100 -0.0220  0.5866
  166DOPC  H11A20088   5.720   4.207  13.683  0.4143  1.4708 -0.2117
  166DOPC  H11B20089   5.694   4.272  13.847  0.5350 -0.7093  1.0199
  166DOPC     P20090   5.620   4.007  13.885 -0.1566 -0.3695 -0.1232
  166DOPC   O1320091   5.519   3.907  13.919  0.1838  0.2115  0.0314
  166DOPC   O1420092   5.677   4.074  14.003  0.1978 -0.0835 -0.1082
  166DOPC   O1220093   5.562   4.115  13.792  0.5120 -0.7426 -0.1415
  166DOPC   O1120094   5.731   3.939  13.797  0.2349  0.4761  0.1641
  166DOPC    C120095   5.698   3.869  13.679  0.2569  0.3035  0.8078
  166DOPC    HA20096   5.589   3.859  13.661  0.4003 -1.0544  0.5416
  166DOPC    HB20097   5.757   3.776  13.664  1.0072  0.9363 -0.2799
  166DOPC    C220098   5.736   3.959  13.557 -0.5814  0.4894 -0.4169
  166DOPC    HS20099   5.655   4.035  13.546 -3.5304 -2.3318  0.2619
  166DOPC   O2120100   5.726   3.878  13.439  0.1901 -0.4201  0.2367
  166DOPC   C2120101   5.663   3.920  13.328 -0.4105  0.3873 -0.3966
  166DOPC   O2220102   5.622   4.035  13.315 -0.4319  0.2140 -0.1253
  166DOPC   C2220103   5.663   3.810  13.229  0.0265  0.2957 -0.4830
  166DOPC   H2R20104   5.571   3.752  13.252 -0.2061  0.5115 -0.8479
  166DOPC   H2S20105   5.747   3.739  13.243 -0.7529 -1.1284 -2.6080
  166DOPC    C320106   5.878   4.016  13.557  0.6448  0.1368  0.0622
  166DOPC    HX20107   5.929   3.921  13.582  0.2643  0.7201  3.6036
  166DOPC    HY20108   5.896   4.088  13.641  2.6845  0.2258 -0.4084
  166DOPC   O3120109   5.920   4.064  13.427 -0.3479 -0.2731 -0.1609
  166DOPC   C3120110   5.924   4.195  13.415  0.1360 -0.2560  0.6513
  166DOPC   O3220111   5.889   4.280  13.497  0.1512  0.0744 -0.3523
  166DOPC   C3220112   5.985   4.213  13.272 -0.0908  0.0552  0.4472
  166DOPC   H2X20113   5.991   4.322  13.256  2.4337 -0.2863 -1.6053
  166DOPC   H2Y20114   6.089   4.175  13.274  0.0071  0.0884 -1.7409
  166DOPC   C2320115   5.659   3.872  13.089 -0.2015 -0.3145  0.3454
  166DOPC   H3R20116   5.729   3.957  13.080  0.4714 -0.8820  0.0732
  166DOPC   H3S20117   5.559   3.911  13.059  0.4374  0.1174 -1.3224
  166DOPC   C2420118   5.691   3.766  12.981  0.2311 -0.4567  0.1339
  166DOPC   H4R20119   5.634   3.674  13.003 -0.4067  0.0299  0.5580
  166DOPC   H4S20120   5.797   3.746  13.009  0.0419  1.4522  2.6234
  166DOPC   C2520121   5.663   3.805  12.831 -0.8411 -0.2643  0.4332
  166DOPC   H5R20122   5.554   3.821  12.819 -0.7455  1.2716  1.2652
  166DOPC   H5S20123   5.707   3.726  12.766  2.5662  0.5214  1.5659
  166DOPC   C2620124   5.732   3.935  12.792 -0.1437 -0.2190  0.3229
  166DOPC   H6R20125   5.838   3.940  12.826 -0.5483  0.1669  1.5927
  166DOPC   H6S20126   5.683   4.013  12.854 -0.2223  0.0623 -0.0887
  166DOPC   C2720127   5.718   3.957  12.644  0.1987 -0.4494 -0.1492
  166DOPC   H7R20128   5.758   4.060  12.631  2.9046 -0.4966  4.9276
  166DOPC   H7S20129   5.612   3.956  12.610 -0.3656  0.0731  1.4935
  166DOPC   C2820130   5.801   3.869  12.549  0.3370  0.2594  0.5938
  166DOPC   H8R20131   5.758   3.767  12.548  1.1759 -0.1270 -1.7619
  166DOPC   H8S20132   5.906   3.867  12.585  0.3142  0.0208  0.6502
  166DOPC   C2920133   5.807   3.914  12.402  0.1877 -0.4736  0.4399
  166DOPC   H9R20134   5.889   3.980  12.372 -1.2028  0.8713 -0.5805
  166DOPC  C21020135   5.715   3.884  12.298 -0.5819  0.3055  0.0433
  166DOPC  H10R20136   5.720   3.927  12.197  2.1663 -0.1377 -0.1047
  166DOPC  C21120137   5.599   3.789  12.314 -0.3910  0.1252  0.1687
  166DOPC  H11R20138   5.620   3.739  12.411 -0.8646 -1.4048 -0.5056
  166DOPC  H11S20139   5.596   3.708  12.239 -2.4686 -0.3003  0.6665
  166DOPC  C21220140   5.458   3.836  12.307 -0.2223  0.3294  0.0889
  166DOPC  H12R20141   5.427   3.895  12.396  0.9967  0.6297  0.3374
  166DOPC  H12S20142   5.398   3.743  12.299  0.3065  0.0773 -1.1097
  166DOPC  C21320143   5.423   3.912  12.177 -0.4564 -0.1419  0.4582
  166DOPC  H13R20144   5.481   4.006  12.176 -0.0461 -0.3033 -2.5907
  166DOPC  H13S20145   5.316   3.942  12.184 -0.3941  0.7050 -1.4697
  166DOPC  C21420146   5.453   3.836  12.046  0.6370  0.2041 -0.5476
  166DOPC  H14R20147   5.379   3.754  12.041  0.0648  0.4268  2.4996
  166DOPC  H14S20148   5.555   3.795  12.036  0.7621  0.7970 -1.9238
  166DOPC  C21520149   5.441   3.925  11.927 -0.0097  0.0872  0.2177
  166DOPC  H15R20150   5.512   4.010  11.944  2.4014 -1.4455 -1.4695
  166DOPC  H15S20151   5.341   3.972  11.925 -1.1514 -2.2071  0.7754
  166DOPC  C21620152   5.476   3.863  11.790  0.5811  0.0677  0.1386
  166DOPC  H16R20153   5.401   3.787  11.758  0.6747  1.6122 -4.5235
  166DOPC  H16S20154   5.574   3.812  11.789 -0.3898 -1.8962 -0.0054
  166DOPC  C21720155   5.457   3.957  11.671  0.2561 -0.4226  0.6230
  166DOPC  H17R20156   5.526   4.040  11.695 -0.3646 -0.3685  2.3535
  166DOPC  H17S20157   5.354   3.997  11.678  0.1057 -0.7513  0.3152
  166DOPC  C21820158   5.480   3.887  11.540  0.1039 -0.1719 -0.7192
  166DOPC  H18R20159   5.400   3.812  11.523  0.5032 -1.0437  1.0185
  166DOPC  H18S20160   5.576   3.831  11.548  0.3746  0.3735 -0.0533
  166DOPC  H18T20161   5.487   3.962  11.458 -2.6984  1.8011  0.6927
  166DOPC   C3320162   5.907   4.147  13.153  0.2041 -0.3949 -0.0132
  166DOPC   H3X20163   5.803   4.186  13.152  0.3070 -0.0934  0.4545
  166DOPC   H3Y20164   5.909   4.037  13.166 -2.4722 -0.3959  0.9359
  166DOPC   C3420165   5.976   4.177  13.025 -0.4098  0.0255 -0.0743
  166DOPC   H4X20166   5.958   4.282  12.994  2.0833  0.3059 -0.6966
  166DOPC   H4Y20167   5.923   4.123  12.944  0.6589  2.0186 -2.1846
  166DOPC   C3520168   6.129   4.163  13.019 -1.1192 -0.1114 -0.6292
  166DOPC   H5X20169   6.146   4.061  13.061 -0.4574  0.2915  0.0927
  166DOPC   H5Y20170   6.181   4.237  13.083  0.4510 -0.8093 -1.0346
  166DOPC   C3620171   6.186   4.158  12.874  0.3360  0.1445 -0.4599
  166DOPC   H6X20172   6.297   4.150  12.876  0.5004  1.8467 -0.9264
  166DOPC   H6Y20173   6.150   4.068  12.820  2.7086 -0.7853 -0.6432
  166DOPC   C3720174   6.168   4.291  12.803 -0.7843  0.0529 -0.2048
  166DOPC   H7X20175   6.081   4.356  12.827 -1.3273 -0.4859 -0.6944
  166DOPC   H7Y20176   6.255   4.352  12.835 -0.2657  0.3719 -2.0583
  166DOPC   C3820177   6.189   4.286  12.651  0.0415 -0.1570 -0.4247
  166DOPC   H8X20178   6.244   4.194  12.619 -2.0392 -1.6962  0.2312
  166DOPC   H8Y20179   6.246   4.372  12.609 -1.6810  1.6302  0.7385
  166DOPC   C3920180   6.053   4.285  12.588  0.9481  1.0780 -0.2591
  166DOPC   H9X20181   5.965   4.284  12.655 -1.0401 -2.8170 -2.5307
  166DOPC  C31020182   6.030   4.241  12.463 -0.0793  0.3541 -0.4253
  166DOPC  H10X20183   5.927   4.243  12.425 -0.1136 -1.5657 -0.5104
  166DOPC  C31120184   6.142   4.213  12.360 -0.0845 -0.7644 -0.2149
  166DOPC  H11X20185   6.176   4.108  12.367 -2.0842 -1.3866  1.0454
  166DOPC  H11Y20186   6.231   4.270  12.394  0.1657 -0.6355 -1.0704
  166DOPC  C31220187   6.115   4.245  12.210 -0.0926 -0.0900  0.1271
  166DOPC  H12X20188   6.211   4.241  12.154  0.1925 -1.1064  0.6704
  166DOPC  H12Y20189   6.090   4.353  12.209  1.3003  0.2484  0.7318
  166DOPC  C31320190   6.008   4.166  12.132  0.0249 -0.6326 -0.5164
  166DOPC  H13X20191   6.046   4.062  12.126  1.0107 -0.5286  2.4833
  166DOPC  H13Y20192   5.903   4.176  12.166  0.1128  0.5328 -0.5478
  166DOPC  C31420193   5.999   4.206  11.983  0.0938 -0.1020  0.1933
  166DOPC  H14X20194   5.949   4.305  11.977  0.6388  0.1372 -0.4852
  166DOPC  H14Y20195   6.100   4.219  11.940 -0.0432  0.6422  0.0900
  166DOPC  C31520196   5.931   4.097  11.901 -0.2116 -0.4429  0.0102
  166DOPC  H15X20197   5.827   4.091  11.940  0.8181 -1.9850  2.7367
  166DOPC  H15Y20198   5.969   3.995  11.924  0.0691 -0.2394  0.4499
  166DOPC  C31620199   5.924   4.128  11.750 -0.1219  0.7233  0.0980
  166DOPC  H16X20200   5.888   4.227  11.714  2.0625  0.9292 -1.7156
  166DOPC  H16Y20201   6.029   4.115  11.716  0.2010 -0.2012  1.3678
  166DOPC  C31720202   5.837   4.033  11.663  0.5613  0.6531 -0.3388
  166DOPC  H17X20203   5.856   3.926  11.684  3.7070  0.7862 -1.8654
  166DOPC  H17Y20204   5.731   4.058  11.686  0.8221  2.1559 -0.6454
  166DOPC  C31820205   5.856   4.035  11.511  0.6784 -0.0131  0.6757
  166DOPC  H18X20206   5.949   3.981  11.482 -0.1732 -0.0784 -2.2376
  166DOPC  H18Y20207   5.771   3.987  11.460  0.3232  1.2384  0.0529
  166DOPC  H18Z20208   5.849   4.141  11.478  0.3311  0.4962  2.2815
  167DOPC     N20209   5.884   3.658  13.942 -0.0661  0.2774  0.2104
  167DOPC   C1220210   5.980   3.693  13.833  0.2852 -0.0709  0.7111
  167DOPC  H12A20211   6.077   3.704  13.879  0.0144  0.0911  1.2511
  167DOPC  H12B20212   5.962   3.792  13.795  0.6850 -0.3959 -0.3735
  167DOPC   C1320213   5.751   3.625  13.885 -0.0619  0.0404 -0.0523
  167DOPC  H13A20214   5.705   3.707  13.832 -1.1938 -1.4834 -1.5372
  167DOPC  H13B20215   5.757   3.540  13.818  1.7903 -1.4855  1.8870
  167DOPC  H13C20216   5.689   3.607  13.972 -0.3029 -0.6619 -0.3618
  167DOPC   C1420217   5.866   3.761  14.049  0.0493 -0.0292  0.3002
  167DOPC  H14A20218   5.959   3.775  14.103  0.7636 -0.3373 -0.8084
  167DOPC  H14B20219   5.837   3.853  14.001 -0.5619 -0.3799 -0.0115
  167DOPC  H14C20220   5.784   3.739  14.115 -0.5687 -1.2686 -0.8209
  167DOPC   C1520221   5.929   3.534  14.016  0.5896 -0.1494 -0.1623
  167DOPC  H15A20222   5.857   3.512  14.094  1.0509  0.6172  0.5049
  167DOPC  H15B20223   6.021   3.548  14.070 -0.0167  0.2668  0.8080
  167DOPC  H15C20224   5.943   3.450  13.950  1.8368 -0.1764  0.1162
  167DOPC   C1120225   5.989   3.589  13.705 -0.2379 -0.2691 -0.7590
  167DOPC  H11A20226   5.893   3.595  13.649  0.1808  0.2175 -1.4388
  167DOPC  H11B20227   6.068   3.629  13.638 -0.6528  0.4537 -0.8319
  167DOPC     P20228   5.919   3.344  13.697 -0.1092  0.3125  0.5287
  167DOPC   O1320229   5.776   3.373  13.704 -0.3777 -0.0414 -0.4526
  167DOPC   O1420230   5.970   3.214  13.744 -0.0879 -0.3343  0.3409
  167DOPC   O1220231   6.017   3.456  13.745 -0.1401 -0.6435 -0.4595
  167DOPC   O1120232   5.949   3.358  13.535  0.4274 -0.4711 -0.4578
  167DOPC    C120233   6.086   3.340  13.498 -0.1335 -0.2402  0.2342
  167DOPC    HA20234   6.128   3.240  13.525  2.6312  0.6467 -0.4482
  167DOPC    HB20235   6.147   3.421  13.542 -0.9353  0.6909 -0.3301
  167DOPC    C220236   6.109   3.350  13.343 -0.8056  0.1440  0.5559
  167DOPC    HS20237   6.217   3.336  13.324 -0.6183  0.6769  1.1716
  167DOPC   O2120238   6.067   3.476  13.286 -0.0995  0.2190  0.1529
  167DOPC   C2120239   6.130   3.583  13.326  0.0177  0.0189 -0.0974
  167DOPC   O2220240   6.245   3.594  13.370  0.3838 -0.2486  0.0744
  167DOPC   C2220241   6.037   3.701  13.300 -0.6360 -0.0736  0.2266
  167DOPC   H2R20242   6.095   3.789  13.334  0.6191 -0.3198 -1.1979
  167DOPC   H2S20243   5.946   3.686  13.363 -0.6334 -0.3267  0.1712
  167DOPC    C320244   6.035   3.234  13.277  0.0643 -0.2301 -0.0446
  167DOPC    HX20245   5.927   3.235  13.303  0.6230  1.3699  2.5629
  167DOPC    HY20246   6.060   3.132  13.314 -2.4036 -0.4837  1.1576
  167DOPC   O3120247   6.057   3.251  13.137 -0.4583  0.4712 -0.4609
  167DOPC   C3120248   5.970   3.309  13.058  0.6737 -0.0635  0.2817
  167DOPC   O3220249   5.857   3.349  13.090  0.2180 -0.4862  0.2256
  167DOPC   C3220250   6.025   3.338  12.920  0.4150 -0.2662  0.7293
  167DOPC   H2X20251   6.118   3.397  12.934 -0.1083  0.6297  0.5039
  167DOPC   H2Y20252   6.042   3.241  12.869  2.2896  0.0975  0.6026
  167DOPC   C2320253   6.016   3.724  13.152 -0.1735 -0.2367  0.1808
  167DOPC   H3R20254   5.941   3.803  13.132 -0.5832 -1.1251 -1.9931
  167DOPC   H3S20255   5.975   3.630  13.108  1.4410 -1.5513  1.3289
  167DOPC   C2420256   6.145   3.759  13.081  0.2020 -0.1161 -0.5587
  167DOPC   H4R20257   6.221   3.681  13.101  1.0332  1.1213  1.3846
  167DOPC   H4S20258   6.175   3.855  13.129 -1.2714  0.0048  0.1763
  167DOPC   C2520259   6.112   3.776  12.934  0.3218 -0.0602 -1.0554
  167DOPC   H5R20260   6.062   3.874  12.928  0.6091  0.0306 -2.1569
  167DOPC   H5S20261   6.040   3.692  12.917 -0.1668 -0.1183  0.9719
  167DOPC   C2620262   6.225   3.773  12.842 -0.2964 -0.0261  0.7327
  167DOPC   H6R20263   6.284   3.681  12.864 -1.0737 -0.2070  2.1231
  167DOPC   H6S20264   6.290   3.860  12.865 -0.4446  0.0059  1.0339
  167DOPC   C2720265   6.194   3.783  12.689  0.8896 -0.0741 -0.6394
  167DOPC   H7R20266   6.141   3.881  12.683 -0.2519 -0.2810  3.4852
  167DOPC   H7S20267   6.126   3.698  12.668  0.6692 -0.2600  0.7321
  167DOPC   C2820268   6.312   3.787  12.597 -0.4281 -0.1953  0.1104
  167DOPC   H8R20269   6.358   3.686  12.605 -3.4345 -1.4779  4.2705
  167DOPC   H8S20270   6.394   3.855  12.627 -0.3461 -1.0023  1.8133
  167DOPC   C2920271   6.273   3.803  12.451 -0.2568 -0.1342  0.2585
  167DOPC   H9R20272   6.200   3.884  12.438 -0.2284 -0.2464 -0.7313
  167DOPC  C21020273   6.317   3.738  12.342 -0.4315  0.5390 -0.2730
  167DOPC  H10R20274   6.260   3.744  12.247  1.6409 -0.2098 -1.6261
  167DOPC  C21120275   6.419   3.629  12.337 -0.2062  0.4550  0.3248
  167DOPC  H11R20276   6.441   3.573  12.431 -1.2646 -1.5580 -0.5480
  167DOPC  H11S20277   6.518   3.666  12.304  0.4660  0.1041  1.8618
  167DOPC  C21220278   6.392   3.519  12.223 -0.7486  0.0317  0.1784
  167DOPC  H12R20279   6.455   3.429  12.243 -1.2732 -0.8066 -1.7310
  167DOPC  H12S20280   6.288   3.481  12.236 -1.1782  0.9048 -0.6394
  167DOPC  C21320281   6.416   3.578  12.080  0.5492 -0.2289 -0.7544
  167DOPC  H13R20282   6.519   3.619  12.088  1.6107 -2.8284 -0.1246
  167DOPC  H13S20283   6.356   3.670  12.069  1.5115  0.6220  0.7613
  167DOPC  C21420284   6.386   3.477  11.970  0.5213 -0.6386  0.6899
  167DOPC  H14R20285   6.425   3.376  11.997  4.2892  0.0009 -1.6263
  167DOPC  H14S20286   6.430   3.504  11.872 -2.0821 -1.1473 -0.6794
  167DOPC  C21520287   6.237   3.470  11.924 -0.1280 -0.9481  0.4908
  167DOPC  H15R20288   6.202   3.569  11.890  1.3388 -0.1458  1.2094
  167DOPC  H15S20289   6.188   3.447  12.021 -0.3446 -1.3526  0.2908
  167DOPC  C21620290   6.200   3.352  11.827 -0.5216  0.1232  0.1424
  167DOPC  H16R20291   6.098   3.362  11.785 -0.3403 -1.1377 -0.6482
  167DOPC  H16S20292   6.211   3.266  11.897  1.4429  0.5072  0.3727
  167DOPC  C21720293   6.293   3.334  11.708 -0.1739 -0.0292  0.3549
  167DOPC  H17R20294   6.262   3.248  11.644  0.2791  1.5021 -2.0680
  167DOPC  H17S20295   6.397   3.304  11.730  0.5765  1.3833 -1.0239
  167DOPC  C21820296   6.294   3.445  11.604  0.0103 -0.2629 -0.3145
  167DOPC  H18R20297   6.188   3.470  11.581 -0.4459  0.3578  2.2272
  167DOPC  H18S20298   6.346   3.395  11.519 -2.2691 -2.4201 -0.5721
  167DOPC  H18T20299   6.348   3.534  11.641  0.3467 -0.8002  0.5080
  167DOPC   C3320300   5.923   3.423  12.830 -0.9979  0.1371 -0.5458
  167DOPC   H3X20301   5.904   3.522  12.878 -0.2526 -0.1332  0.3281
  167DOPC   H3Y20302   5.827   3.367  12.820 -1.5444  1.1084 -0.8869
  167DOPC   C3420303   5.987   3.443  12.690 -0.5038 -0.1340 -0.7980
  167DOPC   H4X20304   6.034   3.344  12.676  1.5847  0.5987  0.5489
  167DOPC   H4Y20305   6.073   3.511  12.706 -0.6240 -0.1708  0.0376
  167DOPC   C3520306   5.886   3.483  12.583 -0.3868  0.4035 -0.7035
  167DOPC   H5X20307   5.831   3.571  12.622 -0.8755  0.0008 -0.4739
  167DOPC   H5Y20308   5.812   3.401  12.572  0.6779 -0.4305 -2.0350
  167DOPC   C3620309   5.945   3.511  12.446  0.0324  0.5370  0.1113
  167DOPC   H6X20310   5.988   3.613  12.454 -0.7926  0.8428  0.6813
  167DOPC   H6Y20311   6.029   3.438  12.434 -0.9030 -0.1551 -3.2200
  167DOPC   C3720312   5.851   3.519  12.324  0.1493  0.2683  0.0764
  167DOPC   H7X20313   5.773   3.440  12.327  0.0316  0.4068  1.0743
  167DOPC   H7Y20314   5.816   3.624  12.327  3.0411  1.3184  0.9217
  167DOPC   C3820315   5.914   3.491  12.181 -0.2264 -0.7605  0.1787
  167DOPC   H8X20316   5.827   3.490  12.111  0.3108 -2.0140 -0.4902
  167DOPC   H8Y20317   5.956   3.388  12.183  1.7678 -0.0186 -0.6488
  167DOPC   C3920318   6.018   3.592  12.135  0.6726  0.0322  0.7555
  167DOPC   H9X20319   6.081   3.615  12.223  1.1485 -0.2878  0.4987
  167DOPC  C31020320   6.000   3.674  12.027 -0.0390 -0.1131 -0.5067
  167DOPC  H10X20321   6.094   3.723  11.999 -0.2304  0.8177  0.4362
  167DOPC  C31120322   5.897   3.663  11.917 -0.1555 -0.1203  0.2525
  167DOPC  H11X20323   5.826   3.749  11.916  0.3675  0.3271  0.6389
  167DOPC  H11Y20324   5.832   3.576  11.937  0.2165 -0.2570  0.8962
  167DOPC  C31220325   5.968   3.675  11.776 -0.6343 -0.0146 -0.2397
  167DOPC  H12X20326   6.052   3.605  11.756 -0.0613  0.9329 -1.2709
  167DOPC  H12Y20327   6.014   3.775  11.761 -0.8571  0.1262  0.0161
  167DOPC  C31320328   5.864   3.653  11.673 -0.0688 -0.6823  0.1593
  167DOPC  H13X20329   5.815   3.554  11.678 -0.2556 -0.6902 -1.3964
  167DOPC  H13Y20330   5.780   3.723  11.695 -1.1381 -1.9004  0.1159
  167DOPC  C31420331   5.918   3.668  11.528 -0.3094  1.1633  0.1927
  167DOPC  H14X20332   5.943   3.775  11.508  0.1883  1.1720  0.8264
  167DOPC  H14Y20333   6.007   3.603  11.516  0.2106  1.8521  0.2295
  167DOPC  C31520334   5.815   3.621  11.425 -0.5053 -0.3826 -1.5077
  167DOPC  H15X20335   5.722   3.671  11.462 -1.4566 -1.2568 -2.6353
  167DOPC  H15Y20336   5.807   3.511  11.438 -2.0353 -0.2437 -1.0290
  167DOPC  C31620337   5.856   3.662  11.285  0.0995  0.0622 -0.0024
  167DOPC  H16X20338   5.844   3.772  11.276 -0.1125  0.1221  0.9559
  167DOPC  H16Y20339   5.960   3.632  11.261 -0.0122 -0.5342  0.2205
  167DOPC  C31720340   5.766   3.603  11.170  0.0644  0.2666 -0.5446
  167DOPC  H17X20341   5.673   3.554  11.208  1.1612 -1.7955 -0.3788
  167DOPC  H17Y20342   5.732   3.684  11.102 -1.4169 -0.5454 -0.8220
  167DOPC  C31820343   5.839   3.494  11.093  0.0864  0.0548  0.2079
  167DOPC  H18X20344   5.821   3.388  11.121 -1.6421  0.3685  0.3596
  167DOPC  H18Y20345   5.788   3.500  10.995 -0.1055  1.0761  0.3594
  167DOPC  H18Z20346   5.948   3.514  11.078  0.0956 -0.0923  0.0683
  168DOPC     N20347   0.917   2.465  13.424  0.2864 -0.0963 -0.4458
  168DOPC   C1220348   0.957   2.329  13.473  0.1059 -0.4143  0.1608
  168DOPC  H12A20349   1.030   2.283  13.408  0.6825 -0.2199  0.6555
  168DOPC  H12B20350   0.865   2.273  13.468 -0.1211 -0.3297  2.4153
  168DOPC   C1320351   0.840   2.453  13.301  1.0317 -0.1019 -0.3230
  168DOPC  H13A20352   0.889   2.386  13.232 -0.1530 -0.6018 -0.7041
  168DOPC  H13B20353   0.739   2.417  13.313  0.6657  0.9908 -0.0050
  168DOPC  H13C20354   0.824   2.545  13.246 -0.4708  0.9107  1.6724
  168DOPC   C1420355   1.040   2.541  13.381  0.6571  0.5502 -0.2030
  168DOPC  H14A20356   1.009   2.627  13.324 -2.9062  0.2733  1.0850
  168DOPC  H14B20357   1.090   2.568  13.473  0.2003 -0.0499  0.2300
  168DOPC  H14C20358   1.096   2.477  13.313  0.0137  0.4120 -0.6090
  168DOPC   C1520359   0.844   2.546  13.535 -0.5724  0.4320  0.0439
  168DOPC  H15A20360   0.809   2.645  13.510 -3.3997  0.1866  2.4976
  168DOPC  H15B20361   0.906   2.560  13.623 -1.9052  0.2435  1.0382
  168DOPC  H15C20362   0.753   2.492  13.559 -0.8083  0.5229 -0.6335
  168DOPC   C1120363   1.017   2.310  13.617  0.3118  0.2671  0.0363
  168DOPC  H11A20364   0.954   2.359  13.694  0.1877 -0.8141  0.6514
  168DOPC  H11B20365   1.013   2.200  13.634  1.4947  0.0050 -1.2087
  168DOPC     P20366   1.267   2.278  13.583 -0.0654 -0.0663  0.4961
  168DOPC   O1320367   1.289   2.166  13.683 -0.0367 -0.0939  0.3101
  168DOPC   O1420368   1.376   2.374  13.564  0.7267  0.4375 -0.5210
  168DOPC   O1220369   1.143   2.357  13.633 -0.0836  0.2880 -0.0906
  168DOPC   O1120370   1.225   2.206  13.445 -0.1124 -0.3893  0.2302
  168DOPC    C120371   1.317   2.217  13.334 -0.6233  0.7411 -0.4482
  168DOPC    HA20372   1.400   2.147  13.356  0.5807  2.4650  0.8204
  168DOPC    HB20373   1.364   2.318  13.332  2.1741 -0.3468  2.2932
  168DOPC    C220374   1.258   2.195  13.194  0.1505 -0.0359 -0.1428
  168DOPC    HS20375   1.205   2.292  13.186 -1.3271 -0.7017  0.9922
  168DOPC   O2120376   1.176   2.076  13.197 -0.1423 -0.2182 -0.5816
  168DOPC   C2120377   1.047   2.101  13.176 -0.0526  0.5679 -0.6936
  168DOPC   O2220378   1.001   2.207  13.150 -0.1207 -0.6243  0.5573
  168DOPC   C2220379   0.967   1.970  13.182  0.6786 -0.5491 -0.6467
  168DOPC   H2R20380   0.890   1.980  13.261 -0.0304  1.2551 -1.5050
  168DOPC   H2S20381   1.032   1.881  13.194  1.1776  0.0040  1.0400
  168DOPC    C320382   1.368   2.187  13.080  0.1492 -0.0345 -0.6914
  168DOPC    HX20383   1.448   2.113  13.101 -0.7823 -0.4813  1.5354
  168DOPC    HY20384   1.424   2.283  13.080 -0.1530  0.1446 -0.5964
  168DOPC   O3120385   1.317   2.155  12.951  0.0935 -0.6619  0.2070
  168DOPC   C3120386   1.400   2.167  12.852 -0.5798  0.0042  0.8725
  168DOPC   O3220387   1.513   2.212  12.856  0.0286  0.1816  0.3895
  168DOPC   C3220388   1.325   2.139  12.720  0.0071  1.1747  0.0087
  168DOPC   H2X20389   1.261   2.052  12.743  1.3959  0.4600  1.3627
  168DOPC   H2Y20390   1.262   2.229  12.702 -2.9376 -0.1317  2.9365
  168DOPC   C2320391   0.905   1.959  13.043 -0.2112  0.5549 -0.0784
  168DOPC   H3R20392   0.825   2.033  13.022 -1.8349 -0.5753  1.7875
  168DOPC   H3S20393   0.844   1.867  13.055 -0.9739  1.2974  2.3168
  168DOPC   C2420394   1.001   1.940  12.921  0.0650 -1.0587  0.1161
  168DOPC   H4R20395   1.066   1.849  12.923  0.2963 -0.9093  2.0459
  168DOPC   H4S20396   1.064   2.031  12.914  0.7514 -1.5556 -0.3723
  168DOPC   C2520397   0.921   1.919  12.793  0.2980 -0.1451 -0.2384
  168DOPC   H5R20398   0.863   2.012  12.783 -0.3709 -0.4526  0.6339
  168DOPC   H5S20399   0.856   1.830  12.804 -1.0601  1.0618  2.3676
  168DOPC   C2620400   1.015   1.910  12.667  0.4862 -0.1664 -0.3938
  168DOPC   H6R20401   1.089   1.829  12.685  1.6381  0.5977 -1.4820
  168DOPC   H6S20402   1.072   2.005  12.654 -0.2119  0.2207 -0.7044
  168DOPC   C2720403   0.937   1.879  12.537 -0.6469  0.1302 -0.0185
  168DOPC   H7R20404   0.904   1.973  12.489 -1.3215 -0.8763 -1.6249
  168DOPC   H7S20405   0.853   1.810  12.559 -1.1323  0.2915 -1.3211
  168DOPC   C2820406   1.025   1.797  12.437  0.9956  0.2320  0.2383
  168DOPC   H8R20407   1.056   1.708  12.496  1.5529 -0.2795 -0.7958
  168DOPC   H8S20408   1.123   1.848  12.419  0.7851  0.4632 -0.2736
  168DOPC   C2920409   0.958   1.742  12.310 -0.7958 -0.5267 -0.4989
  168DOPC   H9R20410   0.945   1.633  12.300 -1.6810 -0.2782 -2.3299
  168DOPC  C21020411   0.926   1.820  12.200  0.3599  0.4616  0.5740
  168DOPC  H10R20412   0.883   1.770  12.112 -0.4532 -3.0905  2.7519
  168DOPC  C21120413   0.928   1.966  12.198 -0.0056 -0.4928 -0.1399
  168DOPC  H11R20414   1.032   2.005  12.193  0.0402 -0.7066 -0.9420
  168DOPC  H11S20415   0.892   2.011  12.293  1.0316  1.7411 -0.7535
  168DOPC  C21220416   0.842   2.033  12.086  0.6728 -0.0443 -0.1173
  168DOPC  H12R20417   0.870   2.140  12.075 -0.1832  0.1352 -0.6730
  168DOPC  H12S20418   0.734   2.026  12.112  0.2355  0.6338 -1.6524
  168DOPC  C21320419   0.869   1.968  11.951  0.4253  0.0576  0.9861
  168DOPC  H13R20420   0.813   2.024  11.873 -0.5603 -1.3060  0.6673
  168DOPC  H13S20421   0.814   1.872  11.951  0.2037  0.1555 -0.4282
  168DOPC  C21420422   1.014   1.951  11.911 -0.4281  0.7236  0.3621
  168DOPC  H14R20423   1.071   1.895  11.988  2.2502  2.0248 -0.5813
  168DOPC  H14S20424   1.073   2.044  11.901  0.5407 -0.0189 -1.1402
  168DOPC  C21520425   1.019   1.866  11.784 -0.0144 -0.3662 -0.4757
  168DOPC  H15R20426   0.922   1.878  11.732 -0.1399 -1.7875 -0.6164
  168DOPC  H15S20427   1.025   1.759  11.813 -0.0644 -0.4761 -0.8633
  168DOPC  C21620428   1.118   1.919  11.692 -0.3483 -0.3104  0.0527
  168DOPC  H16R20429   1.220   1.890  11.725 -0.0749  0.4086 -0.1392
  168DOPC  H16S20430   1.118   2.030  11.689 -1.0173 -0.3285 -1.0252
  168DOPC  C21720431   1.088   1.878  11.544 -0.1141  0.8319  0.2627
  168DOPC  H17R20432   0.986   1.920  11.528 -0.5689 -0.0530  0.6748
  168DOPC  H17S20433   1.085   1.767  11.533  1.5869  0.6698  1.2149
  168DOPC  C21820434   1.195   1.923  11.444 -0.3599  0.6369  0.1125
  168DOPC  H18R20435   1.170   1.872  11.349  1.3579  0.4357 -0.2573
  168DOPC  H18S20436   1.292   1.877  11.473  0.4878 -0.6693 -4.1070
  168DOPC  H18T20437   1.194   2.034  11.430 -0.6730  0.6449  0.1875
  168DOPC   C3320438   1.425   2.104  12.608  0.6903 -0.6261 -0.5824
  168DOPC   H3X20439   1.510   2.048  12.651  0.8042 -0.0712 -0.0694
  168DOPC   H3Y20440   1.472   2.202  12.585 -0.9475  0.1292 -0.9246
  168DOPC   C3420441   1.344   2.050  12.494  0.3422  0.3960  0.8981
  168DOPC   H4X20442   1.254   2.114  12.479 -0.9993 -1.5625  0.3255
  168DOPC   H4Y20443   1.305   1.950  12.523 -2.0053  0.8462 -0.4389
  168DOPC   C3520444   1.427   2.028  12.369 -0.0615 -0.1592  0.5000
  168DOPC   H5X20445   1.515   1.962  12.388  0.4845 -0.5501 -2.8720
  168DOPC   H5Y20446   1.465   2.125  12.330  0.1099 -1.0533 -1.7111
  168DOPC   C3620447   1.346   1.966  12.251  0.4428 -0.2550 -0.3525
  168DOPC   H6X20448   1.296   1.875  12.291  0.4613 -1.5214 -3.0107
  168DOPC   H6Y20449   1.266   2.031  12.211 -0.5275 -1.2708 -0.1171
  168DOPC   C3720450   1.441   1.938  12.131  0.6569  0.4099 -0.2620
  168DOPC   H7X20451   1.471   2.043  12.110  0.5148  0.3108 -1.0044
  168DOPC   H7Y20452   1.519   1.867  12.165  0.1473  0.2172  0.5469
  168DOPC   C3820453   1.359   1.891  12.004 -0.3377 -0.4399 -0.4587
  168DOPC   H8X20454   1.422   1.900  11.913  0.5142  2.7346  0.3483
  168DOPC   H8Y20455   1.276   1.961  11.981  1.3174  0.5845 -3.9635
  168DOPC   C3920456   1.310   1.749  12.021  0.3928  0.2106  0.0814
  168DOPC   H9X20457   1.257   1.724  12.114  0.2581  1.3084  0.3129
  168DOPC  C31020458   1.340   1.648  11.939  0.2291 -0.6424 -1.0863
  168DOPC  H10X20459   1.316   1.545  11.968  1.9025 -1.3619 -2.1434
  168DOPC  C31120460   1.410   1.658  11.803  0.0065  0.1733  0.8093
  168DOPC  H11X20461   1.516   1.625  11.811 -0.0254 -1.2269 -2.7037
  168DOPC  H11Y20462   1.414   1.760  11.759  1.8065 -1.2544 -2.8134
  168DOPC  C31220463   1.340   1.577  11.688 -0.1578  0.4650 -0.6729
  168DOPC  H12X20464   1.239   1.622  11.673 -0.9393 -1.2641 -0.8806
  168DOPC  H12Y20465   1.323   1.470  11.715  2.8297  0.5633  2.1203
  168DOPC  C31320466   1.420   1.591  11.558  0.6567  0.3793 -0.3461
  168DOPC  H13X20467   1.441   1.697  11.533  1.0305  0.1902 -0.8427
  168DOPC  H13Y20468   1.517   1.539  11.574 -0.4110 -2.1865 -1.5884
  168DOPC  C31420469   1.360   1.528  11.436  0.2804 -0.0329 -0.0982
  168DOPC  H14X20470   1.328   1.425  11.460  0.9771 -0.2045  0.0839
  168DOPC  H14Y20471   1.265   1.571  11.395  0.3991  0.4409  0.1221
  168DOPC  C31520472   1.459   1.518  11.319 -0.1543  0.1880  0.3935
  168DOPC  H15X20473   1.554   1.472  11.356 -0.2572 -1.1660 -0.9459
  168DOPC  H15Y20474   1.492   1.617  11.283  0.7346 -0.7805 -1.6105
  168DOPC  C31620475   1.394   1.437  11.207  0.2795 -0.0805  0.2864
  168DOPC  H16X20476   1.462   1.399  11.128  0.5238  1.6363 -0.3735
  168DOPC  H16Y20477   1.340   1.344  11.236  0.4089 -0.5308 -0.8604
  168DOPC  C31720478   1.292   1.517  11.125 -0.1519  0.1794  0.0196
  168DOPC  H17X20479   1.217   1.545  11.202 -0.8470 -3.9874  1.0944
  168DOPC  H17Y20480   1.346   1.600  11.073  1.5772 -0.6817  0.3495
  168DOPC  C31820481   1.228   1.432  11.016  0.4571  0.1738 -0.1963
  168DOPC  H18X20482   1.162   1.481  10.942  0.2837 -1.3510 -1.0773
  168DOPC  H18Y20483   1.308   1.379  10.961 -0.7740  0.2700 -2.1748
  168DOPC  H18Z20484   1.164   1.351  11.057  0.5111 -0.1432 -0.7327
  169DOPC     N20485   0.593   3.089  14.136 -0.3520  0.3340 -0.1511
  169DOPC   C1220486   0.658   3.093  13.999  0.1612  0.3287 -0.8753
  169DOPC  H12A20487   0.725   3.010  13.986  0.6916  0.8133 -1.3125
  169DOPC  H12B20488   0.720   3.182  13.999  2.0607 -0.8930  1.2128
  169DOPC   C1320489   0.530   2.957  14.158 -0.4942  0.4425  0.5159
  169DOPC  H13A20490   0.598   2.873  14.165 -1.4988 -0.5052 -0.5993
  169DOPC  H13B20491   0.455   2.950  14.235 -1.9248 -2.6272 -0.9835
  169DOPC  H13C20492   0.460   2.936  14.078  0.4307 -2.0170  0.2565
  169DOPC   C1420493   0.478   3.184  14.151 -0.5828  0.0398 -0.5754
  169DOPC  H14A20494   0.511   3.285  14.135  1.3700 -0.1113  1.8954
  169DOPC  H14B20495   0.397   3.162  14.082 -2.3279  0.0187  1.3848
  169DOPC  H14C20496   0.437   3.180  14.250  0.9375 -1.0061  0.0534
  169DOPC   C1520497   0.696   3.118  14.242  0.6732  0.1000  0.1456
  169DOPC  H15A20498   0.647   3.140  14.336  1.4734  1.6040  0.2476
  169DOPC  H15B20499   0.761   3.201  14.218 -0.9687  1.8431  1.3845
  169DOPC  H15C20500   0.749   3.028  14.266 -0.5821 -0.4524  0.9178
  169DOPC   C1120501   0.558   3.095  13.877 -0.0560 -0.2281 -0.0190
  169DOPC  H11A20502   0.500   3.189  13.871  2.0290  1.1696  0.5066
  169DOPC  H11B20503   0.618   3.112  13.784 -2.1668  1.0508 -1.2333
  169DOPC     P20504   0.541   2.852  13.796 -0.1520 -0.2149  0.2844
  169DOPC   O1320505   0.437   2.746  13.796  0.0447 -0.4669 -0.2122
  169DOPC   O1420506   0.671   2.821  13.860 -0.2943  0.6979  0.2904
  169DOPC   O1220507   0.478   2.977  13.868  0.4074 -0.0176 -0.0289
  169DOPC   O1120508   0.575   2.909  13.649 -0.1795  0.5124  0.6277
  169DOPC    C120509   0.471   2.962  13.576  0.3875  0.0570 -0.2965
  169DOPC    HA20510   0.431   3.055  13.621 -0.4722 -0.8438  0.8606
  169DOPC    HB20511   0.387   2.891  13.562  0.9942 -0.7110 -0.1284
  169DOPC    C220512   0.508   2.988  13.429  0.0026 -0.6505  0.3914
  169DOPC    HS20513   0.570   3.080  13.423 -0.4915 -0.2274  1.5440
  169DOPC   O2120514   0.391   2.994  13.356 -0.0400 -0.2924  0.1020
  169DOPC   C2120515   0.330   3.114  13.366 -0.0436  0.8263 -0.2174
  169DOPC   O2220516   0.357   3.205  13.441 -0.0545 -0.3117 -0.0393
  169DOPC   C2220517   0.228   3.128  13.253  0.4008 -0.9358 -0.4510
  169DOPC   H2R20518   0.149   3.196  13.290  2.4604  2.0019 -1.0395
  169DOPC   H2S20519   0.184   3.029  13.230 -0.6934 -0.4044 -0.6846
  169DOPC    C320520   0.592   2.871  13.368  1.0987 -0.2101 -0.5453
  169DOPC    HX20521   0.522   2.784  13.370  2.0337 -0.9511  0.3381
  169DOPC    HY20522   0.672   2.824  13.429 -0.6138 -1.7191  0.6575
  169DOPC   O3120523   0.634   2.899  13.230  0.3572  0.0759 -0.4226
  169DOPC   C3120524   0.680   2.796  13.161  0.0996  0.7833  0.3742
  169DOPC   O3220525   0.664   2.679  13.197  0.2829 -0.1296  0.5430
  169DOPC   C3220526   0.741   2.840  13.039  0.3184  0.1275  0.0977
  169DOPC   H2X20527   0.712   2.945  13.017  0.4144  0.0871 -0.2249
  169DOPC   H2Y20528   0.850   2.843  13.056  0.4059  0.2450 -0.4769
  169DOPC   C2320529   0.290   3.193  13.126 -0.1417  0.1801  0.0962
  169DOPC   H3R20530   0.382   3.136  13.103  0.4109  0.2714  1.9380
  169DOPC   H3S20531   0.303   3.296  13.164 -0.8516  0.3870 -0.2097
  169DOPC   C2420532   0.190   3.193  13.004 -0.5722 -0.1616  0.0702
  169DOPC   H4R20533   0.090   3.235  13.030 -1.2363 -1.4931 -0.2485
  169DOPC   H4S20534   0.171   3.085  12.988 -1.8761 -0.5361  3.2948
  169DOPC   C2520535   0.240   3.255  12.875  0.2552 -0.4608  0.6350
  169DOPC   H5R20536   0.334   3.211  12.834  0.4248  0.5037 -0.0719
  169DOPC   H5S20537   0.274   3.358  12.899  0.8838 -1.0427  2.3996
  169DOPC   C2620538   0.138   3.262  12.767  0.7194 -0.2474  0.0358
  169DOPC   H6R20539   0.060   3.332  12.804  0.7933 -0.4029  0.4909
  169DOPC   H6S20540   0.096   3.163  12.742 -2.1081  0.9405 -0.2245
  169DOPC   C2720541   0.200   3.322  12.641 -0.0363 -0.7151  0.8380
  169DOPC   H7R20542   0.277   3.256  12.596  0.0344  1.7557 -3.0985
  169DOPC   H7S20543   0.252   3.417  12.662  1.3469 -0.8546 -1.6200
  169DOPC   C2820544   0.104   3.348  12.515 -0.3225 -0.4523 -0.5016
  169DOPC   H8R20545   0.159   3.401  12.435 -0.0025 -0.4830 -0.3057
  169DOPC   H8S20546   0.025   3.420  12.545  1.1561  1.1553 -0.3033
  169DOPC   C2920547   0.049   3.216  12.477 -0.1349 -0.8728  0.5737
  169DOPC   H9R20548  -0.024   3.179  12.551 -0.1318 -0.5785  0.7244
  169DOPC  C21020549   0.073   3.159  12.353 -0.2976  0.2835 -0.4962
  169DOPC  H10R20550   0.043   3.056  12.330  0.3231  0.4456 -2.2190
  169DOPC  C21120551   0.158   3.218  12.243 -0.9808 -0.1779 -0.1594
  169DOPC  H11R20552   0.228   3.141  12.205 -0.2014  0.1511  0.5725
  169DOPC  H11S20553   0.227   3.300  12.274  1.0397 -1.2404 -1.6833
  169DOPC  C21220554   0.065   3.259  12.124  0.1870 -0.3211 -0.9899
  169DOPC  H12R20555  -0.021   3.313  12.170  0.1935 -1.3158  0.2368
  169DOPC  H12S20556   0.010   3.172  12.083 -3.1108  0.0302  2.1879
  169DOPC  C21320557   0.133   3.344  12.018 -0.3892  0.0969  0.5293
  169DOPC  H13R20558   0.203   3.276  11.965  0.5977  2.1448 -0.9419
  169DOPC  H13S20559   0.182   3.429  12.070 -1.9192  2.7797 -2.0571
  169DOPC  C21420560   0.032   3.418  11.931 -0.1322 -0.6535 -0.0338
  169DOPC  H14R20561  -0.032   3.477  12.000  1.9136  3.1517 -1.1011
  169DOPC  H14S20562  -0.027   3.344  11.873  1.3312 -1.2169 -0.8443
  169DOPC  C21520563   0.077   3.515  11.816 -0.5132 -0.2809  0.7162
  169DOPC  H15R20564   0.153   3.459  11.757 -1.4034  1.2742 -2.0613
  169DOPC  H15S20565   0.121   3.609  11.858 -1.8214  0.5813  0.2196
  169DOPC  C21620566  -0.037   3.570  11.732  0.2467 -0.1380 -0.9110
  169DOPC  H16R20567  -0.095   3.638  11.798  0.9522  1.6164 -2.0464
  169DOPC  H16S20568  -0.112   3.493  11.702 -2.2466  1.8372 -0.1716
  169DOPC  C21720569  -0.001   3.662  11.616 -0.0055  0.4900  0.5879
  169DOPC  H17R20570   0.038   3.590  11.541 -2.4294 -0.4106  0.0710
  169DOPC  H17S20571   0.077   3.732  11.652  0.0532  1.1936 -0.8464
  169DOPC  C21820572  -0.107   3.753  11.562  0.9423  0.3637 -0.1465
  169DOPC  H18R20573  -0.172   3.714  11.481 -0.7985  0.9221  0.9457
  169DOPC  H18S20574  -0.055   3.839  11.514 -0.2559  1.1134 -0.1357
  169DOPC  H18T20575  -0.170   3.788  11.646 -0.0708 -1.3571 -0.1429
  169DOPC   C3320576   0.693   2.749  12.924 -0.5114  0.2167 -0.6291
  169DOPC   H3X20577   0.582   2.759  12.921 -0.6653  0.0537  1.9675
  169DOPC   H3Y20578   0.715   2.642  12.943 -0.4953  0.2452 -0.4851
  169DOPC   C3420579   0.755   2.777  12.787  0.4225 -0.3579 -0.3577
  169DOPC   H4X20580   0.866   2.775  12.789  0.4171 -1.6036  1.6016
  169DOPC   H4Y20581   0.724   2.878  12.753  1.1130  0.0921  0.3104
  169DOPC   C3520582   0.703   2.677  12.681 -0.5192  0.7658 -0.0632
  169DOPC   H5X20583   0.593   2.669  12.693 -0.9390  3.4322 -1.3764
  169DOPC   H5Y20584   0.759   2.583  12.701 -3.0286 -0.7891  0.0932
  169DOPC   C3620585   0.726   2.730  12.539  1.1533  0.7935 -0.2869
  169DOPC   H6X20586   0.657   2.813  12.511 -0.6800  0.0438  1.7812
  169DOPC   H6Y20587   0.824   2.782  12.536  0.9714  1.1729  0.1577
  169DOPC   C3720588   0.711   2.618  12.439 -0.7005 -0.6212  0.2279
  169DOPC   H7X20589   0.776   2.543  12.488  0.0755  1.1114  1.9883
  169DOPC   H7Y20590   0.613   2.567  12.446 -1.8784  1.5631  0.7111
  169DOPC   C3820591   0.736   2.651  12.296  0.6079 -0.7304  0.1401
  169DOPC   H8X20592   0.702   2.564  12.236  1.3520  1.0353 -3.0481
  169DOPC   H8Y20593   0.845   2.661  12.278  0.8005  0.4388  1.7062
  169DOPC   C3920594   0.683   2.781  12.243 -0.4369  0.2346  0.1066
  169DOPC   H9X20595   0.704   2.866  12.310 -1.6971  0.4263  0.2813
  169DOPC  C31020596   0.607   2.798  12.132  0.1054 -0.1334 -0.1259
  169DOPC  H10X20597   0.574   2.902  12.118  2.8695  0.6880 -1.2799
  169DOPC  C31120598   0.548   2.707  12.030 -0.3013  0.5732 -0.2001
  169DOPC  H11X20599   0.442   2.677  12.047 -0.8891  0.0222 -3.9749
  169DOPC  H11Y20600   0.610   2.615  12.035 -1.0251 -0.1845 -3.1247
  169DOPC  C31220601   0.557   2.782  11.889  0.0787 -0.2148 -0.0417
  169DOPC  H12X20602   0.490   2.870  11.872  1.7629  1.3670  1.0902
  169DOPC  H12Y20603   0.533   2.711  11.807  1.1130 -0.1009 -0.4611
  169DOPC  C31320604   0.698   2.826  11.855 -0.6487  0.2145 -0.2991
  169DOPC  H13X20605   0.700   2.934  11.882  0.7395  0.0598  0.3037
  169DOPC  H13Y20606   0.772   2.775  11.921 -1.3088  1.0097  1.1069
  169DOPC  C31420607   0.739   2.797  11.707 -0.0297 -0.2348 -0.1992
  169DOPC  H14X20608   0.648   2.808  11.645 -1.1101 -0.7806  1.2398
  169DOPC  H14Y20609   0.822   2.864  11.674 -0.0514 -0.8941 -1.6694
  169DOPC  C31520610   0.810   2.661  11.700  0.4355  0.0815  0.4096
  169DOPC  H15X20611   0.750   2.591  11.762  0.7471 -0.5584  0.0055
  169DOPC  H15Y20612   0.906   2.670  11.755  0.3992  0.4406  0.4147
  169DOPC  C31620613   0.835   2.601  11.558  0.7608 -0.1324 -0.6196
  169DOPC  H16X20614   0.873   2.498  11.573 -0.0865 -0.3491  0.1167
  169DOPC  H16Y20615   0.740   2.587  11.502 -0.4629 -2.0126  1.7599
  169DOPC  C31720616   0.941   2.683  11.479  0.3962  0.8844  0.8403
  169DOPC  H17X20617   0.891   2.771  11.434  3.5786  2.4216  0.0242
  169DOPC  H17Y20618   1.027   2.725  11.536  0.9197 -0.8522  1.4041
  169DOPC  C31820619   0.994   2.589  11.372 -0.4032  0.3893  0.6114
  169DOPC  H18X20620   1.052   2.509  11.422 -1.1012 -0.5844 -0.0941
  169DOPC  H18Y20621   0.908   2.549  11.314  1.4108 -3.5405  0.3440
  169DOPC  H18Z20622   1.058   2.645  11.301 -0.2983 -1.8899 -1.1918
  170DOPC     N20623   6.115   1.666  13.991  0.0180 -0.4336 -0.1447
  170DOPC   C1220624   6.209   1.558  13.956  0.5010  0.1246  0.1783
  170DOPC  H12A20625   6.169   1.514  13.865  1.0203  0.1091 -0.0438
  170DOPC  H12B20626   6.215   1.485  14.035 -0.5226 -0.5611 -0.3496
  170DOPC   C1320627   6.104   1.756  13.877  0.2468  0.5612 -0.6728
  170DOPC  H13A20628   6.195   1.805  13.843 -0.5922  1.8050 -1.2060
  170DOPC  H13B20629   6.088   1.690  13.793  2.5119 -0.2227 -0.5783
  170DOPC  H13C20630   6.032   1.836  13.887 -0.5679 -0.3469  1.1706
  170DOPC   C1420631   6.162   1.754  14.109 -0.3757  0.6999  0.6102
  170DOPC  H14A20632   6.186   1.692  14.194  1.9216  0.3418 -0.2209
  170DOPC  H14B20633   6.248   1.811  14.076 -1.3131  0.8896 -1.7192
  170DOPC  H14C20634   6.086   1.828  14.127  0.5082  1.3853  1.6292
  170DOPC   C1520635   5.972   1.622  14.024 -0.6211 -0.1761  0.2191
  170DOPC  H15A20636   5.926   1.580  13.936 -2.0586  2.1654 -0.2109
  170DOPC  H15B20637   5.915   1.709  14.050  0.4140 -0.0263  2.1891
  170DOPC  H15C20638   5.965   1.560  14.113  1.7937  0.4911  0.9522
  170DOPC   C1120639   6.356   1.593  13.919 -0.8033  0.0317 -0.1109
  170DOPC  H11A20640   6.391   1.657  14.002 -1.0904  1.1634 -0.8424
  170DOPC  H11B20641   6.415   1.499  13.917 -0.8487 -0.0019  0.2052
  170DOPC     P20642   6.350   1.576  13.656  0.2554 -0.0048 -0.1939
  170DOPC   O1320643   6.296   1.443  13.678 -0.0219 -0.4747  0.4374
  170DOPC   O1420644   6.485   1.582  13.582  0.0909  0.2892 -0.4412
  170DOPC   O1220645   6.371   1.657  13.790  0.2022 -0.5612 -0.0474
  170DOPC   O1120646   6.241   1.666  13.575 -0.2656  0.7409  0.2711
  170DOPC    C120647   6.262   1.793  13.524  0.2226 -0.4243 -0.1859
  170DOPC    HA20648   6.361   1.837  13.546  0.0384  0.3640 -0.8659
  170DOPC    HB20649   6.186   1.863  13.565 -1.9072 -2.6459 -0.1072
  170DOPC    C220650   6.257   1.791  13.373  0.3478  0.7423  0.2747
  170DOPC    HS20651   6.252   1.894  13.332 -2.8763  0.0618 -1.3562
  170DOPC   O2120652   6.132   1.732  13.326 -0.6829  0.3257  0.1205
  170DOPC   C2120653   6.024   1.802  13.324  0.3753  0.4125  0.1800
  170DOPC   O2220654   6.011   1.918  13.352  0.5199 -0.2163 -0.0277
  170DOPC   C2220655   5.916   1.705  13.268  0.1500  0.2773  0.0518
  170DOPC   H2R20656   5.895   1.628  13.345 -2.7603  0.0474 -0.8537
  170DOPC   H2S20657   5.960   1.648  13.183 -1.3691  1.3220 -1.5137
  170DOPC    C320658   6.376   1.702  13.313  0.3814  0.2751 -0.3843
  170DOPC    HX20659   6.347   1.595  13.314 -3.4723  1.2054  0.3073
  170DOPC    HY20660   6.467   1.716  13.375 -0.3405 -2.6270  1.4976
  170DOPC   O3120661   6.426   1.737  13.180  0.3459  0.4370  0.1023
  170DOPC   C3120662   6.484   1.636  13.111  0.0042 -0.1169 -0.5758
  170DOPC   O3220663   6.488   1.520  13.149  0.2692  0.3375  0.0993
  170DOPC   C3220664   6.544   1.697  12.983 -0.8330 -0.2817 -0.6672
  170DOPC   H2X20665   6.470   1.768  12.940  1.0459  0.3412 -3.1285
  170DOPC   H2Y20666   6.634   1.756  13.010 -0.6550 -1.8140  2.6156
  170DOPC   C2320667   5.777   1.766  13.240  0.8666  0.4940  0.2274
  170DOPC   H3R20668   5.752   1.852  13.305 -0.6292  1.6472 -1.7539
  170DOPC   H3S20669   5.691   1.695  13.249  0.5275  0.2664 -3.4118
  170DOPC   C2420670   5.760   1.839  13.102 -0.5011  0.8586  0.3614
  170DOPC   H4R20671   5.808   1.939  13.110 -0.4514  1.2828 -3.4236
  170DOPC   H4S20672   5.653   1.862  13.079 -0.3344 -0.6863 -2.2876
  170DOPC   C2520673   5.823   1.752  12.992  0.3033 -0.2683  0.2979
  170DOPC   H5R20674   5.792   1.645  12.997  0.1567 -0.1989  0.8770
  170DOPC   H5S20675   5.933   1.759  12.986  0.1556  1.1070 -3.5659
  170DOPC   C2620676   5.772   1.807  12.861  0.6380 -0.0742  0.2106
  170DOPC   H6R20677   5.793   1.915  12.848 -0.7008  0.2426  0.4677
  170DOPC   H6S20678   5.661   1.794  12.860  0.4698  0.7128 -2.8572
  170DOPC   C2720679   5.825   1.728  12.742 -0.3932  0.0528 -0.0507
  170DOPC   H7R20680   5.808   1.621  12.767  1.2570 -0.0335  0.8097
  170DOPC   H7S20681   5.934   1.747  12.736 -0.4328  1.1843  2.0136
  170DOPC   C2820682   5.742   1.770  12.621 -0.4150  0.7682 -0.5839
  170DOPC   H8R20683   5.633   1.761  12.640 -0.3118 -0.6683 -0.5488
  170DOPC   H8S20684   5.754   1.687  12.548 -0.5138  0.0478  0.2056
  170DOPC   C2920685   5.796   1.891  12.556  0.2958 -0.0021  0.0452
  170DOPC   H9R20686   5.765   1.981  12.611  1.8033  0.6166 -0.0697
  170DOPC  C21020687   5.882   1.901  12.447  0.2392  0.2364 -0.0924
  170DOPC  H10R20688   5.902   2.002  12.410  2.7397  0.1118  0.7422
  170DOPC  C21120689   5.938   1.778  12.383 -0.8407  0.1623 -1.4181
  170DOPC  H11R20690   5.935   1.686  12.445  2.2370 -0.5676 -2.1990
  170DOPC  H11S20691   6.048   1.784  12.376 -0.5307 -2.3191  0.1928
  170DOPC  C21220692   5.902   1.772  12.234  0.3275  0.7512  0.2239
  170DOPC  H12R20693   5.796   1.738  12.230  0.0709  1.5854 -2.2876
  170DOPC  H12S20694   5.954   1.684  12.191  0.5583  1.4217 -0.9208
  170DOPC  C21320695   5.928   1.902  12.154  0.3647 -0.5013 -0.1519
  170DOPC  H13R20696   6.026   1.939  12.191  0.3652 -1.4682  0.8328
  170DOPC  H13S20697   5.849   1.979  12.170 -0.3493 -1.2017 -0.2573
  170DOPC  C21420698   5.933   1.866  12.005 -0.4333  0.6505  0.0375
  170DOPC  H14R20699   5.852   1.800  11.967  0.8863 -0.2646 -1.3045
  170DOPC  H14S20700   6.030   1.815  11.989 -0.5894  0.4864 -0.3918
  170DOPC  C21520701   5.914   1.995  11.920  0.3963  0.2760  0.8957
  170DOPC  H15R20702   6.009   2.052  11.927  1.5117 -1.6668  3.8690
  170DOPC  H15S20703   5.828   2.051  11.961  0.6242  1.0790  0.2937
  170DOPC  C21620704   5.889   1.962  11.777  0.6172 -0.4389  0.5146
  170DOPC  H16R20705   5.811   1.882  11.775 -1.6875  1.6993  0.3289
  170DOPC  H16S20706   5.984   1.921  11.736 -0.4607 -0.6895 -1.9219
  170DOPC  C21720707   5.816   2.071  11.696 -0.5064  0.2605  0.2371
  170DOPC  H17R20708   5.876   2.163  11.678 -0.0524 -0.5948 -3.3584
  170DOPC  H17S20709   5.734   2.113  11.759 -1.4406  0.0664 -0.8337
  170DOPC  C21820710   5.764   2.032  11.561 -0.0064 -0.1453 -0.3426
  170DOPC  H18R20711   5.718   2.124  11.519 -0.5345  0.1527  0.8432
  170DOPC  H18S20712   5.683   1.957  11.567 -0.1638 -0.0553 -1.2498
  170DOPC  H18T20713   5.844   1.989  11.497  0.4691  0.4177 -0.1357
  170DOPC   C3320714   6.593   1.589  12.883 -0.0540 -0.0510  0.3039
  170DOPC   H3X20715   6.509   1.525  12.849 -0.4247 -0.2871  1.6248
  170DOPC   H3Y20716   6.664   1.521  12.935  0.8067  1.9444  1.8399
  170DOPC   C3420717   6.653   1.637  12.746 -0.4136  0.1828  0.0854
  170DOPC   H4X20718   6.748   1.694  12.752 -0.6766  0.6351 -0.0876
  170DOPC   H4Y20719   6.582   1.694  12.683  1.5818  2.0704 -0.5608
  170DOPC   C3520720   6.684   1.512  12.657  0.7574 -0.2467  0.2019
  170DOPC   H5X20721   6.591   1.453  12.645 -0.1462  1.3898 -1.4339
  170DOPC   H5Y20722   6.764   1.460  12.714  0.8405  1.1144  1.3780
  170DOPC   C3620723   6.740   1.560  12.523  0.1262  0.1465  0.3241
  170DOPC   H6X20724   6.658   1.591  12.455 -0.2455 -0.6534  0.3993
  170DOPC   H6Y20725   6.804   1.651  12.524  1.6295 -0.8242 -1.3085
  170DOPC   C3720726   6.826   1.458  12.449  0.1857 -0.5060  0.4371
  170DOPC   H7X20727   6.912   1.437  12.517 -1.7558 -2.0816  2.5823
  170DOPC   H7Y20728   6.784   1.355  12.457  1.0382 -1.1148 -2.0326
  170DOPC   C3820729   6.860   1.489  12.303 -0.3268 -0.2137 -0.2286
  170DOPC   H8X20730   6.951   1.429  12.284  1.5062  2.4648 -0.4422
  170DOPC   H8Y20731   6.890   1.595  12.286  1.3980 -0.2649  2.1003
  170DOPC   C3920732   6.747   1.453  12.212  0.3465 -0.1870 -0.0976
  170DOPC   H9X20733   6.648   1.453  12.259 -0.0708 -2.0481 -0.8761
  170DOPC  C31020734   6.763   1.408  12.085 -0.0571 -0.2536  0.0207
  170DOPC  H10X20735   6.674   1.415  12.021 -0.5654  1.6549  0.8622
  170DOPC  C31120736   6.894   1.402  12.014 -0.8556  0.3044  0.7677
  170DOPC  H11X20737   6.945   1.307  12.042  2.2246  1.3515 -0.8574
  170DOPC  H11Y20738   6.955   1.486  12.053 -1.6577  0.7851  1.0128
  170DOPC  C31220739   6.877   1.424  11.863  0.4775  0.1125  0.1374
  170DOPC  H12X20740   6.788   1.368  11.829  0.5289 -0.4388  0.8965
  170DOPC  H12Y20741   6.967   1.393  11.804  0.2850  1.2614 -0.8061
  170DOPC  C31320742   6.856   1.573  11.821 -0.3854  0.1939 -1.0231
  170DOPC  H13X20743   6.780   1.618  11.889  0.4870 -0.6537  0.5740
  170DOPC  H13Y20744   6.946   1.632  11.851 -0.5694 -0.8144  1.7899
  170DOPC  C31420745   6.817   1.591  11.667 -1.0315 -0.5860 -0.2924
  170DOPC  H14X20746   6.712   1.558  11.647 -1.9934  1.4752  1.0339
  170DOPC  H14Y20747   6.805   1.700  11.651 -0.8758  0.0089  3.0028
  170DOPC  C31520748   6.911   1.512  11.567  0.1043 -0.4203  0.7132
  170DOPC  H15X20749   6.901   1.402  11.580 -0.0369 -0.7545 -1.8472
  170DOPC  H15Y20750   7.015   1.550  11.578  0.4529 -1.0510 -0.2980
  170DOPC  C31620751   6.871   1.543  11.426  0.2847 -0.1468 -0.8161
  170DOPC  H16X20752   6.896   1.456  11.362 -0.0320  1.0006 -2.5627
  170DOPC  H16Y20753   6.761   1.554  11.418  0.3122 -0.7206 -2.3390
  170DOPC  C31720754   6.928   1.670  11.381 -0.1143 -0.2335 -0.0686
  170DOPC  H17X20755   6.898   1.763  11.435 -1.5516 -0.1289 -1.0169
  170DOPC  H17Y20756   7.034   1.673  11.416 -0.1366 -0.7916  0.0530
  170DOPC  C31820757   6.919   1.700  11.232 -0.0227 -0.0125 -0.4235
  170DOPC  H18X20758   6.816   1.674  11.202 -0.3111 -0.9570  1.2589
  170DOPC  H18Y20759   6.946   1.803  11.201 -1.3274  0.1880 -0.9549
  170DOPC  H18Z20760   6.993   1.634  11.180  2.0433  1.9161 -0.1188
  171DOPC     N20761   3.744   3.963   8.086  0.7762 -0.2983 -0.4668
  171DOPC   C1220762   3.785   3.944   8.230 -0.1120  0.1828 -0.6177
  171DOPC  H12A20763   3.890   3.968   8.239 -0.0485 -0.5911  1.2047
  171DOPC  H12B20764   3.775   3.840   8.254 -1.1805 -0.3560 -3.0774
  171DOPC   C1320765   3.825   3.879   7.996  0.1866 -0.4125 -0.1294
  171DOPC  H13A20766   3.928   3.889   8.028 -0.3342 -0.2325  1.6159
  171DOPC  H13B20767   3.811   3.773   8.011  0.8091 -0.3110  1.4304
  171DOPC  H13C20768   3.822   3.899   7.890  0.2233  0.1652 -0.0258
  171DOPC   C1420769   3.759   4.108   8.056  0.0067 -0.0569  0.2695
  171DOPC  H14A20770   3.732   4.140   7.956 -0.2929 -0.3998  0.2384
  171DOPC  H14B20771   3.712   4.175   8.127  0.7312 -0.6605  1.3544
  171DOPC  H14C20772   3.864   4.129   8.049 -0.1077  1.1000  1.6334
  171DOPC   C1520773   3.602   3.926   8.086 -0.8790 -0.0057  0.1576
  171DOPC  H15A20774   3.558   3.997   8.154 -0.6163  1.5665 -1.2333
  171DOPC  H15B20775   3.590   3.825   8.120 -2.0048  0.1156  0.1677
  171DOPC  H15C20776   3.557   3.950   7.990 -1.2126  1.6749  0.6989
  171DOPC   C1120777   3.721   4.040   8.336 -0.2678  1.2497 -0.0104
  171DOPC  H11A20778   3.611   4.022   8.332 -0.1690  0.3856  0.8855
  171DOPC  H11B20779   3.752   3.995   8.433 -2.4249 -1.5513 -0.4995
  171DOPC     P20780   3.863   4.240   8.417 -0.4304  0.0373  0.4537
  171DOPC   O1320781   3.888   4.382   8.385  0.5964  0.0174  0.1540
  171DOPC   O1420782   3.990   4.157   8.429 -0.2620 -0.5853  0.2318
  171DOPC   O1220783   3.765   4.174   8.318  0.2318 -0.3549  0.2217
  171DOPC   O1120784   3.784   4.237   8.558 -0.4414 -0.1119 -0.4377
  171DOPC    C120785   3.705   4.347   8.583 -0.3639 -1.2097 -0.4895
  171DOPC    HA20786   3.606   4.308   8.611 -0.8155 -1.0846 -1.8262
  171DOPC    HB20787   3.680   4.411   8.495  1.1917  1.3881  0.8230
  171DOPC    C220788   3.759   4.446   8.688  0.4223  0.3305  0.0368
  171DOPC    HS20789   3.827   4.510   8.627  0.7401 -0.5055 -0.5034
  171DOPC   O2120790   3.814   4.375   8.800 -0.6265 -0.0725  0.0844
  171DOPC   C2120791   3.919   4.430   8.858  0.3544  0.2761 -0.2124
  171DOPC   O2220792   3.976   4.532   8.817  0.6592  0.8380 -0.1251
  171DOPC   C2220793   3.939   4.356   8.987  0.9768 -0.5455 -0.1719
  171DOPC   H2R20794   4.046   4.339   9.012  0.4794 -0.0600  2.6812
  171DOPC   H2S20795   3.890   4.257   8.973  1.3287 -0.4908 -2.0181
  171DOPC    C320796   3.648   4.537   8.739 -0.4940  0.6581 -0.4240
  171DOPC    HX20797   3.583   4.473   8.803  0.5423 -1.3554 -1.2802
  171DOPC    HY20798   3.587   4.576   8.655 -1.1607 -0.5520 -0.5268
  171DOPC   O3120799   3.698   4.643   8.832 -0.0845  0.2079  0.4471
  171DOPC   C3120800   3.729   4.755   8.770  0.1370 -0.1714  0.2008
  171DOPC   O3220801   3.728   4.776   8.654 -0.0372 -0.1894  0.4668
  171DOPC   C3220802   3.781   4.859   8.871 -0.1130  0.0056  0.0259
  171DOPC   H2X20803   3.849   4.812   8.944  0.6268 -0.0317 -0.6717
  171DOPC   H2Y20804   3.842   4.931   8.811  0.9661 -1.3382 -0.5408
  171DOPC   C2320805   3.876   4.430   9.115  0.2037  0.7823  0.7502
  171DOPC   H3R20806   3.886   4.369   9.208 -0.5878  0.2420  0.4942
  171DOPC   H3S20807   3.765   4.436   9.108  0.2658 -0.2641 -3.0918
  171DOPC   C2420808   3.937   4.572   9.145  0.3084  0.1225 -0.3010
  171DOPC   H4R20809   3.911   4.622   9.049  0.7156 -1.4760 -1.2678
  171DOPC   H4S20810   4.048   4.575   9.153  0.2339  2.6511  0.8859
  171DOPC   C2520811   3.874   4.633   9.269  0.5753 -0.2585  0.4674
  171DOPC   H5R20812   3.771   4.592   9.276  1.1037 -2.0114 -1.1384
  171DOPC   H5S20813   3.874   4.740   9.241 -1.2069 -0.8154 -2.0472
  171DOPC   C2620814   3.952   4.599   9.393 -0.2293 -0.0544 -0.2108
  171DOPC   H6R20815   4.057   4.620   9.365  0.3377 -1.8117  0.4696
  171DOPC   H6S20816   3.944   4.490   9.411  4.2080 -0.6184 -0.7591
  171DOPC   C2720817   3.912   4.679   9.516  0.2949 -0.0864  0.5018
  171DOPC   H7R20818   3.803   4.666   9.533  0.1040  1.1729  0.3074
  171DOPC   H7S20819   3.913   4.786   9.487 -0.3705 -0.1866  0.0779
  171DOPC   C2820820   3.981   4.655   9.651 -0.1404  0.1601 -0.2425
  171DOPC   H8R20821   3.948   4.736   9.720  3.6797 -0.0521  2.1106
  171DOPC   H8S20822   4.086   4.687   9.668 -0.0949 -0.7255  1.2221
  171DOPC   C2920823   3.958   4.518   9.705  0.5051  0.5358 -0.5823
  171DOPC   H9R20824   3.899   4.462   9.631 -0.4620  1.5671 -0.6241
  171DOPC  C21020825   3.987   4.467   9.825 -0.6744  0.9237 -0.3196
  171DOPC  H10R20826   3.972   4.359   9.836  3.2238  0.1959 -0.5918
  171DOPC  C21120827   4.084   4.523   9.929  0.9649 -0.5745 -0.1583
  171DOPC  H11R20828   4.047   4.619   9.971 -2.0712 -1.2584 -1.0156
  171DOPC  H11S20829   4.186   4.539   9.888  0.4521  1.8346 -0.6126
  171DOPC  C21220830   4.085   4.431  10.057 -0.7740  0.2055  0.9579
  171DOPC  H12R20831   4.107   4.327  10.024 -1.4747 -0.4578  2.4824
  171DOPC  H12S20832   3.983   4.424  10.101 -0.8428  0.0436  0.7751
  171DOPC  C21320833   4.178   4.486  10.164  0.7167  0.5549 -1.1557
  171DOPC  H13R20834   4.123   4.582  10.180  1.3910  0.9201 -1.0042
  171DOPC  H13S20835   4.284   4.500  10.134  1.3410 -2.1368 -0.4686
  171DOPC  C21420836   4.169   4.396  10.287  0.2236  0.9999 -0.5011
  171DOPC  H14R20837   4.222   4.300  10.265 -0.4408  0.3128  0.7673
  171DOPC  H14S20838   4.070   4.359  10.320  1.0653 -1.9663 -0.9520
  171DOPC  C21520839   4.235   4.452  10.416  0.2357 -0.6997  0.1801
  171DOPC  H15R20840   4.190   4.551  10.444 -1.6453 -1.1066 -1.1817
  171DOPC  H15S20841   4.344   4.454  10.397  0.1364  1.7150 -0.6124
  171DOPC  C21620842   4.226   4.370  10.547  0.3903 -0.7231  0.2191
  171DOPC  H16R20843   4.269   4.275  10.510  1.5673 -0.8230  1.7206
  171DOPC  H16S20844   4.118   4.374  10.572 -0.3282 -2.4890 -2.2411
  171DOPC  C21720845   4.320   4.418  10.657 -0.2549 -0.0749  0.0337
  171DOPC  H17R20846   4.273   4.504  10.709  0.0957 -0.1613  0.5079
  171DOPC  H17S20847   4.420   4.450  10.619 -1.2827 -0.8849 -3.7529
  171DOPC  C21820848   4.337   4.319  10.779 -0.0531 -0.3504  0.1034
  171DOPC  H18R20849   4.385   4.221  10.760  1.3518 -0.0227  1.6722
  171DOPC  H18S20850   4.241   4.294  10.828  0.4843 -1.3199  0.6970
  171DOPC  H18T20851   4.393   4.373  10.858 -1.9035  0.9484  0.5835
  171DOPC   C3320852   3.668   4.941   8.938 -0.3332  0.2411 -0.0424
  171DOPC   H3X20853   3.623   4.879   9.019 -0.3690  0.0086 -0.2379
  171DOPC   H3Y20854   3.589   4.967   8.865 -0.2517  0.0417 -0.2035
  171DOPC   C3420855   3.721   5.063   9.007 -0.5350 -0.2606 -0.6576
  171DOPC   H4X20856   3.639   5.134   9.031 -0.9928 -0.5012 -1.4859
  171DOPC   H4Y20857   3.785   5.112   8.931  3.1924 -1.6466  1.3605
  171DOPC   C3520858   3.811   5.034   9.129  0.5628  0.0885  0.2003
  171DOPC   H5X20859   3.904   4.977   9.106 -0.3520 -1.6947  0.7313
  171DOPC   H5Y20860   3.752   4.967   9.195  0.3177 -0.4374 -0.5347
  171DOPC   C3620861   3.839   5.153   9.210 -0.3368  0.4331  0.3720
  171DOPC   H6X20862   3.944   5.145   9.247  0.2814 -0.5618 -1.4793
  171DOPC   H6Y20863   3.850   5.243   9.146  1.3953  1.4639  2.0044
  171DOPC   C3720864   3.743   5.189   9.327  0.0554  0.1490 -0.3488
  171DOPC   H7X20865   3.760   5.291   9.367  2.8607 -0.2152 -0.3861
  171DOPC   H7Y20866   3.638   5.195   9.292 -0.2323 -0.6538  0.3410
  171DOPC   C3820867   3.747   5.093   9.448 -0.3440  0.1427 -0.5738
  171DOPC   H8X20868   3.716   4.994   9.408  1.9593 -0.6806 -0.4784
  171DOPC   H8Y20869   3.665   5.109   9.522 -1.3676  0.5389 -1.7633
  171DOPC   C3920870   3.879   5.085   9.521 -0.3031 -0.7439 -0.1465
  171DOPC   H9X20871   3.964   5.059   9.457 -0.5268  0.4805 -0.9639
  171DOPC  C31020872   3.895   5.114   9.648 -0.2370 -0.1430 -0.1144
  171DOPC  H10X20873   3.999   5.106   9.683 -0.0585  1.3993 -0.2202
  171DOPC  C31120874   3.791   5.148   9.755  0.2081 -0.3143  0.6478
  171DOPC  H11X20875   3.704   5.082   9.740  0.4404 -0.1268 -1.8211
  171DOPC  H11Y20876   3.756   5.253   9.741 -0.2478 -0.4998  0.3930
  171DOPC  C31220877   3.845   5.127   9.899  0.4950 -0.2921 -0.1706
  171DOPC  H12X20878   3.921   5.205   9.918  0.0853  0.2639 -0.7970
  171DOPC  H12Y20879   3.892   5.027   9.915 -0.8532 -1.0682 -0.9006
  171DOPC  C31320880   3.737   5.156  10.010 -0.3852 -0.0817 -0.1614
  171DOPC  H13X20881   3.694   5.258   9.998 -0.9593 -0.1449  1.1353
  171DOPC  H13Y20882   3.651   5.088   9.992 -0.5625  0.4097 -1.2054
  171DOPC  C31420883   3.782   5.125  10.156 -0.4253  0.2126  0.7745
  171DOPC  H14X20884   3.836   5.029  10.142  1.8033  1.1876  2.0967
  171DOPC  H14Y20885   3.841   5.212  10.194  2.5910 -0.2495 -2.3259
  171DOPC  C31520886   3.669   5.106  10.254 -0.4426 -0.5240  0.0060
  171DOPC  H15X20887   3.617   5.016  10.216 -0.4758  0.2326 -1.8022
  171DOPC  H15Y20888   3.600   5.192  10.250 -0.2220 -0.1448  2.5480
  171DOPC  C31620889   3.711   5.079  10.390 -0.0910  0.0799 -0.0250
  171DOPC  H16X20890   3.777   4.990  10.395 -0.0085  0.1873  0.9677
  171DOPC  H16Y20891   3.771   5.161  10.435  0.4825  0.1024 -0.8192
  171DOPC  C31720892   3.592   5.058  10.484 -0.3818  0.9744 -0.1518
  171DOPC  H17X20893   3.509   5.131  10.474 -2.3496 -0.6928  2.4686
  171DOPC  H17Y20894   3.559   4.961  10.440 -0.1408  0.4365  0.8286
  171DOPC  C31820895   3.629   5.048  10.631  0.2166 -0.6870  0.4538
  171DOPC  H18X20896   3.710   4.972  10.641  1.5160  0.1435 -2.5173
  171DOPC  H18Y20897   3.658   5.149  10.668 -2.0040 -0.2502  1.1469
  171DOPC  H18Z20898   3.551   5.022  10.705  0.2517  3.1872  2.0860
  172DOPC     N20899   2.920   5.400   8.030 -0.2179  0.6330 -0.1324
  172DOPC   C1220900   2.832   5.402   8.153  0.2650  0.0762 -0.0102
  172DOPC  H12A20901   2.798   5.304   8.185 -0.4833  0.1466 -0.5439
  172DOPC  H12B20902   2.748   5.460   8.116  1.6430  1.2181 -1.4534
  172DOPC   C1320903   3.058   5.356   8.068 -0.1759 -0.7251 -0.0886
  172DOPC  H13A20904   3.050   5.260   8.117  0.8349 -1.5497 -1.4656
  172DOPC  H13B20905   3.113   5.338   7.977 -1.2390 -1.9096 -0.5357
  172DOPC  H13C20906   3.106   5.431   8.129 -1.4374  0.6838 -0.7841
  172DOPC   C1420907   2.926   5.539   7.979 -0.2556  0.9049  0.0026
  172DOPC  H14A20908   2.834   5.590   7.954 -1.1193 -1.0150 -0.9809
  172DOPC  H14B20909   2.964   5.602   8.058  0.6401  0.6356 -0.2016
  172DOPC  H14C20910   2.986   5.548   7.890 -0.5797 -0.3535 -0.3526
  172DOPC   C1520911   2.866   5.297   7.938  0.1429  0.2019 -0.3334
  172DOPC  H15A20912   2.860   5.204   7.992 -0.5025 -0.7020 -1.8850
  172DOPC  H15B20913   2.930   5.279   7.853 -0.1204  2.0676 -0.9608
  172DOPC  H15C20914   2.761   5.310   7.918  0.0494  0.5826  0.3798
  172DOPC   C1120915   2.875   5.468   8.290  0.4683 -0.7198  1.0169
  172DOPC  H11A20916   2.791   5.472   8.363 -1.4928  1.4464 -1.1638
  172DOPC  H11B20917   2.958   5.404   8.326  0.8733 -1.7638 -1.5309
  172DOPC     P20918   2.849   5.726   8.286 -0.0631 -0.1185 -0.2107
  172DOPC   O1320919   2.707   5.693   8.253  0.1686  0.3783 -0.3759
  172DOPC   O1420920   2.921   5.830   8.208 -0.1336  0.1489  0.4727
  172DOPC   O1220921   2.937   5.597   8.264 -0.0804  0.5424 -0.0474
  172DOPC   O1120922   2.868   5.743   8.442 -0.7749 -0.1193  0.2028
  172DOPC    C120923   3.002   5.740   8.497  0.2186 -0.5389  0.9228
  172DOPC    HA20924   3.082   5.774   8.428  0.2232 -0.1172  1.1323
  172DOPC    HB20925   3.027   5.636   8.526 -1.7245 -0.6971  2.2600
  172DOPC    C220926   3.008   5.835   8.616  0.2973 -0.1782 -0.0297
  172DOPC    HS20927   3.109   5.852   8.658  0.1961 -0.6638  0.4254
  172DOPC   O2120928   2.925   5.778   8.724 -0.3921  0.3667 -0.1024
  172DOPC   C2120929   2.980   5.683   8.807  0.1451  0.1237 -0.2425
  172DOPC   O2220930   3.101   5.668   8.821  0.1494  0.0439 -0.2309
  172DOPC   C2220931   2.872   5.603   8.890  0.8500 -0.1334  0.4690
  172DOPC   H2R20932   2.906   5.498   8.874  2.4342  0.5474 -0.9590
  172DOPC   H2S20933   2.773   5.625   8.844  1.5581  1.0605 -0.5334
  172DOPC    C320934   2.934   5.966   8.584 -0.1986  0.2006  0.3533
  172DOPC    HX20935   2.831   5.957   8.542 -0.0435  1.2028 -0.2658
  172DOPC    HY20936   2.997   6.001   8.500 -1.0664 -1.5060 -1.0716
  172DOPC   O3120937   2.942   6.059   8.696  0.4013  0.5911 -0.0169
  172DOPC   C3120938   2.834   6.068   8.770  0.1286 -0.7050  0.3721
  172DOPC   O3220939   2.726   6.014   8.743  0.0103 -0.0809 -0.6415
  172DOPC   C3220940   2.862   6.154   8.894 -0.2217 -0.5872 -0.4508
  172DOPC   H2X20941   2.952   6.112   8.943  2.2564  3.1952 -1.2980
  172DOPC   H2Y20942   2.901   6.253   8.859  0.9796 -1.2526 -1.0621
  172DOPC   C2320943   2.867   5.649   9.033 -0.0559 -0.0849 -0.8986
  172DOPC   H3R20944   2.966   5.650   9.083  0.4234  0.5288 -1.8202
  172DOPC   H3S20945   2.807   5.579   9.095  2.6684 -3.0156 -1.3045
  172DOPC   C2420946   2.824   5.794   9.049  0.3855 -0.3868 -0.0982
  172DOPC   H4R20947   2.724   5.790   9.000  0.8251 -2.0968 -0.9418
  172DOPC   H4S20948   2.885   5.868   8.994  0.9778 -0.7447  0.0705
  172DOPC   C2520949   2.803   5.839   9.193 -0.4641  0.2719  0.2907
  172DOPC   H5R20950   2.766   5.944   9.198 -0.2169  0.4906 -1.7890
  172DOPC   H5S20951   2.902   5.843   9.244 -0.6077  0.4965  0.5574
  172DOPC   C2620952   2.715   5.760   9.286 -0.2617  0.4417  0.3313
  172DOPC   H6R20953   2.762   5.661   9.303  1.1004  0.6463 -1.9078
  172DOPC   H6S20954   2.621   5.733   9.233  0.6061 -0.8347 -0.6139
  172DOPC   C2720955   2.673   5.831   9.413  0.4600  0.1057 -0.6324
  172DOPC   H7R20956   2.616   5.920   9.378  0.9328  0.2992 -0.9240
  172DOPC   H7S20957   2.754   5.868   9.479 -0.6652  2.1032 -0.2783
  172DOPC   C2820958   2.573   5.747   9.506  0.1378 -0.7074  0.3196
  172DOPC   H8R20959   2.542   5.801   9.598 -0.7003  0.7204 -0.7713
  172DOPC   H8S20960   2.640   5.670   9.551  0.7408  0.7001  1.9177
  172DOPC   C2920961   2.453   5.683   9.444 -0.7332 -0.9729 -0.2355
  172DOPC   H9R20962   2.432   5.712   9.341  1.0023  1.1640 -0.0635
  172DOPC  C21020963   2.357   5.619   9.520  0.6536  0.7411  1.0223
  172DOPC  H10R20964   2.266   5.574   9.479  1.3838  0.6918 -0.6443
  172DOPC  C21120965   2.364   5.596   9.667 -0.1928 -0.2550 -0.5938
  172DOPC  H11R20966   2.286   5.658   9.716  0.5942 -0.5839  1.1557
  172DOPC  H11S20967   2.464   5.623   9.710 -0.3706  0.0585 -0.3728
  172DOPC  C21220968   2.347   5.449   9.723 -0.5999 -0.4006  0.3050
  172DOPC  H12R20969   2.402   5.383   9.653 -0.2918  0.4248 -0.2463
  172DOPC  H12S20970   2.242   5.411   9.718 -0.3282 -1.2875  1.0281
  172DOPC  C21320971   2.407   5.438   9.856 -0.1124 -0.0700 -0.5816
  172DOPC  H13R20972   2.511   5.478   9.859 -0.0721  0.0087  4.1035
  172DOPC  H13S20973   2.421   5.331   9.885  0.6284  0.1835  0.0422
  172DOPC  C21420974   2.327   5.519   9.971 -0.3442 -0.7854  0.4815
  172DOPC  H14R20975   2.233   5.462   9.986 -0.5676 -0.7102 -0.5430
  172DOPC  H14S20976   2.302   5.619   9.931  1.1364 -0.4706  0.2732
  172DOPC  C21520977   2.412   5.527  10.095  1.0420 -0.8253  0.0677
  172DOPC  H15R20978   2.506   5.585  10.083  0.6835 -0.1925  0.2264
  172DOPC  H15S20979   2.423   5.425  10.138  1.0467  0.7345  4.3196
  172DOPC  C21620980   2.335   5.597  10.201  0.2253 -0.2548  0.5856
  172DOPC  H16R20981   2.240   5.540  10.201  0.6291 -0.9951 -1.2383
  172DOPC  H16S20982   2.308   5.699  10.164 -0.4167 -0.2983  0.9153
  172DOPC  C21720983   2.406   5.599  10.341 -0.4686 -0.5635  0.4131
  172DOPC  H17R20984   2.436   5.498  10.375  1.3818 -0.3501 -0.4788
  172DOPC  H17S20985   2.329   5.625  10.417 -1.8687 -0.5924 -0.9454
  172DOPC  C21820986   2.524   5.701  10.342  0.5485 -0.2641 -0.2997
  172DOPC  H18R20987   2.572   5.686  10.441 -0.2271  0.3324  0.1909
  172DOPC  H18S20988   2.493   5.808  10.333 -0.5321 -0.6426 -1.3771
  172DOPC  H18T20989   2.597   5.676  10.262 -0.3344 -0.2200 -1.1402
  172DOPC   C3320990   2.741   6.179   8.984 -0.0386  0.2629 -0.0322
  172DOPC   H3X20991   2.680   6.088   9.003 -1.0207  1.4567  3.3445
  172DOPC   H3Y20992   2.669   6.246   8.933 -0.6247  0.1966  0.6877
  172DOPC   C3420993   2.778   6.231   9.124  0.1220  0.0179 -0.1976
  172DOPC   H4X20994   2.838   6.158   9.181  0.8265 -0.1142 -1.0823
  172DOPC   H4Y20995   2.689   6.234   9.190  2.1332 -0.3274  2.6787
  172DOPC   C3520996   2.839   6.373   9.129 -0.5641 -0.5731  0.3980
  172DOPC   H5X20997   2.774   6.435   9.063 -0.1693 -0.1382  0.4122
  172DOPC   H5Y20998   2.942   6.391   9.092 -0.4420  0.4711  1.1749
  172DOPC   C3620999   2.853   6.433   9.268 -0.0852 -0.4840 -0.1106
  172DOPC   H6X21000   2.908   6.528   9.254 -1.6727  0.4383 -0.3319
  172DOPC   H6Y21001   2.757   6.460   9.317 -2.4331  1.2841 -5.0352
  172DOPC   C3721002   2.939   6.361   9.369  0.3968  0.3686 -0.2438
  172DOPC   H7X21003   3.020   6.308   9.313  1.4515  1.0575  0.5885
  172DOPC   H7Y21004   2.985   6.433   9.440  0.0923  0.0451  0.2876
  172DOPC   C3821005   2.866   6.259   9.462  0.6130  0.2667  0.5181
  172DOPC   H8X21006   2.950   6.203   9.509 -0.4102 -1.5717  0.2651
  172DOPC   H8Y21007   2.815   6.184   9.398 -0.0366 -1.3703  2.8249
  172DOPC   C3921008   2.765   6.318   9.555  0.0890  0.2597  0.3360
  172DOPC   H9X21009   2.666   6.339   9.513 -0.1476  0.2705  0.8932
  172DOPC  C31021010   2.780   6.341   9.686 -0.7325  0.1211  0.2358
  172DOPC  H10X21011   2.692   6.376   9.743  0.2144  3.1764 -0.0276
  172DOPC  C31121012   2.900   6.334   9.775  0.2748 -0.3950 -0.5296
  172DOPC  H11X21013   2.955   6.431   9.772  0.3896 -0.1957  3.2131
  172DOPC  H11Y21014   2.973   6.264   9.731 -1.5794 -2.9084  0.1682
  172DOPC  C31221015   2.870   6.298   9.921  0.8136  0.6192  0.1519
  172DOPC  H12X21016   2.830   6.194   9.913  0.7141  0.7670 -1.6727
  172DOPC  H12Y21017   2.789   6.364   9.959 -1.0137  0.0751 -2.4980
  172DOPC  C31321018   2.989   6.284  10.016  0.4190 -0.2938  0.7678
  172DOPC  H13X21019   3.066   6.213   9.981 -0.3415 -1.7163  1.8556
  172DOPC  H13Y21020   3.034   6.385  10.016  1.8570 -0.9120  0.8727
  172DOPC  C31421021   2.954   6.243  10.160  0.3516  0.0910 -0.0424
  172DOPC  H14X21022   2.911   6.329  10.215  1.7499 -0.8113  2.6644
  172DOPC  H14Y21023   2.883   6.157  10.172  0.8184 -0.5082 -1.3857
  172DOPC  C31521024   3.075   6.208  10.245 -0.3267  0.4291 -0.0984
  172DOPC  H15X21025   3.151   6.165  10.177  0.3445  1.6343 -0.1391
  172DOPC  H15Y21026   3.044   6.128  10.316  1.2164 -1.6468 -1.6619
  172DOPC  C31621027   3.136   6.331  10.320  0.3151  0.0976  0.0667
  172DOPC  H16X21028   3.237   6.295  10.351 -0.1869 -0.4185  1.1722
  172DOPC  H16Y21029   3.144   6.423  10.259  0.5452  1.2983  1.8388
  172DOPC  C31721030   3.068   6.362  10.457 -0.1407  0.2227  0.1940
  172DOPC  H17X21031   2.961   6.373  10.433  0.5204  0.9437 -2.8191
  172DOPC  H17Y21032   3.072   6.272  10.522 -0.6042 -0.0616 -0.1629
  172DOPC  C31821033   3.123   6.486  10.531  0.6297 -0.6379 -0.1001
  172DOPC  H18X21034   3.198   6.538  10.467  0.3502 -0.7063 -0.4873
  172DOPC  H18Y21035   3.039   6.554  10.555 -0.3411 -1.7177 -0.3445
  172DOPC  H18Z21036   3.170   6.454  10.626 -0.4623 -0.6611  0.4547
  173DOPC     N21037   2.046   5.257   8.430  0.1239 -0.2794  0.4839
  173DOPC   C1221038   2.167   5.265   8.521  0.3378  0.2272 -0.0824
  173DOPC  H12A21039   2.158   5.360   8.571 -0.2785  0.6811 -1.0307
  173DOPC  H12B21040   2.256   5.273   8.460  0.9682  1.8025  0.9902
  173DOPC   C1321041   2.044   5.138   8.344 -0.3113 -0.4416 -0.5113
  173DOPC  H13A21042   2.133   5.151   8.284  1.8120  0.1739  2.5313
  173DOPC  H13B21043   2.064   5.056   8.412  2.8923  2.7717  2.9085
  173DOPC  H13C21044   1.953   5.118   8.289 -0.5045 -3.3012  0.6997
  173DOPC   C1421045   2.047   5.373   8.340  0.4964 -0.0968  0.0427
  173DOPC  H14A21046   1.969   5.361   8.266 -1.3678 -3.7354  2.3518
  173DOPC  H14B21047   2.021   5.465   8.391  0.4789  0.2458 -0.5694
  173DOPC  H14C21048   2.146   5.391   8.301  1.6183  1.7609  3.3220
  173DOPC   C1521049   1.925   5.260   8.511  0.1375 -0.2602 -0.1361
  173DOPC  H15A21050   1.917   5.344   8.579  3.7631 -1.0682  1.5349
  173DOPC  H15B21051   1.920   5.168   8.568 -0.9369 -0.0236  0.1641
  173DOPC  H15C21052   1.836   5.268   8.452  1.1501 -1.1917 -1.8744
  173DOPC   C1121053   2.195   5.161   8.635 -0.0216 -0.8261 -0.1731
  173DOPC  H11A21054   2.282   5.200   8.692  1.2729 -1.3197 -1.7087
  173DOPC  H11B21055   2.106   5.170   8.701  0.4229  0.5551  0.2697
  173DOPC     P21056   2.343   4.992   8.511 -0.1402  0.0653  0.0044
  173DOPC   O1321057   2.418   5.114   8.460  0.4308  0.0640  0.1108
  173DOPC   O1421058   2.310   4.884   8.414 -0.2161  0.1960  0.2380
  173DOPC   O1221059   2.219   5.026   8.597  0.6208  0.7029  0.2475
  173DOPC   O1121060   2.436   4.937   8.625 -0.0879  0.5890  0.2053
  173DOPC    C121061   2.394   4.849   8.728  0.1354  0.2633  0.8921
  173DOPC    HA21062   2.463   4.761   8.727  1.2638  1.1260 -0.0015
  173DOPC    HB21063   2.291   4.812   8.711  0.2692 -0.2952  1.2540
  173DOPC    C221064   2.399   4.924   8.859  0.7304 -0.3979 -0.7534
  173DOPC    HS21065   2.339   5.016   8.840  0.0462  0.4106  4.0245
  173DOPC   O2121066   2.537   4.950   8.890  0.0774 -0.1968 -0.5117
  173DOPC   C2121067   2.573   5.077   8.871 -0.0557 -0.8282  0.1788
  173DOPC   O2221068   2.494   5.167   8.841  0.8675  0.3021  0.5600
  173DOPC   C2221069   2.717   5.096   8.914 -0.1378  0.2470  0.3812
  173DOPC   H2R21070   2.772   5.104   8.818 -1.0058  1.8030 -0.0187
  173DOPC   H2S21071   2.765   5.006   8.957 -0.6029  0.6312  1.7752
  173DOPC    C321072   2.337   4.831   8.970  0.1946  0.0134  0.6179
  173DOPC    HX21073   2.414   4.750   8.967 -0.0128 -0.1531 -0.6870
  173DOPC    HY21074   2.237   4.790   8.945 -0.3568  0.7923  1.4874
  173DOPC   O3121075   2.334   4.899   9.096 -0.4296 -0.0582  0.2092
  173DOPC   C3121076   2.274   4.832   9.191 -0.0323 -0.0155 -0.2845
  173DOPC   O3221077   2.226   4.720   9.175 -0.5902 -0.1697 -0.1903
  173DOPC   C3221078   2.246   4.907   9.321 -0.5902 -0.2266  0.7024
  173DOPC   H2X21079   2.225   5.015   9.300  1.5024  0.1003  0.0489
  173DOPC   H2Y21080   2.154   4.864   9.366 -0.4086 -1.7320 -0.3018
  173DOPC   C2321081   2.740   5.217   9.011 -1.0015 -0.2654 -0.2077
  173DOPC   H3R21082   2.701   5.314   8.975  0.6278  0.0348 -1.2903
  173DOPC   H3S21083   2.851   5.222   9.018 -1.1203  2.3572  0.8535
  173DOPC   C2421084   2.672   5.203   9.149 -0.8573 -0.6220  0.6106
  173DOPC   H4R21085   2.686   5.099   9.184 -2.0443 -0.3496  1.9918
  173DOPC   H4S21086   2.561   5.202   9.137 -0.8212 -0.8186  0.2576
  173DOPC   C2521087   2.722   5.309   9.249 -0.2352  0.1736  0.2554
  173DOPC   H5R21088   2.693   5.415   9.229  2.9980  1.3042  0.9149
  173DOPC   H5S21089   2.833   5.310   9.244 -0.2381  2.7319 -1.7173
  173DOPC   C2621090   2.679   5.279   9.398 -0.0815  0.1619  0.5200
  173DOPC   H6R21091   2.716   5.176   9.416  0.8472  0.4899  0.4976
  173DOPC   H6S21092   2.568   5.283   9.403  0.0084  1.9360  2.6607
  173DOPC   C2721093   2.746   5.382   9.491  0.6805 -0.7496  0.0059
  173DOPC   H7R21094   2.726   5.487   9.462  0.9691 -0.4260  0.9364
  173DOPC   H7S21095   2.857   5.374   9.494  0.5770 -2.1709  2.5043
  173DOPC   C2821096   2.706   5.358   9.637  0.1550 -0.3097 -0.3192
  173DOPC   H8R21097   2.706   5.249   9.659 -1.6114 -0.0984  0.9339
  173DOPC   H8S21098   2.598   5.381   9.644 -0.7776 -4.4298  4.6225
  173DOPC   C2921099   2.781   5.447   9.730  0.6677  0.4142 -0.3047
  173DOPC   H9R21100   2.799   5.551   9.700 -1.5243  0.1964 -2.8089
  173DOPC  C21021101   2.840   5.404   9.844  0.3272 -0.3323 -0.0118
  173DOPC  H10R21102   2.885   5.478   9.912  0.6382 -0.7713  0.2620
  173DOPC  C21121103   2.838   5.267   9.900  0.4556  0.6323 -0.7297
  173DOPC  H11R21104   2.939   5.244   9.940  1.0839  1.7770 -1.6256
  173DOPC  H11S21105   2.804   5.193   9.825  2.0038 -0.6312 -0.2349
  173DOPC  C21221106   2.734   5.263  10.022  0.4337  0.1096  0.4816
  173DOPC  H12R21107   2.723   5.155  10.046  1.6461 -1.0801 -3.4760
  173DOPC  H12S21108   2.630   5.296  10.000  0.6190  2.2597  2.5286
  173DOPC  C21321109   2.766   5.352  10.148 -0.2344  0.1202 -0.2831
  173DOPC  H13R21110   2.727   5.454  10.133  0.3047  0.6311  1.5875
  173DOPC  H13S21111   2.877   5.356  10.147 -0.0072 -1.2384  3.7247
  173DOPC  C21421112   2.705   5.317  10.285  0.4393 -0.0280 -0.1082
  173DOPC  H14R21113   2.709   5.206  10.292 -0.2236 -0.0657 -0.2666
  173DOPC  H14S21114   2.597   5.342  10.288  0.0510 -1.5569 -0.3845
  173DOPC  C21521115   2.769   5.379  10.399 -1.1161 -0.1285 -0.4295
  173DOPC  H15R21116   2.718   5.476  10.419  0.2927  0.7650 -0.9815
  173DOPC  H15S21117   2.875   5.400  10.371 -0.5975  0.7090  1.9357
  173DOPC  C21621118   2.750   5.292  10.527  0.1309  0.3806 -0.1085
  173DOPC  H16R21119   2.819   5.339  10.601 -1.1445  1.6771  0.3038
  173DOPC  H16S21120   2.780   5.186  10.509 -1.3695 -0.0206 -0.3489
  173DOPC  C21721121   2.616   5.299  10.601  0.2235  0.2600  0.4642
  173DOPC  H17R21122   2.530   5.262  10.540  1.7887 -0.4193 -1.4246
  173DOPC  H17S21123   2.590   5.400  10.639 -0.9257  0.0032  0.3926
  173DOPC  C21821124   2.632   5.216  10.729  0.5524 -0.2312 -0.1108
  173DOPC  H18R21125   2.695   5.270  10.803  0.0739 -1.2034  1.0489
  173DOPC  H18S21126   2.673   5.114  10.713  0.5231 -0.6123  1.8896
  173DOPC  H18T21127   2.532   5.205  10.778  0.7494 -0.6062  0.2171
  173DOPC   C3321128   2.366   4.894   9.419  1.3422  0.3978  0.5890
  173DOPC   H3X21129   2.463   4.901   9.366  0.8212  1.3313 -0.2607
  173DOPC   H3Y21130   2.370   4.789   9.457 -1.9926 -0.2075 -0.4057
  173DOPC   C3421131   2.337   4.991   9.533 -0.7967 -0.4300 -0.4025
  173DOPC   H4X21132   2.242   4.959   9.581  0.0867 -2.6876 -0.0397
  173DOPC   H4Y21133   2.322   5.092   9.488 -0.6022 -0.5828 -0.8142
  173DOPC   C3521134   2.447   4.993   9.641 -0.0041 -0.4541  0.1841
  173DOPC   H5X21135   2.544   5.034   9.606 -1.4600  2.6291 -0.5416
  173DOPC   H5Y21136   2.458   4.888   9.676 -1.1688 -0.4712  0.5454
  173DOPC   C3621137   2.390   5.060   9.760  0.2672 -0.3584  0.0472
  173DOPC   H6X21138   2.384   5.169   9.738 -0.1587 -0.5957 -1.0786
  173DOPC   H6Y21139   2.283   5.041   9.782 -0.0854 -0.5105 -1.7110
  173DOPC   C3721140   2.490   5.045   9.877  0.1220  0.3556 -0.1785
  173DOPC   H7X21141   2.593   5.055   9.836  0.2984  0.8266  0.3661
  173DOPC   H7Y21142   2.480   5.128   9.950  1.2357  2.1748 -2.0150
  173DOPC   C3821143   2.482   4.908   9.960  0.6103 -0.5890 -0.5869
  173DOPC   H8X21144   2.453   4.820   9.898 -2.5112 -0.5404  0.6344
  173DOPC   H8Y21145   2.398   4.921  10.030  2.1513  1.4863  1.0105
  173DOPC   C3921146   2.609   4.886  10.037 -1.0020  0.7369  0.2984
  173DOPC   H9X21147   2.700   4.861   9.979 -0.7525  1.4896  0.3512
  173DOPC  C31021148   2.626   4.913  10.172 -0.3030 -0.6892  0.4397
  173DOPC  H10X21149   2.723   4.888  10.217  0.4709  0.9133 -0.2210
  173DOPC  C31121150   2.518   4.969  10.262 -0.2300 -0.1929 -0.4605
  173DOPC  H11X21151   2.421   4.982  10.210 -0.5312 -0.7107 -0.0353
  173DOPC  H11Y21152   2.540   5.073  10.296 -1.4956  0.3514 -1.2566
  173DOPC  C31221153   2.497   4.868  10.379  0.2579 -0.0316 -0.3292
  173DOPC  H12X21154   2.508   4.766  10.336 -0.5308 -0.6155  0.8060
  173DOPC  H12Y21155   2.392   4.886  10.412  0.3327 -0.4393  0.1442
  173DOPC  C31321156   2.588   4.889  10.501 -0.6088  0.3651  0.3808
  173DOPC  H13X21157   2.685   4.847  10.466 -1.2014  2.3603 -4.4821
  173DOPC  H13Y21158   2.612   4.995  10.523 -1.9715  0.3268  2.2436
  173DOPC  C31421159   2.540   4.817  10.623  0.3502 -0.1806  0.1089
  173DOPC  H14X21160   2.437   4.854  10.641  0.4557 -0.3750  1.1696
  173DOPC  H14Y21161   2.538   4.708  10.602  0.3766 -0.6174  2.1272
  173DOPC  C31521162   2.614   4.836  10.755 -0.5217 -0.6820 -1.1301
  173DOPC  H15X21163   2.593   4.755  10.828  0.8803  1.7391  2.2258
  173DOPC  H15Y21164   2.582   4.930  10.805  1.9598  0.0740 -0.8362
  173DOPC  C31621165   2.763   4.846  10.739 -0.1313 -0.1571 -0.3943
  173DOPC  H16X21166   2.795   4.749  10.694  0.3376 -0.7114  1.0947
  173DOPC  H16Y21167   2.788   4.937  10.680  2.7932 -0.0197  0.8683
  173DOPC  C31721168   2.827   4.869  10.875 -0.0736  0.6422 -0.0344
  173DOPC  H17X21169   2.776   4.952  10.927 -0.9622 -0.2086  0.4757
  173DOPC  H17Y21170   2.799   4.786  10.944  1.5590  0.0910  0.0062
  173DOPC  C31821171   2.973   4.874  10.882 -0.0049  0.4129 -0.4088
  173DOPC  H18X21172   3.007   4.939  10.799 -0.9808  0.9414 -0.4131
  173DOPC  H18Y21173   3.014   4.916  10.976  0.1951 -1.8321  0.5722
  173DOPC  H18Z21174   3.010   4.769  10.873 -2.8955 -0.7094 -0.2542
  174DOPC     N21175   4.659   4.200   8.741 -0.7140  0.4903 -0.5820
  174DOPC   C1221176   4.693   4.338   8.790  0.4564 -0.3468  0.7334
  174DOPC  H12A21177   4.608   4.400   8.814 -1.1510 -1.9277 -0.7212
  174DOPC  H12B21178   4.723   4.389   8.700 -2.6625  0.1689 -0.1300
  174DOPC   C1321179   4.605   4.107   8.848 -0.0092 -0.4212 -0.3124
  174DOPC  H13A21180   4.543   4.036   8.795  0.2030 -0.7218 -0.1592
  174DOPC  H13B21181   4.689   4.069   8.904  0.2400  3.3028  2.2361
  174DOPC  H13C21182   4.553   4.162   8.925  0.1977 -0.3924 -0.1927
  174DOPC   C1421183   4.773   4.131   8.672 -0.3295  0.3579  0.2175
  174DOPC  H14A21184   4.743   4.028   8.660 -0.2059  0.6308 -3.9560
  174DOPC  H14B21185   4.789   4.179   8.576 -0.5397  0.5757  0.2909
  174DOPC  H14C21186   4.863   4.149   8.728 -0.5797  2.0012  0.1253
  174DOPC   C1521187   4.545   4.212   8.644  0.2484 -0.4101  0.1637
  174DOPC  H15A21188   4.571   4.276   8.561  0.7471 -1.0190 -0.1584
  174DOPC  H15B21189   4.458   4.243   8.700 -0.1925 -0.5063 -0.4603
  174DOPC  H15C21190   4.517   4.120   8.595 -1.8411  0.1698  0.1615
  174DOPC   C1121191   4.796   4.353   8.903 -0.6285 -0.0463  0.3180
  174DOPC  H11A21192   4.787   4.457   8.940 -0.7587  1.0593 -2.5509
  174DOPC  H11B21193   4.774   4.292   8.993  1.5854  0.0505  0.9783
  174DOPC     P21194   5.038   4.424   8.851  0.4309  0.0504  0.5765
  174DOPC   O1321195   4.982   4.541   8.781  0.0711 -0.2017  0.1888
  174DOPC   O1421196   5.155   4.367   8.785  0.2534 -0.3927 -0.1986
  174DOPC   O1221197   4.927   4.311   8.861  0.3712 -0.0856 -0.4689
  174DOPC   O1121198   5.063   4.471   9.003  0.1704  0.1150  0.5113
  174DOPC    C121199   5.137   4.369   9.078  0.7082 -0.5429  0.2256
  174DOPC    HA21200   5.243   4.372   9.046  0.2189  0.3065 -1.4857
  174DOPC    HB21201   5.107   4.264   9.058 -2.6530 -0.2308  2.7908
  174DOPC    C221202   5.126   4.395   9.224 -0.5583 -0.0677  0.0553
  174DOPC    HS21203   5.192   4.319   9.271  0.0556  1.6826  2.2011
  174DOPC   O2121204   4.990   4.360   9.275 -0.6432 -0.5373 -0.3512
  174DOPC   C2121205   4.968   4.234   9.288  0.0887  0.7023  0.2515
  174DOPC   O2221206   5.050   4.139   9.283 -0.3013 -0.3098 -0.1917
  174DOPC   C2221207   4.816   4.208   9.296 -0.4966 -0.6041 -0.0630
  174DOPC   H2R21208   4.776   4.207   9.192  0.5193  0.8275 -0.5030
  174DOPC   H2S21209   4.779   4.298   9.350  0.3209  0.0042 -0.4903
  174DOPC    C321210   5.156   4.533   9.271 -1.4932 -0.9008  0.4202
  174DOPC    HX21211   5.075   4.604   9.241 -2.1019 -2.3987 -1.7233
  174DOPC    HY21212   5.245   4.569   9.216 -1.3885 -2.5062 -0.5231
  174DOPC   O3121213   5.183   4.542   9.411  0.2916 -0.3052  0.0172
  174DOPC   C3121214   5.285   4.473   9.455  0.8626  0.7747  1.0735
  174DOPC   O3221215   5.382   4.435   9.387 -0.1375 -0.6231 -0.1330
  174DOPC   C3221216   5.262   4.444   9.605 -0.3280 -0.3631 -0.1648
  174DOPC   H2X21217   5.168   4.385   9.608 -3.2498  3.8624  2.1166
  174DOPC   H2Y21218   5.342   4.374   9.637  0.0248  0.5758  1.0797
  174DOPC   C2321219   4.780   4.082   9.379 -0.2178  0.5363 -0.2203
  174DOPC   H3R21220   4.803   4.066   9.487 -1.3219  1.0414  0.1078
  174DOPC   H3S21221   4.819   3.994   9.324 -0.8999 -0.5288  0.9470
  174DOPC   C2421222   4.630   4.057   9.386  0.1524  0.0744  0.4637
  174DOPC   H4R21223   4.586   4.056   9.284  0.6023 -1.8472  0.2621
  174DOPC   H4S21224   4.589   4.149   9.435 -0.8810 -1.5774  2.8911
  174DOPC   C2521225   4.577   3.940   9.469  0.2458  0.8210 -0.2430
  174DOPC   H5R21226   4.616   3.847   9.422  0.9666  0.5312  0.8777
  174DOPC   H5S21227   4.467   3.944   9.459 -0.3957 -2.8237  2.7207
  174DOPC   C2621228   4.604   3.943   9.623  0.3493 -0.6420  0.7253
  174DOPC   H6R21229   4.557   4.034   9.665 -0.2907 -0.1886 -0.8977
  174DOPC   H6S21230   4.713   3.937   9.644  0.2707 -0.3793  1.2379
  174DOPC   C2721231   4.531   3.829   9.696 -0.5810  1.1413 -0.0475
  174DOPC   H7R21232   4.545   3.733   9.643 -0.2510  0.8312  0.6013
  174DOPC   H7S21233   4.422   3.848   9.696 -0.8208 -0.1557  0.2907
  174DOPC   C2821234   4.563   3.819   9.844  0.3680 -0.1635  0.0896
  174DOPC   H8R21235   4.481   3.773   9.903 -0.6611  1.6921  0.1860
  174DOPC   H8S21236   4.581   3.921   9.884  0.6397 -0.5314  0.9392
  174DOPC   C2921237   4.696   3.747   9.865  0.3205 -0.2056  0.3947
  174DOPC   H9R21238   4.752   3.732   9.772 -1.0175 -0.0579 -0.4605
  174DOPC  C21021239   4.760   3.724   9.978  0.1475  0.7499 -0.1070
  174DOPC  H10R21240   4.850   3.659   9.978 -1.5839 -1.8224 -0.8604
  174DOPC  C21121241   4.707   3.741  10.114  0.4360  0.8421 -0.2564
  174DOPC  H11R21242   4.597   3.752  10.110  0.2796 -0.8762 -2.2989
  174DOPC  H11S21243   4.748   3.842  10.136  1.0631  0.1577  1.9818
  174DOPC  C21221244   4.742   3.632  10.225  0.6304 -0.1570 -0.6861
  174DOPC  H12R21245   4.852   3.622  10.236  0.7178  2.5730  2.2870
  174DOPC  H12S21246   4.703   3.533  10.192  0.8013 -0.3998 -0.1783
  174DOPC  C21321247   4.673   3.668  10.360 -0.7032  0.0498  0.3671
  174DOPC  H13R21248   4.569   3.631  10.351  0.7852 -4.5241 -0.6814
  174DOPC  H13S21249   4.670   3.776  10.386 -0.9044 -0.1953  1.4466
  174DOPC  C21421250   4.737   3.600  10.478  0.3064 -0.8363  0.6630
  174DOPC  H14R21251   4.848   3.599  10.484  0.4978  1.1422 -1.5571
  174DOPC  H14S21252   4.710   3.492  10.473 -1.3668 -0.4323  0.1991
  174DOPC  C21521253   4.688   3.649  10.612 -0.1596  0.1865 -0.1898
  174DOPC  H15R21254   4.578   3.667  10.603 -0.0777  0.7320 -0.1565
  174DOPC  H15S21255   4.716   3.754  10.637 -2.0311  0.7062 -0.0724
  174DOPC  C21621256   4.729   3.550  10.719  0.6414  0.0636 -0.0082
  174DOPC  H16R21257   4.837   3.555  10.747  1.9494 -0.2381 -4.3218
  174DOPC  H16S21258   4.704   3.449  10.680  0.7401 -1.4756  3.5425
  174DOPC  C21721259   4.643   3.564  10.846  0.1958 -0.3456  0.3189
  174DOPC  H17R21260   4.534   3.556  10.829 -0.1072  3.1928 -0.1120
  174DOPC  H17S21261   4.674   3.664  10.883  2.8815 -1.0565  0.1992
  174DOPC  C21821262   4.679   3.459  10.950  0.0651 -0.3661 -1.3134
  174DOPC  H18R21263   4.646   3.491  11.051 -0.2465  2.6915 -2.2582
  174DOPC  H18S21264   4.789   3.447  10.962  0.2489  2.1529  0.3370
  174DOPC  H18T21265   4.649   3.357  10.920 -1.6434 -0.0720 -0.7350
  174DOPC   C3321266   5.255   4.556   9.707 -0.7548 -0.6057 -0.2805
  174DOPC   H3X21267   5.166   4.620   9.687 -0.1314  0.1001 -0.8217
  174DOPC   H3Y21268   5.338   4.629   9.702 -0.5909 -0.6429  1.2544
  174DOPC   C3421269   5.257   4.495   9.853 -0.1006 -0.8432 -0.3056
  174DOPC   H4X21270   5.270   4.579   9.924  0.1990 -1.7533  0.7419
  174DOPC   H4Y21271   5.348   4.433   9.863  0.7407  0.3102 -0.6598
  174DOPC   C3521272   5.135   4.409   9.882 -0.0197 -0.3554 -0.1270
  174DOPC   H5X21273   5.135   4.315   9.823 -2.0673 -0.5556  0.1113
  174DOPC   H5Y21274   5.046   4.468   9.850  0.3876  0.2977 -0.0762
  174DOPC   C3621275   5.108   4.377  10.031 -0.1376 -0.6064 -0.3833
  174DOPC   H6X21276   5.021   4.308  10.038 -0.6450  0.1986  2.5190
  174DOPC   H6Y21277   5.195   4.319  10.068  0.4425  1.0332  0.9234
  174DOPC   C3721278   5.082   4.496  10.130 -0.4388 -0.5930  0.0740
  174DOPC   H7X21279   5.180   4.547  10.137 -0.6332 -0.4574  2.9566
  174DOPC   H7Y21280   5.003   4.557  10.082 -0.0583  0.0439  0.2429
  174DOPC   C3821281   5.030   4.467  10.270  0.2059  0.6060  0.1548
  174DOPC   H8X21282   4.932   4.417  10.252  0.7931  0.3158 -2.6241
  174DOPC   H8Y21283   5.013   4.569  10.310  1.6313  1.9110 -2.3550
  174DOPC   C3921284   5.121   4.381  10.351 -0.3269 -0.4242  0.3532
  174DOPC   H9X21285   5.189   4.322  10.288 -3.1315 -3.0101 -0.5320
  174DOPC  C31021286   5.142   4.392  10.488 -0.1835 -0.0727 -0.4585
  174DOPC  H10X21287   5.201   4.317  10.543 -0.8973  0.7745  1.5292
  174DOPC  C31121288   5.061   4.463  10.588 -0.3584  0.6889  0.1155
  174DOPC  H11X21289   5.012   4.548  10.536 -1.3831 -0.4304 -0.8169
  174DOPC  H11Y21290   5.132   4.498  10.666  2.5632  1.0597 -2.5069
  174DOPC  C31221291   4.946   4.377  10.649  0.9454  0.4283 -0.4122
  174DOPC  H12X21292   4.983   4.274  10.673  0.2436  0.6888  2.0687
  174DOPC  H12Y21293   4.868   4.369  10.571 -0.3645 -2.4531  1.0321
  174DOPC  C31321294   4.892   4.447  10.779 -0.0216  0.9047  0.2977
  174DOPC  H13X21295   4.860   4.549  10.750  1.1023  2.4746  3.9762
  174DOPC  H13Y21296   4.807   4.385  10.817  2.3401 -3.1369 -0.4220
  174DOPC  C31421297   4.985   4.442  10.899  0.6243 -0.3111  0.9277
  174DOPC  H14X21298   4.996   4.333  10.918  1.7727 -1.0980 -3.2229
  174DOPC  H14Y21299   5.083   4.489  10.874  0.2242  0.3069  0.5268
  174DOPC  C31521300   4.931   4.519  11.022  0.1647  0.0206 -0.1039
  174DOPC  H15X21301   4.840   4.463  11.054  0.0562 -0.5936 -1.4012
  174DOPC  H15Y21302   4.908   4.626  11.006 -0.9322 -0.2017 -0.0612
  174DOPC  C31621303   5.026   4.518  11.150  0.2327 -0.7805  0.4938
  174DOPC  H16X21304   5.112   4.575  11.109 -0.6481  0.1677 -0.0837
  174DOPC  H16Y21305   4.984   4.590  11.223 -0.7937 -0.5870 -0.2704
  174DOPC  C31721306   5.083   4.390  11.209 -0.3285  0.8832 -0.4324
  174DOPC  H17X21307   5.008   4.310  11.229 -0.2624  0.1397 -2.9001
  174DOPC  H17Y21308   5.139   4.351  11.122  0.6050  0.8110  0.1948
  174DOPC  C31821309   5.174   4.402  11.332  0.0885  0.2055 -0.0585
  174DOPC  H18X21310   5.202   4.304  11.377 -1.9017 -0.5268 -0.3519
  174DOPC  H18Y21311   5.259   4.462  11.291 -0.3275  2.5602  2.1861
  174DOPC  H18Z21312   5.130   4.457  11.419  0.3199 -1.1850  0.9732
  175DOPC     N21313   3.044   1.414   8.317  0.1306  0.3014 -0.3752
  175DOPC   C1221314   3.061   1.336   8.449  0.4668 -0.8371  0.8695
  175DOPC  H12A21315   3.161   1.298   8.464  0.5177 -1.2968 -0.5002
  175DOPC  H12B21316   2.995   1.252   8.439  1.8501 -1.7874 -0.9788
  175DOPC   C1321317   3.144   1.521   8.324 -0.7587 -0.1611 -0.0860
  175DOPC  H13A21318   3.120   1.592   8.401  0.8700 -1.4453  1.7199
  175DOPC  H13B21319   3.239   1.486   8.362  0.2582  0.5570 -1.8547
  175DOPC  H13C21320   3.161   1.571   8.230  0.5911  0.0181  0.2325
  175DOPC   C1421321   2.905   1.473   8.311 -0.3078  0.3253  0.0720
  175DOPC  H14A21322   2.921   1.568   8.263  1.4313  0.3188  0.5735
  175DOPC  H14B21323   2.837   1.405   8.262  1.4295 -1.0344 -0.5867
  175DOPC  H14C21324   2.877   1.497   8.413  0.1176  0.0069  0.2669
  175DOPC   C1521325   3.067   1.336   8.192  0.4948  0.0458 -0.4540
  175DOPC  H15A21326   3.170   1.302   8.185  0.3752 -0.0044 -3.0378
  175DOPC  H15B21327   3.052   1.400   8.106 -1.7555  1.0095  0.5799
  175DOPC  H15C21328   3.007   1.247   8.179  2.1331 -1.0729 -0.6975
  175DOPC   C1121329   3.033   1.416   8.584  0.1783  0.2407  0.2522
  175DOPC  H11A21330   3.081   1.357   8.664  0.4052 -1.2842 -0.9617
  175DOPC  H11B21331   3.089   1.512   8.585 -0.4680  0.7047  3.7426
  175DOPC     P21332   2.805   1.310   8.644  0.3224  0.3876 -0.3101
  175DOPC   O1321333   2.859   1.185   8.583 -0.2810 -0.8897 -0.4800
  175DOPC   O1421334   2.666   1.336   8.600  0.5615  0.0658 -0.7108
  175DOPC   O1221335   2.895   1.440   8.615 -0.1751  0.3420  0.3661
  175DOPC   O1121336   2.805   1.289   8.803 -0.3531  0.8147 -0.2409
  175DOPC    C121337   2.828   1.410   8.878 -0.2564  0.4401 -0.0468
  175DOPC    HA21338   2.766   1.496   8.845  0.4149  0.3355 -1.6708
  175DOPC    HB21339   2.934   1.440   8.866 -0.7736  2.6652  0.5315
  175DOPC    C221340   2.801   1.400   9.033 -0.2605  0.5115 -0.2651
  175DOPC    HS21341   2.859   1.313   9.071 -3.0512 -0.8666  1.1289
  175DOPC   O2121342   2.664   1.358   9.055 -0.3281  0.2966  0.4479
  175DOPC   C2121343   2.648   1.269   9.152  0.4502  0.2338 -0.0081
  175DOPC   O2221344   2.737   1.214   9.211 -0.0181 -0.4258 -0.1019
  175DOPC   C2221345   2.503   1.233   9.180 -0.3156 -0.7555 -0.0301
  175DOPC   H2R21346   2.503   1.141   9.241 -0.0816  0.6893  2.2781
  175DOPC   H2S21347   2.458   1.200   9.084  1.5259  1.8248 -1.9321
  175DOPC    C321348   2.843   1.532   9.110 -0.5602  0.2513 -0.0639
  175DOPC    HX21349   2.786   1.610   9.056  1.7833  0.7806 -1.9249
  175DOPC    HY21350   2.947   1.566   9.091 -1.1366  0.9232 -2.3005
  175DOPC   O3121351   2.804   1.526   9.248 -0.1801  0.1136  0.9842
  175DOPC   C3121352   2.895   1.470   9.324 -0.1179 -0.1787 -0.1281
  175DOPC   O3221353   3.009   1.440   9.287 -0.0130 -0.0799 -0.0296
  175DOPC   C3221354   2.844   1.456   9.467  0.3662  0.0675  0.2685
  175DOPC   H2X21355   2.805   1.556   9.497 -0.2969  0.2009 -0.9311
  175DOPC   H2Y21356   2.763   1.381   9.454  0.0809  0.5428 -0.8911
  175DOPC   C2321357   2.409   1.340   9.239  0.0730  0.5347  0.8994
  175DOPC   H3R21358   2.308   1.298   9.218  0.8282 -0.4739 -0.9212
  175DOPC   H3S21359   2.414   1.439   9.188 -2.0702  0.2044 -0.0542
  175DOPC   C2421360   2.433   1.356   9.383  0.1935 -0.0911 -0.1187
  175DOPC   H4R21361   2.539   1.387   9.397  0.8933 -2.9802  1.8622
  175DOPC   H4S21362   2.414   1.259   9.433 -1.1614  0.1189 -0.1644
  175DOPC   C2521363   2.342   1.461   9.447  0.0114 -0.1256 -0.0217
  175DOPC   H5R21364   2.236   1.434   9.427  0.6241 -1.1218 -2.2411
  175DOPC   H5S21365   2.372   1.561   9.409 -0.5881 -0.4425 -1.4176
  175DOPC   C2621366   2.373   1.473   9.597 -0.1725 -0.1828  0.2678
  175DOPC   H6R21367   2.323   1.566   9.633  2.9622  1.3575  0.9121
  175DOPC   H6S21368   2.480   1.482   9.622 -0.0166 -3.7708  1.5074
  175DOPC   C2721369   2.306   1.354   9.675 -0.5885 -0.7883 -0.0995
  175DOPC   H7R21370   2.354   1.258   9.649 -2.3112 -1.3190 -1.5106
  175DOPC   H7S21371   2.200   1.357   9.642 -0.2416 -0.1821 -1.2188
  175DOPC   C2821372   2.322   1.374   9.832  0.3408  0.3085 -0.1418
  175DOPC   H8R21373   2.284   1.477   9.848  1.2053  0.2152  3.3317
  175DOPC   H8S21374   2.428   1.364   9.863  0.0212 -1.5850  0.4528
  175DOPC   C2921375   2.234   1.285   9.925  0.2166 -0.2728  0.4608
  175DOPC   H9R21376   2.238   1.179   9.896 -2.1257 -0.4767  0.6983
  175DOPC  C21021377   2.165   1.336  10.035  0.5458  0.6023 -0.6308
  175DOPC  H10R21378   2.122   1.267  10.110 -0.7337  3.2085  1.2124
  175DOPC  C21121379   2.148   1.477  10.074  0.3930 -0.1522 -0.0212
  175DOPC  H11R21380   2.062   1.523  10.022  0.4378 -1.3681 -1.2320
  175DOPC  H11S21381   2.232   1.534  10.029 -1.6992  0.4951 -3.3917
  175DOPC  C21221382   2.149   1.512  10.224 -0.1617  0.7264  0.3530
  175DOPC  H12R21383   2.140   1.623  10.221  0.0966  0.9165  3.2420
  175DOPC  H12S21384   2.247   1.487  10.269  0.1767 -0.1754 -0.8482
  175DOPC  C21321385   2.029   1.453  10.293  0.1147  0.5340 -0.0294
  175DOPC  H13R21386   2.049   1.344  10.293  2.1169  0.8616 -1.6144
  175DOPC  H13S21387   1.931   1.468  10.243 -0.2562 -0.1077  0.4781
  175DOPC  C21421388   2.023   1.491  10.436  0.0521 -0.1377  0.8378
  175DOPC  H14R21389   1.919   1.488  10.475  0.3765 -1.7849  1.6481
  175DOPC  H14S21390   2.062   1.594  10.455  0.7267 -0.4332  1.1087
  175DOPC  C21521391   2.090   1.400  10.538 -0.1370  0.1708 -0.3673
  175DOPC  H15R21392   2.196   1.402  10.507 -0.2166 -0.5139 -0.7015
  175DOPC  H15S21393   2.053   1.296  10.521  1.8608 -0.4944 -0.9687
  175DOPC  C21621394   2.090   1.429  10.685  0.5318  0.1256 -0.8432
  175DOPC  H16R21395   1.996   1.421  10.744  1.5185 -1.6505  0.5588
  175DOPC  H16S21396   2.128   1.533  10.694  1.0438 -0.2067  1.6831
  175DOPC  C21721397   2.199   1.330  10.757  0.5185 -0.1973  0.5674
  175DOPC  H17R21398   2.297   1.355  10.711 -0.8380  0.9664 -1.8623
  175DOPC  H17S21399   2.173   1.223  10.738 -1.7489 -0.2259  3.1455
  175DOPC  C21821400   2.196   1.334  10.909 -0.7091  0.2776  0.5982
  175DOPC  H18R21401   2.212   1.440  10.939 -1.7818  1.5626 -2.9044
  175DOPC  H18S21402   2.275   1.274  10.960 -1.6195 -0.8248  0.7487
  175DOPC  H18T21403   2.095   1.299  10.938 -0.4778  0.7716  2.0813
  175DOPC   C3321404   2.949   1.403   9.566  0.6464 -0.0759 -0.1335
  175DOPC   H3X21405   3.031   1.478   9.574  0.9867 -0.6270  2.1188
  175DOPC   H3Y21406   2.980   1.300   9.537 -3.4880 -1.5135 -0.1029
  175DOPC   C3421407   2.887   1.392   9.704 -0.3883  0.5173  1.0085
  175DOPC   H4X21408   2.964   1.341   9.766 -1.6026 -0.3491  1.8680
  175DOPC   H4Y21409   2.795   1.329   9.706  0.5251 -0.8879  0.2069
  175DOPC   C3521410   2.858   1.526   9.781  0.4255  0.4048  0.0723
  175DOPC   H5X21411   2.756   1.550   9.746  0.1938 -0.5597  0.0497
  175DOPC   H5Y21412   2.927   1.605   9.744 -1.3407  1.6156 -0.7298
  175DOPC   C3621413   2.871   1.519   9.932 -0.0804  0.0341 -0.3487
  175DOPC   H6X21414   2.801   1.587   9.984 -0.2476 -0.8431  0.6026
  175DOPC   H6Y21415   2.848   1.417   9.969  1.4020 -0.1349  0.1908
  175DOPC   C3721416   3.005   1.555   9.993  0.2069  0.3700  0.3654
  175DOPC   H7X21417   3.081   1.503   9.930  0.8054  4.4292 -2.7132
  175DOPC   H7Y21418   3.024   1.663   9.975  2.0235 -0.1055 -0.8908
  175DOPC   C3821419   3.015   1.516  10.140  0.7561 -0.3492 -0.3646
  175DOPC   H8X21420   3.119   1.519  10.179  0.5156  0.1468  0.2580
  175DOPC   H8Y21421   2.987   1.409  10.141 -0.2618 -0.0942 -1.1239
  175DOPC   C3921422   2.918   1.594  10.232  0.4083 -0.5691 -0.1997
  175DOPC   H9X21423   2.812   1.588  10.203 -0.3622 -0.9069  2.4041
  175DOPC  C31021424   2.946   1.672  10.341  0.7251  0.3912  0.3343
  175DOPC  H10X21425   2.864   1.727  10.391 -2.0748  0.8552 -4.2356
  175DOPC  C31121426   3.075   1.683  10.406 -0.0968 -0.4093 -0.5082
  175DOPC  H11X21427   3.121   1.784  10.398 -0.8523 -0.0898 -0.9358
  175DOPC  H11Y21428   3.152   1.617  10.359  0.6600 -1.2075  1.6847
  175DOPC  C31221429   3.071   1.649  10.557  0.1046 -0.1321  0.5572
  175DOPC  H12X21430   3.033   1.545  10.574  0.1859  0.0039  1.7013
  175DOPC  H12Y21431   3.002   1.717  10.611  1.0642  2.3285 -1.1305
  175DOPC  C31321432   3.196   1.655  10.639  0.0374  0.2087 -0.8438
  175DOPC  H13X21433   3.271   1.594  10.583  0.1941  0.5077 -0.9605
  175DOPC  H13Y21434   3.235   1.758  10.655 -0.0363 -0.1034  1.7527
  175DOPC  C31421435   3.176   1.597  10.784  0.0220  0.2368  0.5013
  175DOPC  H14X21436   3.095   1.648  10.840 -0.8103 -1.0849  0.5518
  175DOPC  H14Y21437   3.143   1.491  10.777  1.1591 -0.0976 -0.1706
  175DOPC  C31521438   3.310   1.585  10.860  0.4255  0.1010  0.3773
  175DOPC  H15X21439   3.352   1.687  10.877  2.1373 -0.9660  3.3000
  175DOPC  H15Y21440   3.376   1.526  10.792  0.5864 -1.4897  1.8395
  175DOPC  C31621441   3.294   1.518  10.997 -0.3767 -0.2979 -0.3569
  175DOPC  H16X21442   3.222   1.582  11.053  1.0372  0.1537  1.0043
  175DOPC  H16Y21443   3.245   1.419  10.989  0.2352 -1.1275  3.9225
  175DOPC  C31721444   3.430   1.489  11.064  0.1095 -0.3224 -0.4831
  175DOPC  H17X21445   3.492   1.427  10.996  0.6790  2.5588 -2.8062
  175DOPC  H17Y21446   3.481   1.587  11.078  3.5553 -2.1528  0.9110
  175DOPC  C31821447   3.412   1.429  11.195 -0.5178 -0.4989  0.8026
  175DOPC  H18X21448   3.348   1.338  11.194 -0.4530 -0.5402  0.0614
  175DOPC  H18Y21449   3.509   1.411  11.245  1.5459  0.9461 -2.4149
  175DOPC  H18Z21450   3.350   1.493  11.261  0.8710  0.5859  1.0811
  176DOPC     N21451   3.863   2.667   8.712  0.2710 -0.0098  0.2572
  176DOPC   C1221452   3.822   2.717   8.572 -0.3408  0.8520 -0.9433
  176DOPC  H12A21453   3.889   2.664   8.505 -0.9779 -0.2615 -0.7415
  176DOPC  H12B21454   3.843   2.822   8.568 -0.0422  0.8761  0.8063
  176DOPC   C1321455   3.872   2.519   8.715  0.5819  0.8868 -0.1212
  176DOPC  H13A21456   3.904   2.485   8.812  0.2260  0.8303 -0.0222
  176DOPC  H13B21457   3.778   2.471   8.692  0.8318  0.9549 -1.3573
  176DOPC  H13C21458   3.943   2.483   8.642 -0.5825 -0.7499 -0.5175
  176DOPC   C1421459   3.759   2.722   8.807  0.1321  0.5006 -0.6557
  176DOPC  H14A21460   3.661   2.694   8.773  0.4517 -2.1727  0.3549
  176DOPC  H14B21461   3.790   2.691   8.906 -1.0374  1.0778 -0.1032
  176DOPC  H14C21462   3.757   2.830   8.810 -1.7248  0.4732  0.4237
  176DOPC   C1521463   3.989   2.735   8.748 -0.6213 -0.6341  0.1840
  176DOPC  H15A21464   4.066   2.706   8.678 -2.4003 -0.5549 -1.9023
  176DOPC  H15B21465   4.038   2.711   8.842  0.2468 -0.9404 -0.3301
  176DOPC  H15C21466   3.968   2.841   8.744  0.5939 -0.4061 -0.5635
  176DOPC   C1121467   3.674   2.694   8.529  0.0841 -0.0351  1.0979
  176DOPC  H11A21468   3.666   2.729   8.424 -1.4650  1.3182  1.6134
  176DOPC  H11B21469   3.652   2.586   8.541  3.3355 -0.9091  0.0251
  176DOPC     P21470   3.431   2.768   8.588 -0.0309 -0.2284 -0.0978
  176DOPC   O1321471   3.390   2.652   8.503  0.1501 -0.7120  0.0874
  176DOPC   O1421472   3.388   2.905   8.551 -0.0629 -0.0437  0.3553
  176DOPC   O1221473   3.584   2.769   8.600  0.0082 -0.0492 -0.0515
  176DOPC   O1121474   3.407   2.750   8.746 -0.4411 -0.0308  0.4481
  176DOPC    C121475   3.383   2.617   8.800  0.1285 -0.0513  0.2017
  176DOPC    HA21476   3.468   2.546   8.788  0.1400 -0.0801  0.4418
  176DOPC    HB21477   3.292   2.567   8.761  0.9711 -0.6174 -1.1226
  176DOPC    C221478   3.371   2.631   8.955  0.8708 -0.4315  0.9991
  176DOPC    HS21479   3.279   2.688   8.980  0.2821 -0.4153 -1.0165
  176DOPC   O2121480   3.488   2.693   9.005 -0.1566  0.3671 -0.5148
  176DOPC   C2121481   3.474   2.815   9.053  0.4428 -0.1567  0.9057
  176DOPC   O2221482   3.382   2.894   9.032 -0.0976  0.1593  0.0698
  176DOPC   C2221483   3.601   2.834   9.134  0.3280  0.1763  0.1073
  176DOPC   H2R21484   3.681   2.849   9.058  0.0571  4.4662  0.4296
  176DOPC   H2S21485   3.626   2.740   9.188 -0.9245  0.2534  0.8397
  176DOPC    C321486   3.352   2.486   9.019  0.2710 -0.1998 -0.6049
  176DOPC    HX21487   3.447   2.436   8.992 -0.0058 -1.5858  0.8937
  176DOPC    HY21488   3.273   2.439   8.957  1.3639  1.1088 -3.1535
  176DOPC   O3121489   3.344   2.478   9.164  0.0384  0.4651 -0.1245
  176DOPC   C3121490   3.227   2.528   9.212  0.1074 -0.0064  0.1347
  176DOPC   O3221491   3.141   2.574   9.139 -0.4558  0.5124 -0.7623
  176DOPC   C3221492   3.228   2.528   9.366  0.0736  0.3280 -0.0762
  176DOPC   H2X21493   3.203   2.421   9.379  1.1596  0.1924  1.0604
  176DOPC   H2Y21494   3.331   2.544   9.405  0.6585  2.3243 -2.1700
  176DOPC   C2321495   3.593   2.949   9.236  0.4572  0.4391  0.4472
  176DOPC   H3R21496   3.560   3.046   9.192 -1.0568  0.7880  2.2476
  176DOPC   H3S21497   3.693   2.959   9.283 -0.0297  1.2203  1.3363
  176DOPC   C2421498   3.500   2.915   9.348  0.0254  0.0242  0.5537
  176DOPC   H4R21499   3.543   2.823   9.394  1.1152  1.7519  3.1964
  176DOPC   H4S21500   3.404   2.899   9.293 -0.2108 -1.2297  1.3016
  176DOPC   C2521501   3.505   3.008   9.464 -0.6059 -0.5254 -0.4813
  176DOPC   H5R21502   3.475   3.110   9.431 -0.7734 -0.3175  0.2918
  176DOPC   H5S21503   3.610   3.014   9.499 -0.7453 -2.2816  0.3646
  176DOPC   C2621504   3.415   2.963   9.584 -0.1234  0.6331  0.3837
  176DOPC   H6R21505   3.321   2.912   9.551  1.5583 -1.9176 -0.7728
  176DOPC   H6S21506   3.377   3.054   9.634 -4.6709 -0.2845 -0.8548
  176DOPC   C2721507   3.488   2.873   9.683 -0.4205 -0.1581 -0.7492
  176DOPC   H7R21508   3.592   2.902   9.707 -0.6442 -0.6492  0.9265
  176DOPC   H7S21509   3.499   2.774   9.634 -0.5255 -0.3784 -0.3318
  176DOPC   C2821510   3.413   2.849   9.810  0.4198 -0.4549  0.2551
  176DOPC   H8R21511   3.467   2.771   9.868 -1.0019 -1.6426  0.0368
  176DOPC   H8S21512   3.313   2.807   9.790 -0.1601  0.5940  0.8631
  176DOPC   C2921513   3.396   2.976   9.895 -0.3725 -0.2165  0.5393
  176DOPC   H9R21514   3.313   3.043   9.866 -1.1282 -2.2517 -2.3868
  176DOPC  C21021515   3.470   3.003  10.003  0.2836 -0.1716  0.5018
  176DOPC  H10R21516   3.438   3.093  10.059 -1.2442 -1.4105  1.7318
  176DOPC  C21121517   3.585   2.940  10.068 -0.4563  0.4610 -0.5203
  176DOPC  H11R21518   3.674   3.006  10.063  0.6568 -1.0004 -0.6979
  176DOPC  H11S21519   3.607   2.846  10.013 -0.7702 -0.1065  0.3137
  176DOPC  C21221520   3.575   2.907  10.223  0.2261  0.2648 -0.4540
  176DOPC  H12R21521   3.523   2.981  10.288  0.3121 -2.4399  2.9923
  176DOPC  H12S21522   3.679   2.908  10.263 -0.6929 -1.7576  2.3074
  176DOPC  C21321523   3.516   2.760  10.258  0.1872 -0.2721 -0.0252
  176DOPC  H13R21524   3.559   2.733  10.357  1.2774  2.2038  0.2689
  176DOPC  H13S21525   3.549   2.693  10.176 -0.7751 -0.1224 -0.5522
  176DOPC  C21421526   3.368   2.753  10.262  0.5202 -0.2878  0.7591
  176DOPC  H14R21527   3.342   2.647  10.242 -1.2564  0.6648 -2.6712
  176DOPC  H14S21528   3.330   2.815  10.178  2.8538 -1.9228 -1.6763
  176DOPC  C21521529   3.300   2.806  10.397 -0.3277 -0.4676  0.7623
  176DOPC  H15R21530   3.197   2.826  10.361 -1.1277 -2.0908  2.0392
  176DOPC  H15S21531   3.350   2.902  10.423 -0.6982  0.7336 -2.4719
  176DOPC  C21621532   3.302   2.704  10.515 -0.4349 -0.0935 -0.6300
  176DOPC  H16R21533   3.410   2.690  10.535 -0.5533  2.0141  1.9932
  176DOPC  H16S21534   3.257   2.607  10.482  0.9454 -0.4015 -1.7195
  176DOPC  C21721535   3.246   2.762  10.645  0.3019 -0.3149  0.0605
  176DOPC  H17R21536   3.230   2.681  10.719 -0.2485  0.2578  0.5842
  176DOPC  H17S21537   3.143   2.801  10.629 -0.0610 -1.1366  0.3374
  176DOPC  C21821538   3.329   2.873  10.714 -0.2093 -0.4705 -0.5011
  176DOPC  H18R21539   3.296   2.884  10.819 -0.2766 -0.2712 -0.5425
  176DOPC  H18S21540   3.306   2.963  10.652 -2.3118 -0.6943 -0.1142
  176DOPC  H18T21541   3.438   2.856  10.727 -0.2866 -0.7939 -0.2830
  176DOPC   C3321542   3.128   2.627   9.424  1.1058  1.0640  0.0250
  176DOPC   H3X21543   3.032   2.630   9.368  1.5595  0.8654 -0.7826
  176DOPC   H3Y21544   3.168   2.730   9.433  1.4536  0.8465  1.1135
  176DOPC   C3421545   3.094   2.586   9.575  0.4471 -0.5017  0.0232
  176DOPC   H4X21546   3.026   2.499   9.573 -0.6557  0.3251  0.6080
  176DOPC   H4Y21547   3.044   2.672   9.625  1.0304  0.6146 -1.2442
  176DOPC   C3521548   3.225   2.538   9.642  0.3041 -0.1621 -1.0395
  176DOPC   H5X21549   3.299   2.621   9.650 -0.8997  0.7924  1.1112
  176DOPC   H5Y21550   3.274   2.447   9.600  1.4618 -0.8429  1.5499
  176DOPC   C3621551   3.194   2.496   9.787 -0.2012 -0.0613 -0.0131
  176DOPC   H6X21552   3.134   2.402   9.783  1.4558 -1.1430 -0.3968
  176DOPC   H6Y21553   3.287   2.465   9.840  0.3034 -0.3370 -1.0260
  176DOPC   C3721554   3.118   2.596   9.878 -0.6182  0.5158  1.2367
  176DOPC   H7X21555   3.157   2.695   9.849 -0.1044 -0.3409 -1.2588
  176DOPC   H7Y21556   3.011   2.595   9.846 -0.4151 -0.2270  0.5292
  176DOPC   C3821557   3.147   2.580  10.023 -0.4464 -0.4364 -0.4834
  176DOPC   H8X21558   3.093   2.665  10.069  2.2423  0.3272  1.4904
  176DOPC   H8Y21559   3.255   2.599  10.036 -0.8053  1.1745  0.3783
  176DOPC   C3921560   3.105   2.438  10.068  0.0290 -0.8182 -0.7081
  176DOPC   H9X21561   3.171   2.358  10.031 -1.5209 -1.7234 -1.6058
  176DOPC  C31021562   3.001   2.406  10.155  0.2299  0.3372  0.0911
  176DOPC  H10X21563   2.970   2.301  10.167 -0.9919  0.5392 -1.1008
  176DOPC  C31121564   2.893   2.498  10.211  0.1785  0.4797 -0.0150
  176DOPC  H11X21565   2.795   2.446  10.212 -0.4628  1.5884 -1.1967
  176DOPC  H11Y21566   2.875   2.577  10.134 -0.3899 -0.4070 -0.8186
  176DOPC  C31221567   2.927   2.567  10.340  0.2414 -0.1277 -0.1061
  176DOPC  H12X21568   2.850   2.639  10.375 -2.3681 -1.8637 -1.9264
  176DOPC  H12Y21569   3.023   2.620  10.321  1.5001 -2.1935  0.1984
  176DOPC  C31321570   2.962   2.476  10.455  0.3042 -0.1634  0.0182
  176DOPC  H13X21571   2.901   2.384  10.440 -0.8485  0.7926 -1.4745
  176DOPC  H13Y21572   3.070   2.450  10.447  0.2015 -0.6761  0.2579
  176DOPC  C31421573   2.929   2.522  10.596  0.2734 -0.1720 -0.2908
  176DOPC  H14X21574   2.997   2.609  10.608 -1.0789  0.8226  0.4677
  176DOPC  H14Y21575   2.821   2.550  10.596  0.8156  2.1521 -0.7764
  176DOPC  C31521576   2.959   2.416  10.707 -0.2097 -0.2467 -0.1014
  176DOPC  H15X21577   3.066   2.391  10.687 -0.5712 -1.9671 -0.0930
  176DOPC  H15Y21578   2.907   2.318  10.698  1.8030 -1.4574  0.6255
  176DOPC  C31621579   2.926   2.477  10.847  0.7304  0.0350 -0.0484
  176DOPC  H16X21580   2.822   2.516  10.845  0.5790 -0.3902 -0.4957
  176DOPC  H16Y21581   2.929   2.391  10.916 -0.5061 -0.9097 -1.1349
  176DOPC  C31721582   3.027   2.585  10.893 -0.3819  0.0441  0.2232
  176DOPC  H17X21583   3.128   2.541  10.902  0.1502  1.6112  3.5035
  176DOPC  H17Y21584   3.025   2.664  10.815 -1.4344 -0.5371 -0.3688
  176DOPC  C31821585   2.990   2.649  11.025  0.5082  0.7474 -0.6407
  176DOPC  H18X21586   3.036   2.750  11.033 -0.3248  1.1488 -0.8539
  176DOPC  H18Y21587   2.882   2.674  11.032  0.4753  0.1734  3.3215
  176DOPC  H18Z21588   3.008   2.589  11.117 -0.4396 -0.1932 -1.0567
  177DOPC     N21589   4.549   0.635   8.128  0.3865 -0.1223 -0.4057
  177DOPC   C1221590   4.473   0.589   8.259 -0.8020 -0.3043  0.7946
  177DOPC  H12A21591   4.420   0.672   8.303  3.0729  2.0927  1.3984
  177DOPC  H12B21592   4.547   0.553   8.329  0.4657  0.4680 -0.0864
  177DOPC   C1321593   4.449   0.661   8.020 -0.1647 -0.1442  0.1474
  177DOPC  H13A21594   4.507   0.707   7.942 -0.7291  2.5503  1.1883
  177DOPC  H13B21595   4.392   0.575   7.989  0.7113 -0.3309 -0.9887
  177DOPC  H13C21596   4.384   0.738   8.060 -0.2963  0.0969 -0.5267
  177DOPC   C1421597   4.652   0.544   8.076  0.6361 -0.1685  0.4159
  177DOPC  H14A21598   4.720   0.512   8.154  0.8768 -0.4430  0.0976
  177DOPC  H14B21599   4.604   0.453   8.044 -0.8661  0.2768  1.2929
  177DOPC  H14C21600   4.710   0.593   8.000  0.3202  1.7460  1.3524
  177DOPC   C1521601   4.618   0.765   8.165 -0.7343 -0.5324 -0.3324
  177DOPC  H15A21602   4.709   0.746   8.220  0.0494  1.7487 -0.7703
  177DOPC  H15B21603   4.563   0.834   8.226  1.0586  1.6254 -1.0419
  177DOPC  H15C21604   4.666   0.818   8.085  0.8126 -1.1577  0.1358
  177DOPC   C1121605   4.372   0.470   8.255  0.2678 -0.2460  0.0946
  177DOPC  H11A21606   4.334   0.480   8.359  0.7798 -1.5490  0.4196
  177DOPC  H11B21607   4.290   0.502   8.188 -0.3748  0.0346  0.9930
  177DOPC     P21608   4.539   0.285   8.327  0.4737  0.3034 -0.0354
  177DOPC   O1321609   4.667   0.359   8.320 -0.2049  0.4790 -0.2892
  177DOPC   O1421610   4.546   0.143   8.297  0.6162  0.5040 -0.3149
  177DOPC   O1221611   4.434   0.350   8.222  0.2768 -0.3147 -0.7828
  177DOPC   O1121612   4.471   0.295   8.471  0.8130 -0.0983  0.4970
  177DOPC    C121613   4.335   0.244   8.483  0.1949 -0.2744 -0.1395
  177DOPC    HA21614   4.289   0.195   8.395  2.0510  0.0334 -1.3421
  177DOPC    HB21615   4.268   0.326   8.515 -0.2568 -1.2945  1.6791
  177DOPC    C221616   4.335   0.143   8.601 -0.3477 -0.3758  0.1278
  177DOPC    HS21617   4.229   0.113   8.616 -0.4454 -0.4552 -0.6571
  177DOPC   O2121618   4.380   0.209   8.718 -0.9806  0.7622  0.5624
  177DOPC   C2121619   4.296   0.265   8.803 -0.8456  0.3736  0.0250
  177DOPC   O2221620   4.178   0.287   8.773  0.0050 -0.0198 -0.4099
  177DOPC   C2221621   4.376   0.324   8.916 -0.9378 -0.0094  0.6770
  177DOPC   H2R21622   4.326   0.413   8.961  1.9621  2.4884 -0.7030
  177DOPC   H2S21623   4.474   0.360   8.878 -1.3787 -0.4625 -0.9611
  177DOPC    C321624   4.418   0.019   8.568 -0.1179 -0.0550 -0.0764
  177DOPC    HX21625   4.520   0.054   8.540 -0.4381 -0.4800 -1.8707
  177DOPC    HY21626   4.365  -0.025   8.481  1.0125 -0.1089 -0.7570
  177DOPC   O3121627   4.427  -0.082   8.666 -0.0203  0.5156  0.6668
  177DOPC   C3121628   4.544  -0.102   8.736 -0.2822  0.2180 -0.3368
  177DOPC   O3221629   4.639  -0.033   8.725 -0.0111 -0.3079 -0.1160
  177DOPC   C3221630   4.536  -0.229   8.827 -0.0373  0.0361  0.2330
  177DOPC   H2X21631   4.455  -0.291   8.782 -0.2600  0.8475 -0.5053
  177DOPC   H2Y21632   4.638  -0.271   8.829 -0.2818 -0.5690  2.1645
  177DOPC   C2321633   4.401   0.222   9.030 -0.5914  0.2966 -0.3463
  177DOPC   H3R21634   4.467   0.270   9.105 -0.0094  2.7103 -2.2742
  177DOPC   H3S21635   4.456   0.129   9.003  1.0826  1.0872  0.2142
  177DOPC   C2421636   4.273   0.182   9.113 -0.6078 -1.0269  0.6195
  177DOPC   H4R21637   4.203   0.128   9.045  0.0010 -0.9587 -0.0701
  177DOPC   H4S21638   4.222   0.275   9.146 -0.0178 -1.1548  1.9669
  177DOPC   C2521639   4.303   0.086   9.227 -0.6858 -0.3307  0.3554
  177DOPC   H5R21640   4.365   0.006   9.181  1.2116 -0.8440  3.5072
  177DOPC   H5S21641   4.208   0.038   9.261 -1.2718  1.8828  2.1362
  177DOPC   C2621642   4.363   0.152   9.344  0.6089 -0.1483  0.5026
  177DOPC   H6R21643   4.288   0.229   9.371  1.3378  1.5169 -1.9013
  177DOPC   H6S21644   4.449   0.220   9.328 -1.5949  2.9953  1.2880
  177DOPC   C2721645   4.388   0.065   9.460 -0.7885  0.2694  0.7919
  177DOPC   H7R21646   4.460  -0.012   9.426 -0.4526  0.2629  1.5019
  177DOPC   H7S21647   4.289   0.017   9.478 -1.2055  0.7245 -0.2504
  177DOPC   C2821648   4.440   0.140   9.577  0.2345  0.5737  0.0589
  177DOPC   H8R21649   4.366   0.216   9.610  0.3996 -0.1192  2.2047
  177DOPC   H8S21650   4.538   0.190   9.562  1.7236 -1.4775  2.1281
  177DOPC   C2921651   4.470   0.041   9.688  0.0423 -0.7617 -0.2069
  177DOPC   H9R21652   4.537  -0.037   9.648  1.7012  1.6423 -2.4454
  177DOPC  C21021653   4.425   0.042   9.816  0.2930 -0.6808  0.6407
  177DOPC  H10R21654   4.453  -0.044   9.878  0.7513 -0.1237  1.2138
  177DOPC  C21121655   4.344   0.154   9.872 -0.0454  0.3163  0.1744
  177DOPC  H11R21656   4.238   0.124   9.882  0.0784 -0.9087 -1.7291
  177DOPC  H11S21657   4.335   0.241   9.803  2.0488  0.2827 -0.2019
  177DOPC  C21221658   4.399   0.210  10.005  0.6150  0.5998 -0.6083
  177DOPC  H12R21659   4.503   0.245   9.985  0.8126  0.9297  0.8902
  177DOPC  H12S21660   4.405   0.128  10.080 -0.0376 -0.7323 -1.9490
  177DOPC  C21321661   4.318   0.327  10.070  0.5087 -0.3587  0.4725
  177DOPC  H13R21662   4.207   0.319  10.064  0.3217  2.2143 -1.0810
  177DOPC  H13S21663   4.326   0.417  10.005  1.7796 -1.4984 -0.9966
  177DOPC  C21421664   4.368   0.368  10.209 -0.1297 -0.1537 -0.2083
  177DOPC  H14R21665   4.294   0.445  10.241 -1.2130 -0.4131 -1.9882
  177DOPC  H14S21666   4.466   0.420  10.196 -1.1549  2.0624  0.4108
  177DOPC  C21521667   4.367   0.254  10.311  1.2090 -0.1054 -0.0071
  177DOPC  H15R21668   4.446   0.184  10.276  0.6184 -0.7326 -0.0888
  177DOPC  H15S21669   4.269   0.204  10.306  1.5653 -0.7745 -0.4396
  177DOPC  C21621670   4.387   0.304  10.454 -0.2454 -0.4716 -0.3167
  177DOPC  H16R21671   4.333   0.401  10.464  1.7949  0.7781 -0.7836
  177DOPC  H16S21672   4.492   0.339  10.459 -1.3128  3.0326  1.0238
  177DOPC  C21721673   4.343   0.199  10.553 -0.3633 -0.2580  0.1659
  177DOPC  H17R21674   4.403   0.107  10.532  2.2930  1.4570 -0.2924
  177DOPC  H17S21675   4.234   0.183  10.539 -0.2896  0.5260 -1.6387
  177DOPC  C21821676   4.377   0.217  10.705  0.3381  0.1401 -1.0174
  177DOPC  H18R21677   4.487   0.228  10.716  0.1299  1.7162 -0.2256
  177DOPC  H18S21678   4.343   0.145  10.782 -1.7847  2.7554  0.7085
  177DOPC  H18T21679   4.327   0.308  10.746  1.3512 -0.1387  0.9513
  177DOPC   C3321680   4.501  -0.186   8.976  0.2749 -0.9787 -0.3651
  177DOPC   H3X21681   4.474  -0.276   9.036 -1.0882 -0.6424 -0.4338
  177DOPC   H3Y21682   4.418  -0.113   8.958  2.0253  0.8086 -1.5985
  177DOPC   C3421683   4.621  -0.110   9.040  0.6150 -0.4293  0.1138
  177DOPC   H4X21684   4.633  -0.017   8.981  1.8928 -1.1080 -0.7578
  177DOPC   H4Y21685   4.716  -0.164   9.019  0.9314 -1.0026  2.6858
  177DOPC   C3521686   4.616  -0.085   9.200 -0.2254 -0.1689 -0.7503
  177DOPC   H5X21687   4.526  -0.140   9.235 -0.2794  0.5115  0.2366
  177DOPC   H5Y21688   4.595   0.023   9.214  2.5832  0.7348 -2.5708
  177DOPC   C3621689   4.751  -0.115   9.269 -0.0320 -0.3833  0.2093
  177DOPC   H6X21690   4.789  -0.216   9.244  3.1454  1.0543 -1.4726
  177DOPC   H6Y21691   4.830  -0.056   9.217  0.0279 -1.6933 -1.2484
  177DOPC   C3721692   4.743  -0.088   9.415 -0.0903  0.1705 -0.1838
  177DOPC   H7X21693   4.718   0.020   9.425  0.7221  0.2956  0.5344
  177DOPC   H7Y21694   4.667  -0.154   9.462 -0.2379  0.9298  0.6544
  177DOPC   C3821695   4.864  -0.121   9.506  0.2266 -0.4676 -0.0935
  177DOPC   H8X21696   4.954  -0.092   9.448 -1.0014  0.6459 -1.4893
  177DOPC   H8Y21697   4.851  -0.230   9.527  0.5007 -0.8346 -1.6814
  177DOPC   C3921698   4.861  -0.043   9.637  0.3537  0.6143 -0.2832
  177DOPC   H9X21699   4.855   0.066   9.620  0.6400  0.3556 -2.3522
  177DOPC  C31021700   4.844  -0.085   9.765 -0.6945 -0.2335  0.0580
  177DOPC  H10X21701   4.851  -0.015   9.849  1.0089 -0.0855 -0.1679
  177DOPC  C31121702   4.825  -0.235   9.797  0.3198 -1.0968  0.3198
  177DOPC  H11X21703   4.914  -0.283   9.845  0.8269 -0.9819 -0.4961
  177DOPC  H11Y21704   4.801  -0.286   9.702 -1.0623  0.4249 -0.2030
  177DOPC  C31221705   4.706  -0.253   9.893  0.2771 -0.1733 -0.0586
  177DOPC  H12X21706   4.693  -0.356   9.932 -0.1298  0.3582  1.2391
  177DOPC  H12Y21707   4.608  -0.224   9.849  0.6669  0.4697 -0.5230
  177DOPC  C31321708   4.718  -0.171  10.029  0.1173  0.3562  0.8809
  177DOPC  H13X21709   4.812  -0.203  10.080  0.6646  1.0107  0.2956
  177DOPC  H13Y21710   4.715  -0.061  10.012 -0.6696  0.0299 -1.3583
  177DOPC  C31421711   4.606  -0.188  10.139  0.1379  0.5131 -0.4530
  177DOPC  H14X21712   4.504  -0.193  10.095  0.2580 -0.6024 -0.6436
  177DOPC  H14Y21713   4.617  -0.285  10.192  1.0435 -0.0994 -1.7097
  177DOPC  C31521714   4.617  -0.085  10.251 -0.6855  0.3195  0.3599
  177DOPC  H15X21715   4.536  -0.108  10.324 -0.9298  0.1997  0.0534
  177DOPC  H15Y21716   4.603   0.016  10.206  1.1328  0.6764  0.5514
  177DOPC  C31621717   4.747  -0.086  10.336 -0.1632 -0.1271  0.5932
  177DOPC  H16X21718   4.759  -0.183  10.388 -0.8913 -0.4432  0.1880
  177DOPC  H16Y21719   4.831  -0.069  10.266 -0.1278 -0.4818  0.5490
  177DOPC  C31721720   4.743   0.032  10.437 -0.1233  0.3614  0.1416
  177DOPC  H17X21721   4.849   0.053  10.462 -0.1323  2.5499 -1.4063
  177DOPC  H17Y21722   4.695   0.123  10.393 -0.2944  0.2598  0.1164
  177DOPC  C31821723   4.685  -0.003  10.574  0.0683  0.4056  0.2199
  177DOPC  H18X21724   4.576  -0.019  10.565 -0.5436  3.2655  1.4073
  177DOPC  H18Y21725   4.731  -0.092  10.622  0.7550  0.6355  0.0052
  177DOPC  H18Z21726   4.701   0.088  10.636  0.1443 -0.2131  1.1176
  178DOPC     N21727   2.369   0.979   8.531  1.0553 -0.9188 -0.3958
  178DOPC   C1221728   2.274   0.872   8.582  0.0002 -1.0000 -0.3957
  178DOPC  H12A21729   2.284   0.792   8.510  3.1037  0.2122 -1.4862
  178DOPC  H12B21730   2.175   0.911   8.604  1.5138  0.9067  4.4663
  178DOPC   C1321731   2.339   1.005   8.390 -0.3305 -0.2645  1.0057
  178DOPC  H13A21732   2.237   1.037   8.374 -0.1944 -0.7292 -1.0821
  178DOPC  H13B21733   2.398   1.087   8.352 -3.0009  0.8986 -0.9788
  178DOPC  H13C21734   2.352   0.921   8.323  3.7683  0.5055  0.5787
  178DOPC   C1421735   2.511   0.931   8.541  0.0369 -0.1724 -0.5728
  178DOPC  H14A21736   2.571   1.021   8.536 -1.2364  0.6274 -2.8806
  178DOPC  H14B21737   2.540   0.884   8.634 -0.8421  0.2672 -0.0632
  178DOPC  H14C21738   2.530   0.855   8.467 -0.1656 -0.4293 -0.3663
  178DOPC   C1521739   2.350   1.101   8.620 -0.6576 -0.6454 -0.5081
  178DOPC  H15A21740   2.410   1.190   8.605 -0.6975 -0.7327 -1.2223
  178DOPC  H15B21741   2.353   1.064   8.721 -1.4683  1.8973  0.5123
  178DOPC  H15C21742   2.252   1.138   8.596 -0.3592 -0.8270 -2.1207
  178DOPC   C1121743   2.315   0.805   8.713 -0.4591 -0.7863  0.4283
  178DOPC  H11A21744   2.243   0.721   8.729  1.9214 -2.8753  0.9606
  178DOPC  H11B21745   2.415   0.757   8.705 -1.2005 -2.3757  0.2662
  178DOPC     P21746   2.342   0.844   8.967 -0.3753  0.0887 -0.0491
  178DOPC   O1321747   2.269   0.932   9.057 -0.1306 -0.3296 -0.5062
  178DOPC   O1421748   2.493   0.848   8.970 -0.7876  0.1990  0.0886
  178DOPC   O1221749   2.307   0.896   8.824  0.1806 -0.0220  0.8062
  178DOPC   O1121750   2.289   0.696   8.970  0.5991 -0.6071  0.5768
  178DOPC    C121751   2.166   0.663   9.041 -0.5167  0.7518 -0.1252
  178DOPC    HA21752   2.123   0.568   9.004  1.7386 -0.7459  0.8467
  178DOPC    HB21753   2.084   0.727   9.003 -0.6674 -0.2419 -1.5304
  178DOPC    C221754   2.195   0.653   9.190 -0.3046 -0.3327  0.2414
  178DOPC    HS21755   2.226   0.757   9.213  0.3154 -0.0587 -1.6030
  178DOPC   O2121756   2.300   0.558   9.217  0.3778 -0.0157 -0.1302
  178DOPC   C2121757   2.389   0.595   9.310  1.0653  0.1349 -0.2785
  178DOPC   O2221758   2.397   0.701   9.360 -0.0588 -0.1993  0.2848
  178DOPC   C2221759   2.492   0.483   9.326 -0.7125 -0.6554  0.6140
  178DOPC   H2R21760   2.549   0.499   9.232  0.0810  1.3616  1.3791
  178DOPC   H2S21761   2.442   0.384   9.320 -1.5767 -0.3218  1.8734
  178DOPC    C321762   2.059   0.631   9.279 -0.4817 -0.3750  0.1817
  178DOPC    HX21763   2.026   0.532   9.242 -1.1299 -0.1680  0.2077
  178DOPC    HY21764   1.994   0.716   9.252  1.0783  0.4732 -1.0993
  178DOPC   O3121765   2.074   0.622   9.424 -0.3341 -0.3013  1.1116
  178DOPC   C3121766   2.056   0.734   9.490 -0.2670  0.2166 -0.0120
  178DOPC   O3221767   2.070   0.846   9.444  0.1502 -0.6849  0.1028
  178DOPC   C3221768   2.024   0.703   9.639 -0.0631  0.0122 -0.2658
  178DOPC   H2X21769   1.941   0.767   9.676  0.6465  1.7641 -1.5623
  178DOPC   H2Y21770   1.998   0.595   9.647 -1.8384  0.5097  1.6089
  178DOPC   C2321771   2.589   0.499   9.438 -0.4442 -0.2721 -1.1210
  178DOPC   H3R21772   2.640   0.598   9.448  0.2696 -0.5895 -1.5724
  178DOPC   H3S21773   2.668   0.427   9.408 -0.1027 -0.7057  0.6763
  178DOPC   C2421774   2.534   0.466   9.567  0.2548  0.0809 -0.3511
  178DOPC   H4R21775   2.468   0.378   9.549  0.3055  0.2370 -1.3461
  178DOPC   H4S21776   2.464   0.537   9.615  1.5275  1.9253 -1.1491
  178DOPC   C2521777   2.636   0.432   9.671  1.0487  0.7668 -0.4935
  178DOPC   H5R21778   2.674   0.534   9.693  1.1656  0.3540  1.4037
  178DOPC   H5S21779   2.717   0.365   9.636 -0.4661 -0.9337 -0.8665
  178DOPC   C2621780   2.570   0.368   9.790 -0.0652  0.1859 -0.7073
  178DOPC   H6R21781   2.539   0.263   9.777 -0.7034  0.2833 -0.0526
  178DOPC   H6S21782   2.474   0.423   9.807 -1.4128 -1.6966 -1.9091
  178DOPC   C2721783   2.654   0.404   9.913  0.1787  0.7069 -0.1302
  178DOPC   H7R21784   2.668   0.513   9.928  1.4172  0.3679  1.4928
  178DOPC   H7S21785   2.754   0.367   9.881  0.3642 -0.3950  1.6154
  178DOPC   C2821786   2.611   0.331  10.041  0.2324  0.3856 -0.3540
  178DOPC   H8R21787   2.701   0.315  10.105  0.6864  1.8724 -0.5767
  178DOPC   H8S21788   2.582   0.225  10.025 -0.2664 -0.1754  3.2677
  178DOPC   C2921789   2.512   0.395  10.129 -0.0830 -0.3551  0.1638
  178DOPC   H9R21790   2.412   0.392  10.085 -0.2794 -0.6140  0.6172
  178DOPC  C21021791   2.529   0.474  10.237 -0.3131  0.1158  0.3063
  178DOPC  H10R21792   2.444   0.515  10.293 -1.1376 -1.3458  0.1801
  178DOPC  C21121793   2.664   0.505  10.302 -0.0911  0.1028 -0.0376
  178DOPC  H11R21794   2.693   0.609  10.275  5.2829 -0.9981  0.2488
  178DOPC  H11S21795   2.742   0.434  10.266  0.8942  0.6510  0.9235
  178DOPC  C21221796   2.637   0.488  10.450 -0.2104  0.2446 -0.7556
  178DOPC  H12R21797   2.731   0.503  10.507 -0.5357 -1.6938  0.3900
  178DOPC  H12S21798   2.606   0.382  10.466 -1.0892  0.6951  0.6933
  178DOPC  C21321799   2.532   0.583  10.512  0.2522  0.1960  0.1469
  178DOPC  H13R21800   2.427   0.553  10.491  0.2327  0.0422  0.4534
  178DOPC  H13S21801   2.555   0.683  10.470  0.6134  0.5450  1.1329
  178DOPC  C21421802   2.553   0.576  10.664  1.0701 -0.6663 -0.6799
  178DOPC  H14R21803   2.652   0.624  10.677  1.7971 -2.3980  0.7753
  178DOPC  H14S21804   2.568   0.471  10.699 -0.7986 -0.1355  2.0496
  178DOPC  C21521805   2.450   0.657  10.746 -0.8797  0.1214 -0.4171
  178DOPC  H15R21806   2.350   0.609  10.739 -0.9453 -0.0937  1.5680
  178DOPC  H15S21807   2.457   0.763  10.712  1.1555 -0.5506 -2.3382
  178DOPC  C21621808   2.481   0.647  10.899  0.0322  0.2829  0.1504
  178DOPC  H16R21809   2.419   0.724  10.951  2.7166  1.6411  1.5293
  178DOPC  H16S21810   2.586   0.681  10.912 -0.3017  0.8977  1.4720
  178DOPC  C21721811   2.457   0.505  10.955  0.4941 -1.0075  0.3938
  178DOPC  H17R21812   2.515   0.507  11.050 -0.4868 -2.3657  1.0554
  178DOPC  H17S21813   2.510   0.433  10.890  1.5643  0.7724 -0.8129
  178DOPC  C21821814   2.309   0.475  10.971  0.0744  0.0555 -0.2231
  178DOPC  H18R21815   2.287   0.387  11.035  0.4289  0.2224  0.1288
  178DOPC  H18S21816   2.272   0.461  10.867  0.3224  0.0343 -0.3089
  178DOPC  H18T21817   2.249   0.560  11.011  1.1116  1.1318 -0.9092
  178DOPC   C3321818   2.156   0.720   9.721  0.0605  0.0221  0.4503
  178DOPC   H3X21819   2.202   0.820   9.717 -0.5699  0.3572  1.2812
  178DOPC   H3Y21820   2.230   0.648   9.680 -1.7152 -2.3965  1.2610
  178DOPC   C3421821   2.131   0.690   9.872  0.5546 -0.2165 -0.4043
  178DOPC   H4X21822   2.075   0.594   9.875  0.6715 -0.4492 -3.2587
  178DOPC   H4Y21823   2.072   0.779   9.905 -0.2490 -0.4752 -1.1163
  178DOPC   C3521824   2.266   0.681   9.946 -0.4366 -1.0925  0.4387
  178DOPC   H5X21825   2.307   0.782   9.923  0.6680 -1.5387  0.3871
  178DOPC   H5Y21826   2.328   0.597   9.909  2.3651  0.3689  1.5034
  178DOPC   C3621827   2.253   0.658  10.100  0.4616 -0.2736 -0.5644
  178DOPC   H6X21828   2.196   0.566  10.122 -0.9355 -0.2285 -3.5285
  178DOPC   H6Y21829   2.351   0.654  10.154 -0.0169 -1.2167  0.2730
  178DOPC   C3721830   2.184   0.780  10.168  0.4134  0.0296 -0.7605
  178DOPC   H7X21831   2.245   0.870  10.144  0.7674 -0.0991 -0.3629
  178DOPC   H7Y21832   2.084   0.798  10.124  0.2544  2.3917  0.4519
  178DOPC   C3821833   2.177   0.782  10.324 -0.4548  0.0057 -0.4965
  178DOPC   H8X21834   2.281   0.782  10.363 -1.0194 -0.8671  1.0960
  178DOPC   H8Y21835   2.116   0.696  10.358  0.0963 -0.3120 -0.3045
  178DOPC   C3921836   2.117   0.909  10.376  0.1627  0.0337 -0.1810
  178DOPC   H9X21837   2.059   0.967  10.303  0.5157 -1.7570 -1.9718
  178DOPC  C31021838   2.135   0.965  10.502  0.4656 -0.1226  0.7281
  178DOPC  H10X21839   2.084   1.061  10.524 -1.8162 -0.8968 -0.7440
  178DOPC  C31121840   2.188   0.891  10.615 -0.1148  0.3051  0.1502
  178DOPC  H11X21841   2.234   0.960  10.688  0.1446  0.4799 -0.1738
  178DOPC  H11Y21842   2.266   0.816  10.588 -0.7485 -0.5366  0.5906
  178DOPC  C31221843   2.079   0.809  10.693 -0.0651  0.2553 -0.5427
  178DOPC  H12X21844   2.135   0.745  10.765 -0.0168  1.6294  0.6931
  178DOPC  H12Y21845   2.010   0.749  10.630 -1.1382 -0.5767  1.3280
  178DOPC  C31321846   1.976   0.892  10.768 -0.1513 -0.4009  0.2635
  178DOPC  H13X21847   1.926   0.964  10.700  1.2828  0.4481  0.0605
  178DOPC  H13Y21848   1.905   0.823  10.817  1.5059 -2.5535 -0.2033
  178DOPC  C31421849   2.030   0.967  10.884 -0.7455 -0.4359 -0.2229
  178DOPC  H14X21850   2.096   0.903  10.946 -0.1394  1.2572  0.9633
  178DOPC  H14Y21851   2.080   1.057  10.843 -0.1974  0.0068  1.3343
  178DOPC  C31521852   1.919   1.029  10.971 -0.1536 -0.1261 -0.5544
  178DOPC  H15X21853   1.837   0.955  10.990 -1.4207  1.2138 -0.6632
  178DOPC  H15Y21854   1.863   1.099  10.906  0.3233  0.7931  0.0159
  178DOPC  C31621855   1.959   1.085  11.108 -0.2268 -0.1447 -0.8476
  178DOPC  H16X21856   2.002   1.002  11.168 -0.1706  0.2354 -0.3525
  178DOPC  H16Y21857   2.042   1.155  11.086 -0.7721  0.4502 -1.0673
  178DOPC  C31721858   1.856   1.167  11.169  0.0356 -0.1964  0.7849
  178DOPC  H17X21859   1.830   1.264  11.120  2.3017  0.2878  0.4211
  178DOPC  H17Y21860   1.758   1.116  11.180 -0.1486 -0.5113 -1.6354
  178DOPC  C31821861   1.900   1.195  11.317  0.5396  0.4703  0.1170
  178DOPC  H18X21862   2.007   1.226  11.319  0.4386  1.0246 -1.6457
  178DOPC  H18Y21863   1.843   1.270  11.376  1.8603  0.0494  2.0202
  178DOPC  H18Z21864   1.907   1.096  11.367 -1.0281  0.8591  1.1912
  179DOPC     N21865   5.598   6.679   8.334 -0.0780 -0.0051 -0.0878
  179DOPC   C1221866   5.595   6.674   8.484 -0.1347 -0.7321  0.4220
  179DOPC  H12A21867   5.629   6.767   8.526  2.6958 -1.8398  0.8253
  179DOPC  H12B21868   5.676   6.608   8.509  0.7210 -0.1342 -0.6975
  179DOPC   C1321869   5.564   6.547   8.270  0.4196  0.0255  0.2735
  179DOPC  H13A21870   5.471   6.519   8.317  0.7291  1.3292  1.7539
  179DOPC  H13B21871   5.545   6.557   8.164 -1.9667 -1.3106  0.5003
  179DOPC  H13C21872   5.636   6.469   8.291  0.0244 -0.6224 -0.7186
  179DOPC   C1421873   5.732   6.711   8.280  0.2559 -0.4894 -0.3442
  179DOPC  H14A21874   5.776   6.806   8.305  2.2494 -0.4406 -3.4449
  179DOPC  H14B21875   5.806   6.635   8.302  0.0182 -0.9001 -0.9497
  179DOPC  H14C21876   5.720   6.727   8.174 -0.9538 -0.1298 -0.1633
  179DOPC   C1521877   5.498   6.779   8.284  0.5946  1.0237 -0.2579
  179DOPC  H15A21878   5.402   6.757   8.328  0.5582  0.9381 -0.3805
  179DOPC  H15B21879   5.495   6.778   8.176  0.5625 -0.4236 -0.2628
  179DOPC  H15C21880   5.523   6.880   8.312  1.3022  0.2650  2.0728
  179DOPC   C1121881   5.464   6.632   8.550 -0.6256 -0.5482 -0.1125
  179DOPC  H11A21882   5.432   6.535   8.507 -0.2496 -0.1018 -1.4418
  179DOPC  H11B21883   5.483   6.619   8.659  1.9838 -0.4939 -0.5106
  179DOPC     P21884   5.328   6.837   8.643  0.4295 -0.3907  0.1517
  179DOPC   O1321885   5.210   6.912   8.596 -0.2457  0.0102  0.6689
  179DOPC   O1421886   5.446   6.916   8.675  0.4977 -0.3678  0.1273
  179DOPC   O1221887   5.364   6.730   8.527  0.2116  0.5868 -0.2289
  179DOPC   O1121888   5.302   6.741   8.768 -0.3430  0.1431 -0.1587
  179DOPC    C121889   5.193   6.645   8.757  0.2977 -0.0391  0.0489
  179DOPC    HA21890   5.235   6.543   8.771 -1.4772 -0.4847  2.8553
  179DOPC    HB21891   5.139   6.636   8.660  0.2887 -2.0098  0.1983
  179DOPC    C221892   5.079   6.659   8.863  0.7116 -0.7610  0.3687
  179DOPC    HS21893   5.066   6.769   8.874  0.8816 -0.7205  0.1753
  179DOPC   O2121894   5.104   6.601   8.996 -0.1113  0.4547 -0.6044
  179DOPC   C2121895   5.186   6.677   9.070  0.8585 -0.2711 -0.1668
  179DOPC   O2221896   5.239   6.780   9.031  0.6946  0.6620 -0.1462
  179DOPC   C2221897   5.210   6.600   9.203  0.0086  0.3795  0.3944
  179DOPC   H2R21898   5.231   6.493   9.183 -0.2040  0.3788  0.1646
  179DOPC   H2S21899   5.125   6.611   9.274  1.0464 -0.4796  1.8088
  179DOPC    C321900   4.939   6.602   8.822  0.2702  0.2800  0.3186
  179DOPC    HX21901   4.916   6.641   8.721  1.9813  2.2457  0.6363
  179DOPC    HY21902   4.861   6.643   8.890 -0.6432  0.6204 -0.8891
  179DOPC   O3121903   4.933   6.457   8.832 -0.2010  0.8883  0.1445
  179DOPC   C3121904   4.969   6.374   8.730  0.5482 -0.1778 -0.0501
  179DOPC   O3221905   4.991   6.409   8.615  0.3714  0.4319 -0.3656
  179DOPC   C3221906   4.972   6.232   8.782 -0.1025 -0.3754 -0.0193
  179DOPC   H2X21907   4.877   6.217   8.837 -0.1386  1.7623  0.5598
  179DOPC   H2Y21908   4.974   6.165   8.693 -0.8317 -1.8099  0.9995
  179DOPC   C2321909   5.337   6.648   9.280 -0.1862  0.0313  0.4680
  179DOPC   H3R21910   5.347   6.758   9.287 -0.8484  0.1233  0.1435
  179DOPC   H3S21911   5.422   6.613   9.218 -0.7217  0.2274 -0.3994
  179DOPC   C2421912   5.349   6.588   9.422 -0.0379 -0.5726  0.4122
  179DOPC   H4R21913   5.431   6.651   9.463 -0.9371  1.1300 -0.2907
  179DOPC   H4S21914   5.397   6.488   9.422  0.1281 -0.5262  1.9753
  179DOPC   C2521915   5.228   6.594   9.513  0.7454  0.1402 -0.1100
  179DOPC   H5R21916   5.165   6.511   9.474 -0.7884  0.9340  0.5881
  179DOPC   H5S21917   5.165   6.684   9.499 -0.2182 -0.6749 -1.2080
  179DOPC   C2621918   5.251   6.586   9.668 -0.7891  0.9308 -0.0673
  179DOPC   H6R21919   5.154   6.596   9.720  0.3611 -0.6467  2.5708
  179DOPC   H6S21920   5.314   6.672   9.700 -0.5233  0.1790  1.5228
  179DOPC   C2721921   5.318   6.447   9.712  0.5206  0.0726 -0.6101
  179DOPC   H7R21922   5.428   6.444   9.701  0.7425 -2.2031  1.3902
  179DOPC   H7S21923   5.266   6.375   9.646  0.4844 -1.0154  0.5782
  179DOPC   C2821924   5.284   6.412   9.855  0.0352 -0.8848  0.2404
  179DOPC   H8R21925   5.333   6.314   9.873 -2.1061 -1.9245  0.6780
  179DOPC   H8S21926   5.174   6.400   9.846  0.0743  0.0384 -2.4314
  179DOPC   C2921927   5.321   6.521   9.958 -0.0887  0.3811  0.0232
  179DOPC   H9R21928   5.411   6.583   9.943 -1.0612  1.2991 -2.4500
  179DOPC  C21021929   5.238   6.560  10.058  0.0602  0.5317  0.4821
  179DOPC  H10R21930   5.283   6.613  10.143  1.3837 -0.6459  0.5514
  179DOPC  C21121931   5.097   6.511  10.091  0.2309  0.1709  0.2999
  179DOPC  H11R21932   5.050   6.451  10.010 -0.0918  1.0179 -0.1526
  179DOPC  H11S21933   5.041   6.606  10.103  2.4108  1.3677  1.4830
  179DOPC  C21221934   5.083   6.435  10.220 -0.6467  0.6005 -0.2296
  179DOPC  H12R21935   5.147   6.345  10.210 -0.3787  0.4409  2.2376
  179DOPC  H12S21936   4.980   6.398  10.238 -1.3578  2.2306 -0.7378
  179DOPC  C21321937   5.117   6.523  10.344  0.2373 -0.8642 -0.0306
  179DOPC  H13R21938   5.067   6.620  10.324  0.6153 -0.9178 -1.3379
  179DOPC  H13S21939   5.227   6.532  10.337  0.2639  0.5224  1.5606
  179DOPC  C21421940   5.073   6.462  10.478  0.4257 -0.2645 -0.2869
  179DOPC  H14R21941   5.138   6.372  10.489  0.7219 -0.0277 -0.0974
  179DOPC  H14S21942   4.972   6.415  10.480  1.3472 -2.4151 -1.1698
  179DOPC  C21521943   5.123   6.548  10.594  0.2022 -0.1948  0.5377
  179DOPC  H15R21944   5.083   6.651  10.592 -0.6161 -0.4988  0.6862
  179DOPC  H15S21945   5.229   6.574  10.574 -0.4825  1.8960 -0.7230
  179DOPC  C21621946   5.098   6.496  10.737 -0.0385 -0.2736  0.3124
  179DOPC  H16R21947   5.164   6.546  10.810  0.0234  1.7679 -1.0440
  179DOPC  H16S21948   5.126   6.388  10.733  1.1689  0.0560 -1.5624
  179DOPC  C21721949   4.946   6.509  10.768  0.2355 -0.1199 -0.0497
  179DOPC  H17R21950   4.888   6.466  10.683 -0.0781 -0.4641  0.3334
  179DOPC  H17S21951   4.910   6.614  10.764 -1.1133 -0.5819 -2.5996
  179DOPC  C21821952   4.903   6.442  10.895 -0.1561  1.2139  0.2794
  179DOPC  H18R21953   4.795   6.459  10.915 -0.5609 -0.2946 -0.4950
  179DOPC  H18S21954   4.963   6.472  10.983  0.0278 -1.1004  1.0044
  179DOPC  H18T21955   4.911   6.331  10.901  0.4976  1.3311  1.9204
  179DOPC   C3321956   5.092   6.200   8.883 -0.3116  0.4539 -0.0280
  179DOPC   H3X21957   5.189   6.240   8.845 -0.7727  0.5504 -1.1259
  179DOPC   H3Y21958   5.105   6.089   8.891 -2.1434  0.3249  1.8919
  179DOPC   C3421959   5.059   6.250   9.022 -0.1690 -0.4839  0.1763
  179DOPC   H4X21960   4.966   6.198   9.054 -0.2848 -0.8687 -0.7656
  179DOPC   H4Y21961   5.032   6.357   9.027 -2.9057 -1.1160  0.6841
  179DOPC   C3521962   5.171   6.216   9.120 -0.5099 -0.7939  0.2325
  179DOPC   H5X21963   5.258   6.280   9.094 -0.6839 -1.3397 -1.8280
  179DOPC   H5Y21964   5.212   6.115   9.099 -0.0100 -0.1870 -2.0032
  179DOPC   C3621965   5.144   6.236   9.265  0.6998 -0.3488  0.0945
  179DOPC   H6X21966   5.237   6.246   9.325  0.2134 -0.1020  0.8265
  179DOPC   H6Y21967   5.088   6.331   9.278 -0.6812 -1.2589  1.0233
  179DOPC   C3721968   5.052   6.130   9.325  0.1777  0.3443 -0.0053
  179DOPC   H7X21969   4.992   6.087   9.243  1.2535 -0.3355 -0.4502
  179DOPC   H7Y21970   5.113   6.045   9.361  0.9390  0.6188 -0.6285
  179DOPC   C3821971   4.955   6.176   9.441  0.8448 -0.0484  0.5830
  179DOPC   H8X21972   4.885   6.092   9.458 -0.7345  1.1947  0.5246
  179DOPC   H8Y21973   4.893   6.261   9.405  1.0313 -0.1454  0.0229
  179DOPC   C3921974   5.034   6.219   9.560  0.1690 -0.2017 -0.5155
  179DOPC   H9X21975   5.086   6.315   9.548 -1.0426  0.3612 -1.5519
  179DOPC  C31021976   5.040   6.162   9.684 -0.2565  0.1266 -0.0989
  179DOPC  H10X21977   5.108   6.212   9.754  0.5727  0.6976 -1.2816
  179DOPC  C31121978   4.973   6.034   9.725 -0.2114  0.0564 -0.0732
  179DOPC  H11X21979   5.051   5.967   9.767  2.1360  1.8077 -1.4123
  179DOPC  H11Y21980   4.929   5.979   9.638  0.3927 -0.1954 -0.2294
  179DOPC  C31221981   4.870   6.072   9.833 -0.1306  0.1995  0.7206
  179DOPC  H12X21982   4.780   6.008   9.814  1.4291 -1.7198 -0.6470
  179DOPC  H12Y21983   4.825   6.173   9.823 -2.4709 -0.8607 -0.4240
  179DOPC  C31321984   4.930   6.064   9.977 -0.0158  0.5170 -0.3079
  179DOPC  H13X21985   4.956   5.959  10.000 -0.2016  0.2389 -1.3027
  179DOPC  H13Y21986   5.030   6.113   9.971  0.5756 -0.2386  2.2613
  179DOPC  C31421987   4.841   6.118  10.088  0.7599 -0.3027  0.5515
  179DOPC  H14X21988   4.802   6.220  10.064 -1.4218 -0.7522  1.9448
  179DOPC  H14Y21989   4.750   6.055  10.084  0.3916  0.2537 -0.2844
  179DOPC  C31521990   4.895   6.115  10.228  0.0829  0.4633  0.3095
  179DOPC  H15X21991   4.979   6.189  10.229  0.6312 -0.1481 -0.0124
  179DOPC  H15Y21992   4.923   6.010  10.248 -1.8218 -0.4236 -1.3138
  179DOPC  C31621993   4.788   6.149  10.330 -0.2711  0.4221 -0.1145
  179DOPC  H16X21994   4.772   6.259  10.328 -0.4600  0.3841 -1.0936
  179DOPC  H16Y21995   4.694   6.091  10.311  0.4194 -0.9681  0.5254
  179DOPC  C31721996   4.831   6.123  10.473 -0.1408  0.7279 -0.3334
  179DOPC  H17X21997   4.860   6.016  10.469 -0.6142  0.6143 -0.8678
  179DOPC  H17Y21998   4.921   6.181  10.503 -0.2716  0.8321 -0.1395
  179DOPC  C31821999   4.712   6.157  10.566 -0.1663 -0.4177  0.3691
  179DOPC  H18X22000   4.622   6.108  10.524 -1.1213  1.7159 -0.1769
  179DOPC  H18Y22001   4.732   6.128  10.672 -2.1402 -4.1435 -0.1225
  179DOPC  H18Z22002   4.695   6.266  10.560  0.1791 -0.4428 -2.6002
  180DOPC     N22003   6.453   4.366   8.556  0.0665 -0.0971 -0.0477
  180DOPC   C1222004   6.367   4.247   8.533  0.3475  0.3720  0.0137
  180DOPC  H12A22005   6.277   4.271   8.479  0.0298 -1.2438 -0.2339
  180DOPC  H12B22006   6.335   4.205   8.628  0.9446  0.2534  0.1645
  180DOPC   C1322007   6.488   4.437   8.429 -0.6911 -0.6740 -0.4824
  180DOPC  H13A22008   6.534   4.531   8.453  0.5209 -1.4181  0.1703
  180DOPC  H13B22009   6.549   4.395   8.350 -0.5853  1.9899 -1.9405
  180DOPC  H13C22010   6.395   4.470   8.384 -0.3373 -1.6837 -2.0452
  180DOPC   C1422011   6.580   4.333   8.626 -0.7837  0.0496 -0.0998
  180DOPC  H14A22012   6.637   4.263   8.567 -0.7759  1.0401 -1.2873
  180DOPC  H14B22013   6.648   4.416   8.639 -1.2137  0.3968 -0.0242
  180DOPC  H14C22014   6.565   4.299   8.728 -0.8426 -1.1745 -0.5090
  180DOPC   C1522015   6.373   4.454   8.649 -0.9678 -0.8065 -0.0760
  180DOPC  H15A22016   6.275   4.487   8.616 -0.7924  0.6531  0.7663
  180DOPC  H15B22017   6.418   4.549   8.675 -2.7147  0.1580 -0.4238
  180DOPC  H15C22018   6.357   4.408   8.746  3.0617  0.9187  1.6382
  180DOPC   C1122019   6.425   4.122   8.460 -0.1437 -0.3110  0.2541
  180DOPC  H11A22020   6.340   4.053   8.443  0.1887 -1.2428  2.1232
  180DOPC  H11B22021   6.464   4.149   8.360 -1.7041 -0.4225 -0.4191
  180DOPC     P22022   6.519   3.968   8.657 -0.1545  0.0376  0.3802
  180DOPC   O1322023   6.647   3.947   8.726  0.1802 -0.0851  0.0660
  180DOPC   O1422024   6.461   3.843   8.603 -0.7797 -0.4797 -0.3033
  180DOPC   O1222025   6.541   4.066   8.530  0.4539 -0.3218 -0.2917
  180DOPC   O1122026   6.416   4.043   8.748 -0.0407  0.1545 -0.5263
  180DOPC    C122027   6.324   3.978   8.840 -0.6399 -0.0561  0.4095
  180DOPC    HA22028   6.316   3.871   8.813  0.2676  0.1871 -0.9241
  180DOPC    HB22029   6.222   4.023   8.829 -0.2513  0.4517 -1.5046
  180DOPC    C222030   6.373   3.994   8.990  0.1295 -0.5206  0.0089
  180DOPC    HS22031   6.307   4.056   9.054  1.1573  0.0688  0.5287
  180DOPC   O2122032   6.504   4.057   9.000  0.7172  0.4423 -0.0250
  180DOPC   C2122033   6.508   4.190   8.990  0.5330  0.8153  0.0092
  180DOPC   O2222034   6.412   4.264   8.966  0.1695  0.6227 -0.1128
  180DOPC   C2222035   6.647   4.242   9.013 -0.3771  0.7241  0.9672
  180DOPC   H2R22036   6.683   4.275   8.913 -0.0175  3.2675  1.8581
  180DOPC   H2S22037   6.722   4.171   9.053  0.1269  1.8898  2.1611
  180DOPC    C322038   6.382   3.854   9.058  0.0539  0.1821  0.5770
  180DOPC    HX22039   6.412   3.860   9.165  2.9518  2.4108 -0.2180
  180DOPC    HY22040   6.455   3.786   9.008 -1.9038 -1.9566  0.4475
  180DOPC   O3122041   6.253   3.790   9.039 -0.5719  0.9211  0.6480
  180DOPC   C3122042   6.232   3.698   9.132 -0.3327  0.4614 -0.1673
  180DOPC   O3222043   6.311   3.661   9.214 -0.3024  0.0580 -0.0588
  180DOPC   C3222044   6.088   3.654   9.114 -0.0646 -0.5122  0.1088
  180DOPC   H2X22045   6.026   3.746   9.108  1.2147  0.2708 -3.8253
  180DOPC   H2Y22046   6.090   3.616   9.010  0.6495 -1.5125  0.4688
  180DOPC   C2322047   6.659   4.367   9.108  0.3366 -0.1838 -0.2992
  180DOPC   H3R22048   6.598   4.450   9.066  2.9522  2.2661  0.4174
  180DOPC   H3S22049   6.762   4.410   9.114 -0.1108  0.8147  0.6473
  180DOPC   C2422050   6.626   4.334   9.251  0.7977  0.1267  0.4451
  180DOPC   H4R22051   6.674   4.238   9.281  0.9807  0.0944  0.0568
  180DOPC   H4S22052   6.519   4.303   9.260  1.3340 -2.5352 -1.2277
  180DOPC   C2522053   6.644   4.449   9.351  0.2281  0.3964  0.7489
  180DOPC   H5R22054   6.612   4.549   9.314 -1.6067  0.1822  1.6111
  180DOPC   H5S22055   6.754   4.464   9.357  0.7478 -2.5154 -0.0642
  180DOPC   C2622056   6.590   4.416   9.486 -0.3082 -0.3637  0.3727
  180DOPC   H6R22057   6.607   4.310   9.513 -0.7589 -0.6820 -0.5427
  180DOPC   H6S22058   6.479   4.421   9.476 -0.3621 -1.8942 -0.0068
  180DOPC   C2722059   6.631   4.520   9.595  0.2129 -0.3334  0.8317
  180DOPC   H7R22060   6.628   4.619   9.545 -0.3845  0.0807  1.6681
  180DOPC   H7S22061   6.736   4.500   9.627  0.1004 -0.9549  0.8247
  180DOPC   C2822062   6.527   4.518   9.705  0.1660  0.0724 -0.7341
  180DOPC   H8R22063   6.494   4.418   9.742  0.1204 -0.2022 -1.4996
  180DOPC   H8S22064   6.433   4.565   9.670 -0.1847  0.8339  1.1349
  180DOPC   C2922065   6.590   4.599   9.817 -0.2460  0.1911 -0.2622
  180DOPC   H9R22066   6.604   4.701   9.779  1.5285  0.1651  0.2198
  180DOPC  C21022067   6.614   4.569   9.943 -1.2845 -0.3051  0.3756
  180DOPC  H10R22068   6.676   4.641   9.997 -1.6058  0.9563 -0.8925
  180DOPC  C21122069   6.601   4.440  10.027 -0.5000  0.5559  0.3055
  180DOPC  H11R22070   6.704   4.416  10.062 -0.2542 -0.5222 -1.0782
  180DOPC  H11S22071   6.566   4.347   9.978 -1.9719  0.5644  1.2932
  180DOPC  C21222072   6.516   4.461  10.153 -0.0139 -0.1464  0.4341
  180DOPC  H12R22073   6.411   4.468  10.117  1.1537  2.0372 -2.9524
  180DOPC  H12S22074   6.542   4.558  10.201 -1.2103 -0.3906  1.6391
  180DOPC  C21322075   6.526   4.365  10.275 -0.2260  0.2638  0.3944
  180DOPC  H13R22076   6.630   4.378  10.313  0.2730 -2.7426  0.2637
  180DOPC  H13S22077   6.517   4.261  10.237 -0.5379 -0.4114  2.1875
  180DOPC  C21422078   6.432   4.400  10.386  0.2381 -0.7042  0.3655
  180DOPC  H14R22079   6.330   4.402  10.343  0.4384 -0.7829 -0.1146
  180DOPC  H14S22080   6.452   4.500  10.431 -0.3191 -0.2976 -0.2812
  180DOPC  C21522081   6.418   4.290  10.491 -0.0355 -0.6186  0.0283
  180DOPC  H15R22082   6.522   4.256  10.515 -0.5278 -1.3208  1.2806
  180DOPC  H15S22083   6.367   4.202  10.445 -0.0759 -0.8690  0.5417
  180DOPC  C21622084   6.341   4.335  10.615  0.1261  0.3407  0.3203
  180DOPC  H16R22085   6.234   4.352  10.589 -0.1501 -1.0071  0.4664
  180DOPC  H16S22086   6.371   4.439  10.639 -2.2852  1.4727 -1.1920
  180DOPC  C21722087   6.344   4.249  10.737 -0.5058  0.0446  0.0639
  180DOPC  H17R22088   6.440   4.272  10.788 -0.1009 -0.9507 -0.2405
  180DOPC  H17S22089   6.329   4.144  10.703 -3.5521  0.4831 -0.2301
  180DOPC  C21822090   6.231   4.270  10.836  0.5359  0.1504  0.4610
  180DOPC  H18R22091   6.139   4.218  10.803  1.5595 -0.9913 -0.7687
  180DOPC  H18S22092   6.214   4.379  10.843 -1.6691 -0.1917  0.9442
  180DOPC  H18T22093   6.249   4.242  10.942  1.0376 -0.4397  0.2289
  180DOPC   C3322094   6.043   3.549   9.214  0.0255  0.3430  0.6827
  180DOPC   H3X22095   6.118   3.468   9.219  0.4948  0.5071 -1.9253
  180DOPC   H3Y22096   5.956   3.500   9.165  0.9487 -1.2956  0.5996
  180DOPC   C3422097   6.016   3.610   9.350 -0.1699 -0.4463 -1.2168
  180DOPC   H4X22098   5.929   3.679   9.348  0.5047  0.5448  1.0404
  180DOPC   H4Y22099   6.109   3.660   9.385 -0.1044  0.7564 -2.9903
  180DOPC   C3522100   5.985   3.501   9.453  0.3458 -0.3959 -0.3329
  180DOPC   H5X22101   5.903   3.438   9.412  1.4507 -1.4386 -1.0117
  180DOPC   H5Y22102   5.945   3.554   9.542  1.4206  3.0527 -1.7308
  180DOPC   C3622103   6.111   3.425   9.503  0.4035 -1.0123 -0.4366
  180DOPC   H6X22104   6.174   3.387   9.420 -0.6148  0.0790 -1.7513
  180DOPC   H6Y22105   6.166   3.509   9.550  0.0003 -2.0228  1.9817
  180DOPC   C3722106   6.067   3.312   9.607 -0.5351 -0.3091  0.7419
  180DOPC   H7X22107   6.000   3.252   9.542 -0.3892  0.5982 -0.2700
  180DOPC   H7Y22108   6.157   3.252   9.633  0.4231  0.0364 -1.5659
  180DOPC   C3822109   5.998   3.359   9.729  0.6283 -0.9584 -0.4598
  180DOPC   H8X22110   5.985   3.279   9.804 -1.1524 -0.4506 -0.1873
  180DOPC   H8Y22111   5.892   3.385   9.711  0.4528 -1.3508 -0.0133
  180DOPC   C3922112   6.065   3.471   9.796  0.2015 -0.0624  0.2495
  180DOPC   H9X22113   6.110   3.541   9.724 -0.6096 -1.5217 -1.7560
  180DOPC  C31022114   6.071   3.491   9.929 -0.1012 -0.4995  0.5244
  180DOPC  H10X22115   6.127   3.582   9.954 -1.5856  0.6229 -0.0961
  180DOPC  C31122116   6.023   3.411  10.040 -0.1076  0.5479  0.1120
  180DOPC  H11X22117   6.096   3.332  10.069  0.5130  0.7699 -0.8213
  180DOPC  H11Y22118   5.926   3.368  10.008 -0.2756 -0.5973  1.9834
  180DOPC  C31222119   6.005   3.479  10.176 -0.3594 -1.0565  0.6714
  180DOPC  H12X22120   5.942   3.569  10.159  0.8424  0.1509  2.2489
  180DOPC  H12Y22121   6.104   3.521  10.204 -1.2202  0.3182  1.7953
  180DOPC  C31322122   5.954   3.390  10.295 -0.9032 -0.3324 -0.2577
  180DOPC  H13X22123   5.866   3.335  10.255  0.2815 -1.8416 -0.8870
  180DOPC  H13Y22124   6.036   3.316  10.309  0.2825  0.6411 -1.8312
  180DOPC  C31422125   5.925   3.465  10.423  0.6055 -0.0627 -0.3825
  180DOPC  H14X22126   6.000   3.544  10.448 -1.4857  1.7730  0.4462
  180DOPC  H14Y22127   5.826   3.514  10.408  0.1333 -0.2481  1.7458
  180DOPC  C31522128   5.912   3.355  10.532 -0.1298  0.6813 -0.3217
  180DOPC  H15X22129   5.996   3.285  10.511 -1.3601 -1.2414  0.8656
  180DOPC  H15Y22130   5.818   3.299  10.517 -0.6410  1.8501 -1.7106
  180DOPC  C31622131   5.932   3.402  10.678 -0.9163 -0.4090  0.6718
  180DOPC  H16X22132   6.024   3.465  10.681 -0.1018 -1.4291 -1.4580
  180DOPC  H16Y22133   5.841   3.463  10.697 -1.9077 -2.1752  1.9272
  180DOPC  C31722134   5.944   3.284  10.774  0.9351 -0.7162 -0.3568
  180DOPC  H17X22135   5.939   3.338  10.870  2.6311 -1.1325 -0.0173
  180DOPC  H17Y22136   5.851   3.223  10.767  0.5385 -0.2309  0.5776
  180DOPC  C31822137   6.069   3.205  10.753  0.0942  0.5945 -0.0137
  180DOPC  H18X22138   6.085   3.173  10.648  0.5005  0.5274  0.0657
  180DOPC  H18Y22139   6.162   3.253  10.792  0.8909  0.0556 -1.1781
  180DOPC  H18Z22140   6.062   3.113  10.816 -0.1990  0.9474  0.4749
  181DOPC     N22141   1.619   4.424   8.993  0.3009  0.0596  0.5428
  181DOPC   C1222142   1.496   4.503   9.037  0.8368 -0.1962  0.4269
  181DOPC  H12A22143   1.496   4.606   9.005 -2.1086 -0.5941 -1.2595
  181DOPC  H12B22144   1.496   4.510   9.145  0.1873  3.3928  0.3100
  181DOPC   C1322145   1.625   4.285   9.051  0.3551  0.0166 -0.3879
  181DOPC  H13A22146   1.645   4.274   9.156  1.7536 -0.6833 -0.7068
  181DOPC  H13B22147   1.534   4.231   9.027  0.3314 -0.3094  0.4036
  181DOPC  H13C22148   1.701   4.229   9.000  1.0287  0.6393 -0.0757
  181DOPC   C1422149   1.749   4.491   9.020  0.0178  0.0002 -0.0430
  181DOPC  H14A22150   1.771   4.580   8.961  0.3447 -0.3897 -0.5228
  181DOPC  H14B22151   1.748   4.526   9.122  1.4901 -0.4382  0.1552
  181DOPC  H14C22152   1.826   4.415   9.013 -0.9002 -1.1429  1.6675
  181DOPC   C1522153   1.613   4.401   8.847 -0.7188 -0.0396  0.2157
  181DOPC  H15A22154   1.559   4.312   8.820 -2.0994  0.5481  0.9209
  181DOPC  H15B22155   1.713   4.379   8.813 -0.7200 -1.3817  1.0048
  181DOPC  H15C22156   1.566   4.488   8.804 -1.3339 -0.3529  0.2432
  181DOPC   C1122157   1.359   4.440   8.991  0.2015 -0.1266  0.0862
  181DOPC  H11A22158   1.279   4.508   9.027  1.2983  1.0103  0.4551
  181DOPC  H11B22159   1.339   4.430   8.882  0.6164 -0.7246  0.0610
  181DOPC     P22160   1.267   4.268   9.172  0.2157 -0.2304  0.0740
  181DOPC   O1322161   1.292   4.131   9.211  0.1943  0.5804  0.3399
  181DOPC   O1422162   1.128   4.311   9.159  0.6807 -0.3834 -0.1933
  181DOPC   O1222163   1.341   4.311   9.051 -0.4807  0.2315  0.4134
  181DOPC   O1122164   1.323   4.358   9.292 -0.3467 -0.5535 -0.1067
  181DOPC    C122165   1.281   4.488   9.329 -0.1491 -0.9874 -0.3708
  181DOPC    HA22166   1.187   4.523   9.282 -1.5139 -1.5523  1.7709
  181DOPC    HB22167   1.353   4.567   9.299 -0.8573 -0.6809 -1.3180
  181DOPC    C222168   1.254   4.500   9.484  0.0799 -0.1147  0.0578
  181DOPC    HS22169   1.250   4.609   9.508  3.6838  0.1913 -0.1341
  181DOPC   O2122170   1.357   4.445   9.562  0.0479  0.4485 -0.8963
  181DOPC   C2122171   1.453   4.527   9.598 -0.1932  0.5141  0.3030
  181DOPC   O2222172   1.467   4.642   9.568 -0.3175 -0.4323 -0.0497
  181DOPC   C2222173   1.542   4.449   9.696 -0.0089 -0.7848 -0.0411
  181DOPC   H2R22174   1.613   4.527   9.731  1.2278 -2.5950  1.6967
  181DOPC   H2S22175   1.611   4.384   9.638  1.3022  0.3079  0.2409
  181DOPC    C322176   1.121   4.432   9.522  0.1123 -0.4218 -0.2167
  181DOPC    HX22177   1.119   4.328   9.483 -2.7821 -0.4246 -0.2281
  181DOPC    HY22178   1.040   4.482   9.466  1.1647  0.2818 -1.1542
  181DOPC   O3122179   1.100   4.419   9.663  0.0727  0.2241  0.0015
  181DOPC   C3122180   1.081   4.526   9.724 -0.2432  0.2677  0.3789
  181DOPC   O3222181   1.067   4.640   9.680 -0.4917 -0.3827 -0.1379
  181DOPC   C3222182   1.095   4.498   9.880 -0.1502  0.3399 -0.0490
  181DOPC   H2X22183   0.990   4.485   9.915  1.2346 -0.0274  4.4824
  181DOPC   H2Y22184   1.149   4.403   9.898  0.1662  0.7643  1.2991
  181DOPC   C2322185   1.472   4.388   9.820 -0.1604 -0.1853  0.7188
  181DOPC   H3R22186   1.394   4.312   9.796  0.6135 -0.6167 -0.5134
  181DOPC   H3S22187   1.427   4.475   9.872 -0.9449  0.2610 -0.6656
  181DOPC   C2422188   1.577   4.330   9.924 -0.0106 -0.1661  0.0014
  181DOPC   H4R22189   1.648   4.413   9.943 -1.3539  1.2046 -0.7945
  181DOPC   H4S22190   1.631   4.251   9.867 -1.6618 -0.5572 -1.1025
  181DOPC   C2522191   1.511   4.273  10.047 -0.0861 -0.2383  0.2510
  181DOPC   H5R22192   1.593   4.206  10.081  1.2319  1.8718  1.4272
  181DOPC   H5S22193   1.417   4.217  10.026 -0.3973 -0.2009  1.4277
  181DOPC   C2622194   1.473   4.373  10.153 -0.4871  0.7990  0.1526
  181DOPC   H6R22195   1.398   4.447  10.117  0.1780  1.0502 -0.7441
  181DOPC   H6S22196   1.569   4.423  10.175  1.2111 -1.6354 -1.2505
  181DOPC   C2722197   1.412   4.301  10.271 -0.0509  0.8059 -0.2675
  181DOPC   H7R22198   1.483   4.239  10.329 -0.4862 -0.2980 -0.8786
  181DOPC   H7S22199   1.326   4.245  10.229  1.5933 -0.6768 -1.8351
  181DOPC   C2822200   1.363   4.387  10.386  0.1636 -0.0687  0.3925
  181DOPC   H8R22201   1.310   4.475  10.343 -1.6601 -1.4443 -0.3118
  181DOPC   H8S22202   1.446   4.421  10.451  1.2635 -1.0329 -0.4632
  181DOPC   C2922203   1.255   4.319  10.466 -0.4012 -0.8167  0.1960
  181DOPC   H9R22204   1.278   4.212  10.480 -0.2837 -0.6310  1.6053
  181DOPC  C21022205   1.157   4.386  10.534 -0.1621 -0.5301 -0.2354
  181DOPC  H10R22206   1.077   4.336  10.591 -1.4326  1.1752 -0.4210
  181DOPC  C21122207   1.127   4.535  10.542  0.0638  0.1964  0.2447
  181DOPC  H11R22208   1.053   4.560  10.463 -0.5977 -0.0905  0.7566
  181DOPC  H11S22209   1.223   4.582  10.514  0.2397 -1.0949 -1.4798
  181DOPC  C21222210   1.059   4.569  10.670 -0.7736 -0.1639  0.8186
  181DOPC  H12R22211   0.958   4.522  10.674 -2.4023  2.8634 -0.7659
  181DOPC  H12S22212   1.043   4.679  10.678  0.5982  0.1754 -0.6807
  181DOPC  C21322213   1.143   4.528  10.799 -0.3025  0.4780  0.7733
  181DOPC  H13R22214   1.235   4.590  10.796 -1.8977  3.0791  2.1412
  181DOPC  H13S22215   1.174   4.422  10.791  0.2304  0.7421 -1.1588
  181DOPC  C21422216   1.093   4.561  10.940  0.5315 -0.3384 -0.0093
  181DOPC  H14R22217   1.171   4.520  11.008  0.2948 -1.1197 -0.1871
  181DOPC  H14S22218   0.995   4.513  10.963  1.3553 -1.1988  1.9278
  181DOPC  C21522219   1.062   4.711  10.966  0.3054  0.1110  0.5490
  181DOPC  H15R22220   0.961   4.720  10.923 -0.2739 -2.2099  1.2524
  181DOPC  H15S22221   1.144   4.768  10.917  0.3782  0.8653  1.5189
  181DOPC  C21622222   1.053   4.753  11.114  0.3871 -0.0432 -0.1237
  181DOPC  H16R22223   0.993   4.694  11.187  0.5088  1.3012  1.1173
  181DOPC  H16S22224   1.010   4.855  11.125 -0.4627 -0.4104  0.0796
  181DOPC  C21722225   1.183   4.740  11.193  0.0548  0.4308  0.4564
  181DOPC  H17R22226   1.257   4.799  11.135 -0.9654  1.3437  0.0694
  181DOPC  H17S22227   1.231   4.640  11.201  2.9466  1.7941  1.5719
  181DOPC  C21822228   1.179   4.788  11.342  0.1051 -0.3542  0.0784
  181DOPC  H18R22229   1.275   4.759  11.389  0.7387  3.9107  1.8816
  181DOPC  H18S22230   1.091   4.748  11.397 -0.0302  3.4820  3.0935
  181DOPC  H18T22231   1.187   4.899  11.354 -0.3947 -0.3998  0.9950
  181DOPC   C3322232   1.160   4.612   9.955 -0.2702 -0.2904  0.5837
  181DOPC   H3X22233   1.117   4.711   9.930 -2.3109 -0.9748  1.1677
  181DOPC   H3Y22234   1.267   4.601   9.926 -0.2399 -2.0045  1.2292
  181DOPC   C3422235   1.136   4.581  10.107 -0.3253 -0.1645 -0.6313
  181DOPC   H4X22236   1.183   4.484  10.134 -0.0397  0.0108 -0.4959
  181DOPC   H4Y22237   1.029   4.571  10.133 -0.9642  0.7346 -2.6520
  181DOPC   C3522238   1.200   4.704  10.184 -0.0007 -0.2537 -0.2949
  181DOPC   H5X22239   1.301   4.703  10.139  0.6025  0.9124  0.9799
  181DOPC   H5Y22240   1.212   4.680  10.292  0.2863 -2.6650 -0.8041
  181DOPC   C3622241   1.118   4.832  10.176 -0.2420 -0.3860 -0.0736
  181DOPC   H6X22242   1.141   4.891  10.085 -2.4232  0.2514 -0.2835
  181DOPC   H6Y22243   1.015   4.792  10.164 -0.5172  0.4191 -0.4361
  181DOPC   C3722244   1.116   4.911  10.307 -0.3262 -0.3204  0.2828
  181DOPC   H7X22245   1.101   4.842  10.392  0.6474  0.6154  1.2443
  181DOPC   H7Y22246   1.217   4.959  10.310  1.4617 -3.7001 -0.8176
  181DOPC   C3822247   1.019   5.029  10.290  0.4931 -0.2708  0.6239
  181DOPC   H8X22248   1.045   5.088  10.200 -0.5738 -0.5748  0.1007
  181DOPC   H8Y22249   1.031   5.103  10.373  1.2958  0.5710 -0.2100
  181DOPC   C3922250   0.879   4.978  10.272  0.0955  0.0388 -0.2207
  181DOPC   H9X22251   0.848   4.966  10.168  0.8376  0.0963 -0.4559
  181DOPC  C31022252   0.807   4.944  10.384  0.4347  0.4119  0.1501
  181DOPC  H10X22253   0.704   4.911  10.368  0.1042  0.9486  1.1157
  181DOPC  C31122254   0.858   4.948  10.533  0.2491  0.4981 -0.0901
  181DOPC  H11X22255   0.962   4.983  10.553  0.0269  0.3977  1.2836
  181DOPC  H11Y22256   0.863   4.846  10.576 -0.6052  1.1516  1.6162
  181DOPC  C31222257   0.765   5.035  10.607  0.3891  0.2694 -0.5157
  181DOPC  H12X22258   0.663   4.991  10.600 -0.3572  1.5903  1.2916
  181DOPC  H12Y22259   0.767   5.140  10.570  2.1793  0.3514 -0.2527
  181DOPC  C31322260   0.793   5.043  10.763 -0.2503 -0.0949  0.0095
  181DOPC  H13X22261   0.792   4.938  10.800 -0.5977 -0.6688 -1.5222
  181DOPC  H13Y22262   0.898   5.076  10.775 -0.7126  1.0728  1.0538
  181DOPC  C31422263   0.695   5.132  10.847 -0.4124  0.4947 -0.7914
  181DOPC  H14X22264   0.590   5.103  10.826 -0.2015 -2.1219  1.1976
  181DOPC  H14Y22265   0.720   5.116  10.954  0.0632 -1.9615 -1.2067
  181DOPC  C31522266   0.719   5.283  10.815 -0.0403  0.6270 -0.7448
  181DOPC  H15X22267   0.672   5.318  10.720 -1.1910 -0.9841 -0.7892
  181DOPC  H15Y22268   0.827   5.309  10.825  0.3897 -1.3407  0.0224
  181DOPC  C31622269   0.656   5.363  10.926 -0.3896 -0.3088 -0.1091
  181DOPC  H16X22270   0.545   5.360  10.918 -0.2402 -1.1525 -2.4992
  181DOPC  H16Y22271   0.688   5.326  11.026 -0.6030  0.3904  0.2291
  181DOPC  C31722272   0.690   5.514  10.914 -0.4071  0.6565  0.1673
  181DOPC  H17X22273   0.798   5.528  10.938 -0.7630  0.0268  2.3124
  181DOPC  H17Y22274   0.676   5.535  10.805 -1.7509 -2.5155 -0.3790
  181DOPC  C31822275   0.610   5.611  11.001  0.6883  0.1495 -0.4065
  181DOPC  H18X22276   0.650   5.715  11.005 -1.4234  1.0115 -0.4390
  181DOPC  H18Y22277   0.507   5.621  10.962 -0.4860  0.7864  2.5819
  181DOPC  H18Z22278   0.588   5.564  11.099  1.0109  0.0540 -0.3768
  182DOPC     N22279   2.034   2.728   8.656 -0.3292 -0.3484 -0.2023
  182DOPC   C1222280   1.995   2.781   8.793  0.1356 -0.3504 -0.1126
  182DOPC  H12A22281   1.889   2.793   8.781 -0.0749 -2.9866 -1.7981
  182DOPC  H12B22282   2.042   2.878   8.794  0.5188 -0.5309  0.8703
  182DOPC   C1322283   1.997   2.831   8.556 -0.1430 -0.2599 -0.0393
  182DOPC  H13A22284   2.030   2.796   8.459 -2.9941 -1.4693 -0.6632
  182DOPC  H13B22285   1.892   2.854   8.543 -0.1881  0.3621  1.2896
  182DOPC  H13C22286   2.054   2.920   8.579 -1.2653 -0.1984  2.9073
  182DOPC   C1422287   1.964   2.599   8.632 -0.2836  0.2100 -0.0856
  182DOPC  H14A22288   1.965   2.559   8.531  0.9795 -1.4493  0.5242
  182DOPC  H14B22289   1.996   2.519   8.697 -0.5931  0.9480  0.9886
  182DOPC  H14C22290   1.860   2.609   8.659 -0.6392 -2.7613  0.0162
  182DOPC   C1522291   2.180   2.715   8.655 -0.0467 -0.5437  0.1569
  182DOPC  H15A22292   2.212   2.678   8.558 -0.5461  0.3066 -0.3450
  182DOPC  H15B22293   2.211   2.636   8.722  0.8892 -0.3590 -0.0438
  182DOPC  H15C22294   2.237   2.802   8.681  2.6733 -2.9942  3.1729
  182DOPC   C1122295   2.045   2.707   8.924 -0.1727 -0.3835  1.2800
  182DOPC  H11A22296   2.151   2.677   8.918  0.0750  0.4008  1.6039
  182DOPC  H11B22297   2.041   2.760   9.022 -1.1453  0.6601  0.7091
  182DOPC     P22298   1.827   2.563   8.982 -0.5230 -0.1211  0.1083
  182DOPC   O1322299   1.773   2.440   8.913 -0.5062  0.3604 -0.5252
  182DOPC   O1422300   1.757   2.691   8.967 -0.3285  0.2114 -0.0050
  182DOPC   O1222301   1.974   2.581   8.929 -0.2773 -0.2674 -0.0122
  182DOPC   O1122302   1.837   2.523   9.133  0.7062 -0.3897 -0.3259
  182DOPC    C122303   1.942   2.470   9.206  0.2516  0.0382  0.2227
  182DOPC    HA22304   1.945   2.508   9.310 -0.0740 -3.2784  1.5548
  182DOPC    HB22305   2.037   2.487   9.152 -0.5602  0.6419 -1.0647
  182DOPC    C222306   1.938   2.316   9.210  0.0238  0.8798  0.3216
  182DOPC    HS22307   1.895   2.282   9.113  2.4901 -0.8291 -0.2491
  182DOPC   O2122308   1.846   2.284   9.315 -0.0904 -0.1013  0.6913
  182DOPC   C2122309   1.805   2.156   9.310  0.8564 -0.5403  0.3325
  182DOPC   O2222310   1.831   2.073   9.224 -0.1991 -0.6745  0.0537
  182DOPC   C2222311   1.717   2.133   9.427  0.1222  0.2894 -0.7055
  182DOPC   H2R22312   1.649   2.047   9.411  1.3626 -0.8139 -0.2709
  182DOPC   H2S22313   1.653   2.224   9.424  0.0213  0.1998 -1.4125
  182DOPC    C322314   2.078   2.258   9.227 -0.2471 -0.1186 -0.0539
  182DOPC    HX22315   2.131   2.300   9.138 -1.4793  0.0969 -0.7096
  182DOPC    HY22316   2.083   2.148   9.212  0.7898 -0.1728  0.6023
  182DOPC   O3122317   2.143   2.305   9.345 -0.0632 -0.3344 -0.0861
  182DOPC   C3122318   2.142   2.222   9.448  0.0525  0.5234  0.3036
  182DOPC   O3222319   2.082   2.120   9.459  0.3949  0.0229  0.5769
  182DOPC   C3222320   2.225   2.290   9.557 -0.7593  0.0199 -0.7463
  182DOPC   H2X22321   2.332   2.297   9.527 -0.1791 -2.1101  0.5929
  182DOPC   H2Y22322   2.188   2.394   9.567 -1.3351 -0.3697  2.0232
  182DOPC   C2322323   1.797   2.114   9.561  1.0223 -0.3457 -1.1777
  182DOPC   H3R22324   1.864   2.202   9.570 -1.2558  1.3312  1.0621
  182DOPC   H3S22325   1.852   2.018   9.561 -0.5601 -1.3805  2.0887
  182DOPC   C2422326   1.712   2.122   9.691 -0.7749 -0.1647 -0.0462
  182DOPC   H4R22327   1.636   2.040   9.691 -0.6420 -0.3150 -1.7356
  182DOPC   H4S22328   1.661   2.220   9.689 -0.1058  0.1779 -0.4366
  182DOPC   C2522329   1.796   2.140   9.828  0.7877 -0.1241  0.9825
  182DOPC   H5R22330   1.842   2.241   9.822 -1.2514  0.8858  1.4008
  182DOPC   H5S22331   1.874   2.062   9.837  0.1906 -0.7786  0.6121
  182DOPC   C2622332   1.690   2.149   9.943  0.0744  0.2392  0.1988
  182DOPC   H6R22333   1.653   2.047   9.967 -0.3884  0.0605 -1.2141
  182DOPC   H6S22334   1.604   2.207   9.904 -1.1168 -0.8744  1.0851
  182DOPC   C2722335   1.731   2.227  10.070 -0.3860 -0.1676 -0.3555
  182DOPC   H7R22336   1.746   2.333  10.039 -0.0038 -0.5270 -1.4421
  182DOPC   H7S22337   1.830   2.194  10.108 -1.0016 -1.5464  0.0972
  182DOPC   C2822338   1.629   2.228  10.183 -0.4468 -1.2155 -0.5824
  182DOPC   H8R22339   1.613   2.124  10.216  1.0835 -1.3055 -0.0431
  182DOPC   H8S22340   1.535   2.284  10.162 -0.0750 -0.4241 -0.1873
  182DOPC   C2922341   1.690   2.318  10.296 -0.2114  0.7272 -0.7650
  182DOPC   H9R22342   1.705   2.423  10.267 -0.1096  1.5696  2.0450
  182DOPC  C21022343   1.744   2.267  10.409  0.4404 -0.2104 -0.3680
  182DOPC  H10R22344   1.778   2.342  10.482 -0.5233 -0.6572  0.5493
  182DOPC  C21122345   1.751   2.127  10.461  0.1121 -0.0169  0.6869
  182DOPC  H11R22346   1.856   2.108  10.492  0.1146 -1.3989 -0.0782
  182DOPC  H11S22347   1.738   2.061  10.373 -0.6997  0.1211  0.6912
  182DOPC  C21222348   1.648   2.108  10.573 -0.0582 -0.2509  0.0065
  182DOPC  H12R22349   1.651   2.002  10.607  1.3863  0.1281  1.1844
  182DOPC  H12S22350   1.545   2.119  10.535  0.0398  1.5942  0.1902
  182DOPC  C21322351   1.664   2.193  10.698 -0.2850  0.0207 -0.8467
  182DOPC  H13R22352   1.668   2.299  10.665 -0.1958  0.5031  0.6475
  182DOPC  H13S22353   1.760   2.167  10.747 -0.1143 -0.4914 -1.4437
  182DOPC  C21422354   1.559   2.168  10.814 -0.0573 -0.3598 -0.0510
  182DOPC  H14R22355   1.468   2.116  10.775  0.0381 -0.5472 -0.0280
  182DOPC  H14S22356   1.535   2.268  10.855  0.9091 -0.3380  0.4826
  182DOPC  C21522357   1.614   2.078  10.921 -0.3986 -0.3566 -0.0732
  182DOPC  H15R22358   1.698   2.122  10.980 -0.8032  0.6906 -0.2584
  182DOPC  H15S22359   1.669   1.995  10.872  2.6305 -0.0976  2.5400
  182DOPC  C21622360   1.506   2.019  11.016  0.7356  0.0290 -0.7179
  182DOPC  H16R22361   1.451   1.935  10.969 -0.7892  0.3243  0.4613
  182DOPC  H16S22362   1.433   2.096  11.047  1.8529  0.7067  0.3453
  182DOPC  C21722363   1.567   1.975  11.153 -0.6081  0.1008  0.1972
  182DOPC  H17R22364   1.639   2.043  11.202 -0.1499 -0.6398  0.5737
  182DOPC  H17S22365   1.625   1.882  11.135 -0.2345  0.3993 -0.1658
  182DOPC  C21822366   1.454   1.945  11.253 -0.0620  0.2845  0.5062
  182DOPC  H18R22367   1.491   1.891  11.343  0.0125 -2.2123 -0.9266
  182DOPC  H18S22368   1.368   1.903  11.196 -0.4817  2.6577 -0.7237
  182DOPC  H18T22369   1.417   2.044  11.287  1.0750  1.0912 -0.5310
  182DOPC   C3322370   2.223   2.224   9.695 -0.0498  0.1899 -0.8616
  182DOPC   H3X22371   2.256   2.117   9.691  1.3208  0.5586 -0.3019
  182DOPC   H3Y22372   2.120   2.236   9.734  0.6486  1.7970  0.6122
  182DOPC   C3422373   2.300   2.301   9.801  0.3040  0.6638 -0.6422
  182DOPC   H4X22374   2.259   2.254   9.893  1.0028 -0.9466 -1.1086
  182DOPC   H4Y22375   2.287   2.409   9.819  0.0700  0.6975 -1.0114
  182DOPC   C3522376   2.449   2.276   9.798  0.3131 -0.6262  0.3352
  182DOPC   H5X22377   2.478   2.313   9.697 -2.4733  0.5726 -0.1383
  182DOPC   H5Y22378   2.461   2.166   9.808  1.1998 -0.5149  0.6137
  182DOPC   C3622379   2.534   2.328   9.912 -0.1669  0.2571  0.2128
  182DOPC   H6X22380   2.641   2.320   9.882 -0.4769  1.2608 -1.2306
  182DOPC   H6Y22381   2.517   2.437   9.921  0.8867  0.5300 -0.9004
  182DOPC   C3722382   2.495   2.268  10.043  0.3211  0.1373 -0.3815
  182DOPC   H7X22383   2.392   2.296  10.072 -0.1424 -0.1527 -1.6850
  182DOPC   H7Y22384   2.483   2.158  10.031  2.1283 -0.0795 -0.5680
  182DOPC   C3822385   2.589   2.282  10.162  0.0955  0.4301 -0.2526
  182DOPC   H8X22386   2.567   2.378  10.213  1.2128  0.0957  0.9075
  182DOPC   H8Y22387   2.689   2.299  10.117  0.1214  0.7686 -0.0705
  182DOPC   C3922388   2.586   2.166  10.262 -0.4073 -0.0497  0.4329
  182DOPC   H9X22389   2.585   2.065  10.217  0.3438  0.5625 -1.0544
  182DOPC  C31022390   2.572   2.178  10.394  0.3844  0.5076  0.0251
  182DOPC  H10X22391   2.584   2.095  10.465 -0.4715  1.7323  1.6730
  182DOPC  C31122392   2.554   2.306  10.472  0.1227 -0.3337  0.4509
  182DOPC  H11X22393   2.449   2.340  10.473  1.0537  2.9644  1.6642
  182DOPC  H11Y22394   2.613   2.387  10.422  1.3520 -0.2981  1.8772
  182DOPC  C31222395   2.591   2.298  10.618  0.4329  0.1998 -0.4920
  182DOPC  H12X22396   2.579   2.400  10.661 -2.1701  0.0448 -0.6679
  182DOPC  H12Y22397   2.693   2.262  10.641  0.1301 -0.2809  0.1488
  182DOPC  C31322398   2.501   2.209  10.705  0.2207  0.2965  0.1065
  182DOPC  H13X22399   2.402   2.206  10.654 -0.5182 -3.0590  1.4425
  182DOPC  H13Y22400   2.533   2.103  10.692 -0.3436  0.2947 -1.5121
  182DOPC  C31422401   2.494   2.253  10.849  0.1779 -0.0970  0.1078
  182DOPC  H14X22402   2.444   2.352  10.842  0.0495 -0.1780 -0.1197
  182DOPC  H14Y22403   2.426   2.188  10.908 -1.4154  0.0791 -1.4428
  182DOPC  C31522404   2.635   2.255  10.915 -0.7864 -0.2188  0.1340
  182DOPC  H15X22405   2.689   2.346  10.880  2.1946 -1.3001  1.6399
  182DOPC  H15Y22406   2.689   2.160  10.897  1.0053  0.3965  1.9841
  182DOPC  C31622407   2.639   2.262  11.065 -0.4086  0.5221 -0.2535
  182DOPC  H16X22408   2.610   2.361  11.104 -0.9339  0.5046 -0.5944
  182DOPC  H16Y22409   2.576   2.178  11.101  0.2591  1.0111  2.2656
  182DOPC  C31722410   2.788   2.235  11.116 -0.2935 -0.0006  0.5597
  182DOPC  H17X22411   2.830   2.159  11.047 -0.9084  0.4095 -0.2896
  182DOPC  H17Y22412   2.845   2.329  11.099  0.7270 -0.2415  2.3757
  182DOPC  C31822413   2.795   2.192  11.267  0.9701 -0.4000  0.4950
  182DOPC  H18X22414   2.904   2.178  11.288  1.0897  0.5588  0.5679
  182DOPC  H18Y22415   2.755   2.273  11.332  2.6169 -0.4164  1.6007
  182DOPC  H18Z22416   2.743   2.094  11.275  0.9667 -0.3765  0.7904
  183DOPC     N22417   0.004   5.558   8.896  0.4050 -0.3794 -0.1365
  183DOPC   C1222418   0.005   5.479   9.018 -0.3141  0.3232  0.2579
  183DOPC  H12A22419  -0.086   5.421   9.017  0.7710 -1.6272 -3.0007
  183DOPC  H12B22420   0.010   5.543   9.105  0.7655  1.4594 -0.6069
  183DOPC   C1322421  -0.030   5.465   8.782 -0.6317  0.1604 -0.8662
  183DOPC  H13A22422  -0.113   5.405   8.814 -0.3974 -0.0430 -0.6360
  183DOPC  H13B22423  -0.045   5.517   8.689 -1.1342 -0.0341 -0.8972
  183DOPC  H13C22424   0.059   5.403   8.773  0.9547  2.4670 -2.1661
  183DOPC   C1422425   0.123   5.641   8.872  0.1494 -0.0544  0.1524
  183DOPC  H14A22426   0.105   5.730   8.814  1.3580  0.9753  1.3101
  183DOPC  H14B22427   0.173   5.682   8.958  0.3891  0.8067 -0.3851
  183DOPC  H14C22428   0.201   5.584   8.821  1.1377 -0.0266  1.5825
  183DOPC   C1522429  -0.113   5.655   8.908 -0.2084  0.1112  0.3629
  183DOPC  H15A22430  -0.113   5.713   8.817 -2.1812  0.6369  0.6561
  183DOPC  H15B22431  -0.108   5.696   9.008 -3.3175 -0.6325  0.9150
  183DOPC  H15C22432  -0.202   5.594   8.905 -0.3884  0.4143 -0.8333
  183DOPC   C1122433   0.114   5.368   9.038 -0.7258  0.0706  0.3769
  183DOPC  H11A22434   0.212   5.422   9.041 -0.5608 -0.1612 -0.4836
  183DOPC  H11B22435   0.097   5.336   9.143 -0.3429 -1.4424  0.0064
  183DOPC     P22436   0.020   5.136   8.963 -0.2037  0.4948  0.4903
  183DOPC   O1322437   0.101   5.021   8.911  0.0400  0.0222 -0.0801
  183DOPC   O1422438  -0.110   5.164   8.898 -0.3764 -0.7058  0.4811
  183DOPC   O1222439   0.114   5.258   8.946 -0.6183  0.1117 -0.5121
  183DOPC   O1122440  -0.007   5.117   9.113  0.2971 -0.2578 -0.5247
  183DOPC    C122441   0.055   5.020   9.198 -0.9571 -0.0357  0.6562
  183DOPC    HA22442   0.166   5.022   9.200 -0.8848 -2.2660  0.4613
  183DOPC    HB22443   0.033   4.917   9.165  2.5596 -0.1528 -1.9266
  183DOPC    C222444   0.020   5.046   9.348 -0.4457 -0.2170 -0.2753
  183DOPC    HS22445   0.090   4.991   9.414  0.5106  1.1356 -0.1190
  183DOPC   O2122446  -0.117   5.002   9.371  0.4667 -0.5902  0.0986
  183DOPC   C2122447  -0.120   4.869   9.391 -0.0499 -0.2460  1.0976
  183DOPC   O2222448  -0.026   4.791   9.396  0.1441  0.1977  0.3421
  183DOPC   C2222449  -0.258   4.849   9.452  0.0387  0.0370 -0.1822
  183DOPC   H2R22450  -0.271   4.738   9.452  0.8382 -0.0636 -0.0817
  183DOPC   H2S22451  -0.335   4.895   9.387  0.8253  1.3904 -0.1776
  183DOPC    C322452   0.034   5.191   9.397 -0.2898 -0.3150 -0.2638
  183DOPC    HX22453  -0.037   5.258   9.344 -0.3975  0.5219  0.8879
  183DOPC    HY22454   0.136   5.233   9.382  0.5890 -1.2517  2.4195
  183DOPC   O3122455   0.008   5.196   9.539  0.3381  0.0768 -0.3399
  183DOPC   C3122456   0.003   5.314   9.590 -0.1487 -0.5794 -0.3255
  183DOPC   O3222457   0.007   5.422   9.529 -0.6371 -0.5117 -0.3063
  183DOPC   C3222458  -0.028   5.302   9.737 -0.3515 -0.5541 -0.3355
  183DOPC   H2X22459  -0.137   5.290   9.750 -0.6235 -2.5387 -3.4118
  183DOPC   H2Y22460   0.029   5.214   9.776 -0.4998 -0.3230  0.4346
  183DOPC   C2322461  -0.263   4.901   9.603 -0.1404  0.3784 -0.0640
  183DOPC   H3R22462  -0.231   5.007   9.609  0.6477  0.0781  1.4684
  183DOPC   H3S22463  -0.204   4.829   9.664  0.5876  2.0044  1.2201
  183DOPC   C2422464  -0.415   4.889   9.653 -0.1012 -0.5337  0.3440
  183DOPC   H4R22465  -0.438   4.781   9.659  0.8057 -0.9954 -2.8480
  183DOPC   H4S22466  -0.483   4.939   9.581  1.4368  1.6682  0.3089
  183DOPC   C2522467  -0.451   4.960   9.784 -0.7683 -0.5228 -0.3449
  183DOPC   H5R22468  -0.555   4.929   9.809 -0.6263 -2.4310 -1.8877
  183DOPC   H5S22469  -0.437   5.068   9.764 -0.8225 -0.9354 -2.9781
  183DOPC   C2622470  -0.350   4.921   9.894 -0.6450  0.0902 -0.6399
  183DOPC   H6R22471  -0.246   4.939   9.860  0.4062 -2.0477  1.2354
  183DOPC   H6S22472  -0.352   4.810   9.894  2.9744 -0.1260 -2.4247
  183DOPC   C2722473  -0.375   4.972  10.037  0.6688  0.1856  0.4876
  183DOPC   H7R22474  -0.483   4.958  10.059  0.1735  1.8081 -0.6388
  183DOPC   H7S22475  -0.355   5.082  10.039 -0.4557  0.5207 -2.1484
  183DOPC   C2822476  -0.283   4.910  10.144  0.6676  0.0166  0.9237
  183DOPC   H8R22477  -0.277   4.988  10.223  1.3557  2.5162 -1.4181
  183DOPC   H8S22478  -0.180   4.910  10.102  0.6097  2.1422  0.6596
  183DOPC   C2922479  -0.343   4.779  10.187  0.0718  0.5347 -0.1839
  183DOPC   H9R22480  -0.348   4.702  10.109  1.0245  1.4368 -1.1648
  183DOPC  C21022481  -0.385   4.748  10.313 -0.5987  0.4239 -0.4140
  183DOPC  H10R22482  -0.398   4.642  10.340  1.5859  0.4795  1.0562
  183DOPC  C21122483  -0.399   4.850  10.426 -0.3665  0.4334 -0.5279
  183DOPC  H11R22484  -0.414   4.955  10.390  0.0420  0.0340 -1.9204
  183DOPC  H11S22485  -0.316   4.849  10.499 -0.1878 -1.6936 -0.7036
  183DOPC  C21222486  -0.543   4.817  10.490 -0.7057  0.5166  0.8326
  183DOPC  H12R22487  -0.551   4.712  10.525 -0.4229  0.5281  0.9284
  183DOPC  H12S22488  -0.615   4.829  10.406 -1.0339 -1.3444  0.7928
  183DOPC  C21322489  -0.579   4.902  10.613 -0.5779  0.1502  0.2362
  183DOPC  H13R22490  -0.567   5.009  10.588 -0.8234  0.0646 -0.2587
  183DOPC  H13S22491  -0.504   4.886  10.693 -0.9811 -0.0767  0.5742
  183DOPC  C21422492  -0.718   4.859  10.662  0.1250  0.4242  0.0464
  183DOPC  H14R22493  -0.712   4.758  10.710  0.2975  0.0261 -0.7949
  183DOPC  H14S22494  -0.786   4.861  10.575  3.1872 -1.6469 -2.6461
  183DOPC  C21522495  -0.774   4.952  10.761  0.3167 -0.7238 -0.3001
  183DOPC  H15R22496  -0.777   5.055  10.719 -0.3444 -0.6387 -0.0604
  183DOPC  H15S22497  -0.726   4.955  10.861  0.4089 -2.8132 -0.2309
  183DOPC  C21622498  -0.929   4.928  10.794 -0.2184  0.3510 -0.0399
  183DOPC  H16R22499  -0.993   4.947  10.705 -0.5012 -0.2685  0.0225
  183DOPC  H16S22500  -0.950   5.011  10.865  0.1104  0.5739 -0.2035
  183DOPC  C21722501  -0.957   4.785  10.849 -0.0030 -0.3989 -0.4294
  183DOPC  H17R22502  -0.922   4.713  10.772 -0.6229 -0.3739 -0.7392
  183DOPC  H17S22503  -1.066   4.769  10.866  0.3656 -2.8156 -0.0811
  183DOPC  C21822504  -0.883   4.755  10.982  0.3445  0.0597  0.2194
  183DOPC  H18R22505  -0.908   4.824  11.066  1.1858 -1.3618  1.6905
  183DOPC  H18S22506  -0.773   4.763  10.969  0.4628  1.3796  1.6402
  183DOPC  H18T22507  -0.916   4.654  11.013 -3.1853  0.5469 -1.4437
  183DOPC   C3322508   0.017   5.423   9.825  0.3752  0.1684 -0.2310
  183DOPC   H3X22509  -0.045   5.507   9.787  3.0542  2.4038  0.0514
  183DOPC   H3Y22510   0.120   5.454   9.800  0.1602 -0.6710 -2.3115
  183DOPC   C3422511  -0.008   5.400   9.976 -0.1720 -0.0766 -0.9068
  183DOPC   H4X22512  -0.111   5.395  10.016  0.2782  0.6538  0.3905
  183DOPC   H4Y22513   0.041   5.483  10.030 -0.3661 -0.7021  0.2628
  183DOPC   C3522514   0.052   5.268  10.029  0.7657  0.3733  0.1722
  183DOPC   H5X22515   0.146   5.256   9.972 -0.3303  1.5617 -1.9897
  183DOPC   H5Y22516  -0.008   5.183   9.992  0.4909 -0.3404  2.1473
  183DOPC   C3622517   0.061   5.265  10.186  0.2199  0.7013 -0.4070
  183DOPC   H6X22518   0.093   5.162  10.215 -0.2057  0.8774  0.7163
  183DOPC   H6Y22519   0.138   5.339  10.213 -0.3197  1.5937 -1.2641
  183DOPC   C3722520  -0.074   5.299  10.261  0.7335  0.2723 -0.1276
  183DOPC   H7X22521  -0.108   5.404  10.251  1.2028  0.5360  0.9279
  183DOPC   H7Y22522  -0.154   5.236  10.215  1.4576 -2.6693  2.3587
  183DOPC   C3822523  -0.086   5.271  10.410 -0.2133  0.3943  0.0551
  183DOPC   H8X22524  -0.188   5.304  10.439 -0.5732 -1.3618  0.9934
  183DOPC   H8Y22525  -0.022   5.347  10.458 -0.5912  1.1275 -0.5758
  183DOPC   C3922526  -0.068   5.122  10.444 -0.2496  0.3081  0.3708
  183DOPC   H9X22527   0.000   5.064  10.380 -1.2342  1.0564 -1.4183
  183DOPC  C31022528  -0.128   5.059  10.551  0.2159 -0.5793  0.2336
  183DOPC  H10X22529  -0.106   4.956  10.583  2.1856  0.3020  1.9650
  183DOPC  C31122530  -0.217   5.120  10.654 -0.1787 -0.6803  0.3260
  183DOPC  H11X22531  -0.312   5.063  10.666 -1.9779  1.8926 -0.7093
  183DOPC  H11Y22532  -0.248   5.223  10.624  0.7428 -0.3004  0.6261
  183DOPC  C31222533  -0.137   5.139  10.786 -0.5495 -0.1684 -0.7520
  183DOPC  H12X22534  -0.038   5.184  10.761 -1.1440  0.8568 -1.3218
  183DOPC  H12Y22535  -0.110   5.040  10.829 -0.4402  0.5261  0.8798
  183DOPC  C31322536  -0.207   5.232  10.885  0.7435  0.3387  0.5556
  183DOPC  H13X22537  -0.138   5.261  10.967  0.4991  1.8224  0.2696
  183DOPC  H13Y22538  -0.234   5.326  10.834  0.1643 -0.7371 -1.2090
  183DOPC  C31422539  -0.339   5.170  10.937 -0.5574  0.4816  0.2359
  183DOPC  H14X22540  -0.397   5.157  10.843  3.2822  2.3232 -2.6834
  183DOPC  H14Y22541  -0.310   5.067  10.968 -0.0526  1.1970  2.2638
  183DOPC  C31522542  -0.421   5.251  11.036 -0.6625 -0.7260 -0.2391
  183DOPC  H15X22543  -0.438   5.355  11.002  1.8193 -0.0448  0.3671
  183DOPC  H15Y22544  -0.365   5.262  11.131  1.1900  0.4565 -1.3897
  183DOPC  C31622545  -0.561   5.198  11.068 -0.1367 -0.3841 -0.7662
  183DOPC  H16X22546  -0.618   5.274  11.125  0.8423 -1.5631  1.9089
  183DOPC  H16Y22547  -0.618   5.195  10.972 -1.0053 -2.0820 -0.2327
  183DOPC  C31722548  -0.577   5.057  11.134  0.0768  0.5272 -0.0390
  183DOPC  H17X22549  -0.532   4.983  11.064  1.1183  0.6156  0.5315
  183DOPC  H17Y22550  -0.515   5.068  11.225 -0.1183  0.7998  0.0608
  183DOPC  C31822551  -0.725   5.014  11.167 -0.5240 -0.1482  0.3713
  183DOPC  H18X22552  -0.784   5.014  11.074  0.2277 -1.1195 -0.1233
  183DOPC  H18Y22553  -0.718   4.912  11.210 -1.6527 -0.7705 -0.8549
  183DOPC  H18Z22554  -0.778   5.080  11.240  0.7196 -1.1607  2.2755
  184DOPC     N22555   3.990   1.601   8.473  0.0466 -0.3517  0.0664
  184DOPC   C1222556   4.056   1.734   8.442 -0.7342 -0.4830 -0.4620
  184DOPC  H12A22557   3.990   1.810   8.403  0.6308  1.6194  1.1106
  184DOPC  H12B22558   4.138   1.716   8.374  0.2384 -1.5305  0.9192
  184DOPC   C1322559   4.095   1.516   8.532  0.0658  0.0233 -0.2976
  184DOPC  H13A22560   4.061   1.419   8.566  1.1454 -0.4164 -0.4542
  184DOPC  H13B22561   4.166   1.497   8.454 -0.4335  1.6994 -1.2046
  184DOPC  H13C22562   4.147   1.577   8.604 -0.9615  1.6892 -0.9137
  184DOPC   C1422563   3.947   1.546   8.340 -0.5382 -0.5635  0.1205
  184DOPC  H14A22564   4.027   1.540   8.267 -0.6268 -3.3153  0.1179
  184DOPC  H14B22565   3.921   1.442   8.353 -2.2765 -0.1515  0.1488
  184DOPC  H14C22566   3.861   1.599   8.302  0.6111  1.5039  0.2563
  184DOPC   C1522567   3.874   1.609   8.567  0.3286  0.2787 -0.7893
  184DOPC  H15A22568   3.809   1.687   8.533 -0.7370 -1.7150 -3.7391
  184DOPC  H15B22569   3.899   1.635   8.669 -0.2278 -1.0999 -0.2811
  184DOPC  H15C22570   3.827   1.512   8.577  0.3835  0.2565 -0.7458
  184DOPC   C1122571   4.122   1.806   8.564 -0.3992  0.2068 -0.6236
  184DOPC  H11A22572   4.160   1.904   8.526  0.9735 -0.6511 -1.5692
  184DOPC  H11B22573   4.045   1.825   8.642 -0.8733  0.8843 -1.2386
  184DOPC     P22574   4.380   1.790   8.631 -0.1964  0.7269  0.3242
  184DOPC   O1322575   4.395   1.891   8.737 -0.8016 -0.1011  0.0361
  184DOPC   O1422576   4.421   1.832   8.498 -0.5363 -0.0245 -0.0420
  184DOPC   O1222577   4.233   1.731   8.619  0.2131  0.6669  0.2519
  184DOPC   O1122578   4.460   1.661   8.671 -0.5292 -0.1686  0.4083
  184DOPC    C122579   4.402   1.552   8.740 -0.1042  0.6403  0.1793
  184DOPC    HA22580   4.467   1.462   8.731  1.7997  1.9891 -0.2899
  184DOPC    HB22581   4.303   1.523   8.700  0.5685 -2.4969  0.4714
  184DOPC    C222582   4.396   1.576   8.897  0.2632 -0.3220 -0.0230
  184DOPC    HS22583   4.402   1.479   8.951  3.8990 -0.1391  0.1918
  184DOPC   O2122584   4.281   1.657   8.932 -0.5474 -0.0642 -0.1660
  184DOPC   C2122585   4.173   1.582   8.915 -0.2987  0.0973  0.5617
  184DOPC   O2222586   4.169   1.466   8.878 -0.0787  0.2649 -0.0423
  184DOPC   C2222587   4.042   1.660   8.932  0.3652 -0.2061 -0.0059
  184DOPC   H2R22588   3.971   1.609   8.864 -0.8122  0.1699  0.8966
  184DOPC   H2S22589   4.071   1.765   8.907  2.3924 -0.2993  1.6244
  184DOPC    C322590   4.525   1.633   8.963 -0.3512 -0.0667 -0.3587
  184DOPC    HX22591   4.545   1.737   8.928  0.4502 -0.6227 -1.6251
  184DOPC    HY22592   4.610   1.573   8.925  0.0059 -1.3593  2.2963
  184DOPC   O3122593   4.531   1.639   9.110  0.3919 -0.1697 -0.1264
  184DOPC   C3122594   4.534   1.518   9.171 -0.5804 -0.1184 -0.8981
  184DOPC   O3222595   4.543   1.414   9.110 -0.2697  0.1060 -0.3062
  184DOPC   C3222596   4.556   1.534   9.319 -0.5525  0.5524  0.3921
  184DOPC   H2X22597   4.616   1.624   9.346 -1.8205  1.0145  1.8418
  184DOPC   H2Y22598   4.455   1.544   9.365 -1.0939 -0.2676 -0.5898
  184DOPC   C2322599   3.988   1.642   9.075  0.0225  0.1872 -0.6060
  184DOPC   H3R22600   3.976   1.532   9.082 -1.9991  0.4179  0.3737
  184DOPC   H3S22601   3.887   1.689   9.079  0.0891  0.2695  0.1313
  184DOPC   C2422602   4.089   1.689   9.179  0.1038 -0.1440  0.1708
  184DOPC   H4R22603   4.112   1.797   9.187  1.6497 -0.2551 -1.8229
  184DOPC   H4S22604   4.192   1.651   9.163  0.1670 -0.0920  0.4484
  184DOPC   C2522605   4.041   1.643   9.316  0.6029 -0.0533 -0.0208
  184DOPC   H5R22606   4.011   1.536   9.318 -0.7782  0.3308  0.8763
  184DOPC   H5S22607   3.947   1.700   9.331  0.1668  0.2784 -3.1663
  184DOPC   C2622608   4.144   1.656   9.428  0.2085 -0.4208 -0.1437
  184DOPC   H6R22609   4.197   1.750   9.403 -1.2358  0.1406 -1.2095
  184DOPC   H6S22610   4.216   1.572   9.418 -0.6121 -1.3737  1.4908
  184DOPC   C2722611   4.075   1.657   9.567 -0.1124 -0.3621 -0.0596
  184DOPC   H7R22612   4.031   1.556   9.583 -0.2966 -0.3121 -0.2414
  184DOPC   H7S22613   3.984   1.720   9.564 -0.1023 -0.2942  0.7959
  184DOPC   C2822614   4.166   1.708   9.676 -0.1923  0.0955 -0.0247
  184DOPC   H8R22615   4.116   1.771   9.753 -1.4336  2.3249 -2.4669
  184DOPC   H8S22616   4.244   1.779   9.642  2.6535 -1.6519  2.4097
  184DOPC   C2922617   4.244   1.596   9.746  0.1450  0.9343  0.5338
  184DOPC   H9R22618   4.287   1.514   9.687 -0.4527  1.0240 -0.0351
  184DOPC  C21022619   4.251   1.571   9.880  0.2375 -0.0833  0.2139
  184DOPC  H10R22620   4.302   1.478   9.911  0.7683  0.1263 -0.0222
  184DOPC  C21122621   4.183   1.646   9.987  0.1199  0.1605  0.0870
  184DOPC  H11R22622   4.079   1.609  10.002 -0.5386  1.8473 -0.0310
  184DOPC  H11S22623   4.181   1.752   9.954  0.2070 -0.2884 -1.4652
  184DOPC  C21222624   4.256   1.626  10.122  0.3946 -0.5816  0.1002
  184DOPC  H12R22625   4.363   1.653  10.124 -0.0526  1.3335  0.8323
  184DOPC  H12S22626   4.249   1.517  10.142  0.8355 -0.6389 -0.0504
  184DOPC  C21322627   4.182   1.714  10.230  0.7816  0.5925 -0.2345
  184DOPC  H13R22628   4.075   1.686  10.218  0.4868  2.1150 -1.5854
  184DOPC  H13S22629   4.198   1.824  10.218  0.5521  0.7363  0.6648
  184DOPC  C21422630   4.211   1.668  10.373 -0.5400  0.6760  0.7027
  184DOPC  H14R22631   4.320   1.681  10.389  0.0249  0.6908 -2.4856
  184DOPC  H14S22632   4.192   1.558  10.375  1.2280  0.1974 -2.4416
  184DOPC  C21522633   4.124   1.739  10.477 -0.4912 -0.1517 -0.4771
  184DOPC  H15R22634   4.022   1.704  10.453 -0.4810  0.1129 -0.9090
  184DOPC  H15S22635   4.128   1.849  10.457 -0.2454 -0.1352 -0.3459
  184DOPC  C21622636   4.171   1.697  10.618 -0.0816  0.1237  1.1973
  184DOPC  H16R22637   4.108   1.751  10.692  1.4574  2.3099  1.0057
  184DOPC  H16S22638   4.276   1.729  10.637  0.2734  1.0526 -1.7704
  184DOPC  C21722639   4.156   1.539  10.638  0.5212 -0.7498  0.1606
  184DOPC  H17R22640   4.242   1.477  10.606  2.3202  1.2137  0.9503
  184DOPC  H17S22641   4.060   1.505  10.595  0.0042  2.1938 -1.2704
  184DOPC  C21822642   4.135   1.507  10.786 -1.1452  0.1518 -0.3403
  184DOPC  H18R22643   4.058   1.574  10.830 -1.6316 -0.0925 -0.8109
  184DOPC  H18S22644   4.225   1.526  10.850 -1.4840 -0.9979  0.5189
  184DOPC  H18T22645   4.101   1.402  10.798 -1.0081 -0.3817 -3.7339
  184DOPC   C3322646   4.624   1.413   9.390 -1.2628  0.2601  0.3374
  184DOPC   H3X22647   4.731   1.400   9.364 -1.2815 -2.5434  1.3862
  184DOPC   H3Y22648   4.578   1.316   9.362  2.2515 -1.0246 -1.6387
  184DOPC   C3422649   4.609   1.420   9.542 -0.5164 -0.0400 -0.3796
  184DOPC   H4X22650   4.616   1.315   9.577 -1.7988 -0.3965 -1.1208
  184DOPC   H4Y22651   4.509   1.460   9.570 -0.3324  0.5703 -0.5745
  184DOPC   C3522652   4.720   1.502   9.608  0.2413  0.2155  0.2823
  184DOPC   H5X22653   4.722   1.603   9.563  1.1469 -0.5923 -1.6341
  184DOPC   H5Y22654   4.813   1.454   9.570  2.4820  1.0845  4.2033
  184DOPC   C3622655   4.727   1.491   9.756  0.0013  0.3354 -0.6587
  184DOPC   H6X22656   4.683   1.394   9.787  0.3190  1.2556  3.2996
  184DOPC   H6Y22657   4.831   1.495   9.796  0.0023 -0.3527 -0.5809
  184DOPC   C3722658   4.637   1.596   9.839 -0.4577  0.7874 -0.2723
  184DOPC   H7X22659   4.654   1.699   9.801  0.6330  1.8100  2.6506
  184DOPC   H7Y22660   4.531   1.574   9.817 -0.8142  0.0670  1.8765
  184DOPC   C3822661   4.647   1.597   9.991  0.0671 -0.3378 -0.6028
  184DOPC   H8X22662   4.593   1.686  10.030 -0.8695 -1.3852  0.5963
  184DOPC   H8Y22663   4.751   1.607  10.028 -0.3780  0.2449  0.5358
  184DOPC   C3922664   4.583   1.484  10.062 -0.3631 -0.3682  0.3283
  184DOPC   H9X22665   4.534   1.414   9.992 -2.5520 -0.8090  2.1683
  184DOPC  C31022666   4.563   1.448  10.191  0.7145  0.0781 -0.7296
  184DOPC  H10X22667   4.533   1.344  10.211  1.2801 -0.0166 -0.3504
  184DOPC  C31122668   4.600   1.531  10.309  0.4022  0.1314 -0.3091
  184DOPC  H11X22669   4.539   1.624  10.300  0.7468  0.3504 -0.3904
  184DOPC  H11Y22670   4.707   1.560  10.299  0.7533 -0.9793  0.0827
  184DOPC  C31222671   4.573   1.455  10.438  0.2532 -0.2464  0.0020
  184DOPC  H12X22672   4.644   1.371  10.454  0.6398  0.1657  0.4621
  184DOPC  H12Y22673   4.469   1.416  10.434 -0.2086  1.0173 -1.6430
  184DOPC  C31322674   4.584   1.552  10.551 -0.0281 -0.5305 -0.3923
  184DOPC  H13X22675   4.678   1.610  10.544 -1.8114  2.8326  1.4524
  184DOPC  H13Y22676   4.499   1.623  10.543 -0.8744 -1.7002 -3.3162
  184DOPC  C31422677   4.594   1.478  10.687 -0.1373  0.7114 -0.1822
  184DOPC  H14X22678   4.510   1.410  10.712  0.5444  0.2447  0.8947
  184DOPC  H14Y22679   4.683   1.411  10.687  0.7550  1.8454  1.4318
  184DOPC  C31522680   4.622   1.572  10.803  0.2565  0.3584  0.3006
  184DOPC  H15X22681   4.531   1.630  10.830 -1.1583 -0.7786 -1.7897
  184DOPC  H15Y22682   4.701   1.643  10.769 -0.7022  1.1134 -0.4304
  184DOPC  C31622683   4.670   1.490  10.928 -0.5934  0.1239  0.4792
  184DOPC  H16X22684   4.676   1.386  10.890  0.7422  0.3556  0.0059
  184DOPC  H16Y22685   4.769   1.526  10.963 -1.1141  2.2596 -0.1073
  184DOPC  C31722686   4.564   1.504  11.043 -0.9525  0.0388 -0.0816
  184DOPC  H17X22687   4.464   1.491  10.998  0.0929  1.0268 -2.8558
  184DOPC  H17Y22688   4.572   1.416  11.111 -1.0824 -0.7029 -1.0094
  184DOPC  C31822689   4.560   1.642  11.115  0.0330  0.5464 -0.0942
  184DOPC  H18X22690   4.507   1.710  11.045  1.2737  1.4458 -0.1922
  184DOPC  H18Y22691   4.494   1.627  11.203  1.9554 -2.0227  1.0707
  184DOPC  H18Z22692   4.655   1.686  11.152  1.2095  0.1937 -2.5290
  185DOPC     N22693   5.656   5.081   8.816 -0.7157  0.6182  0.1425
  185DOPC   C1222694   5.782   5.154   8.870  0.1907 -0.7170  0.0675
  185DOPC  H12A22695   5.832   5.192   8.782  2.2965 -2.6846  0.3301
  185DOPC  H12B22696   5.844   5.077   8.912  0.9728 -1.0384 -1.5740
  185DOPC   C1322697   5.600   5.163   8.699 -0.2704  0.1508 -0.3368
  185DOPC  H13A22698   5.571   5.261   8.735  0.0556  0.4604 -0.9026
  185DOPC  H13B22699   5.674   5.186   8.624  0.1060  0.3451  0.0907
  185DOPC  H13C22700   5.514   5.118   8.652 -0.0078 -0.0721 -0.6087
  185DOPC   C1422701   5.544   5.061   8.911 -0.5246  0.5109  1.0465
  185DOPC  H14A22702   5.504   5.159   8.934 -2.5201 -0.3936  1.6771
  185DOPC  H14B22703   5.474   4.994   8.863  1.9004 -0.7491 -0.9497
  185DOPC  H14C22704   5.588   5.015   8.998 -0.9775  0.2033  1.1150
  185DOPC   C1522705   5.685   4.944   8.756 -0.5549  0.9259 -0.0022
  185DOPC  H15A22706   5.593   4.890   8.740  0.1443 -0.9247  1.7091
  185DOPC  H15B22707   5.741   4.883   8.826  0.8659  0.7664 -1.2412
  185DOPC  H15C22708   5.748   4.941   8.669 -1.9953  0.4519 -1.0705
  185DOPC   C1122709   5.750   5.269   8.968  0.0855 -0.9281  0.1812
  185DOPC  H11A22710   5.686   5.228   9.049  2.3697 -0.5253  2.3188
  185DOPC  H11B22711   5.838   5.319   9.015 -1.9680  3.1440  0.1551
  185DOPC     P22712   5.741   5.482   8.817  0.0118  0.3684 -0.0682
  185DOPC   O1322713   5.630   5.567   8.763  0.2827 -0.2710 -0.6118
  185DOPC   O1422714   5.834   5.421   8.718 -0.6250  0.0634  0.9775
  185DOPC   O1222715   5.665   5.370   8.900 -0.4782  0.1942  0.7211
  185DOPC   O1122716   5.827   5.552   8.929  0.0180  0.4676 -0.1918
  185DOPC    C122717   5.799   5.686   8.962 -0.2935 -0.3947 -0.3362
  185DOPC    HA22718   5.739   5.733   8.881 -0.9584 -1.9522 -0.7926
  185DOPC    HB22719   5.893   5.743   8.974  0.4909 -1.4161 -1.3580
  185DOPC    C222720   5.726   5.699   9.103  0.0865 -0.5638  0.1105
  185DOPC    HS22721   5.619   5.670   9.099 -0.1247  0.2891 -0.8846
  185DOPC   O2122722   5.729   5.832   9.159 -0.5991  0.7043  0.4060
  185DOPC   C2122723   5.650   5.922   9.102  0.3250  0.5985 -0.5589
  185DOPC   O2222724   5.570   5.903   9.013 -0.1113  0.2133 -0.1654
  185DOPC   C2222725   5.666   6.058   9.172  0.3339 -0.3896 -0.2035
  185DOPC   H2R22726   5.661   6.141   9.098  2.7527 -1.4357 -1.6742
  185DOPC   H2S22727   5.768   6.071   9.213 -0.0559 -1.2132  1.0798
  185DOPC    C322728   5.795   5.605   9.206 -0.2515  0.6186 -0.4969
  185DOPC    HX22729   5.904   5.605   9.188 -0.3064  1.4704 -0.8768
  185DOPC    HY22730   5.762   5.499   9.193 -0.7428  0.7770 -0.5928
  185DOPC   O3122731   5.767   5.647   9.341 -0.0005  0.5020  0.2585
  185DOPC   C3122732   5.865   5.715   9.409  0.4275 -0.2466  0.7139
  185DOPC   O3222733   5.980   5.731   9.369 -0.0314  0.2247 -0.0430
  185DOPC   C3222734   5.822   5.770   9.538  0.9361  0.7744 -0.2703
  185DOPC   H2X22735   5.837   5.880   9.528  0.1777  0.7262 -2.4942
  185DOPC   H2Y22736   5.716   5.740   9.551  0.5642  2.2823  0.3840
  185DOPC   C2322737   5.560   6.088   9.279  0.2727 -0.1311  0.4533
  185DOPC   H3R22738   5.455   6.075   9.245  0.7567  2.0922 -2.2072
  185DOPC   H3S22739   5.549   6.197   9.301  0.0152 -0.0976  0.1705
  185DOPC   C2422740   5.597   6.010   9.407 -0.2018 -0.7053  0.0381
  185DOPC   H4R22741   5.694   6.047   9.446 -0.0981  1.1919 -1.7940
  185DOPC   H4S22742   5.605   5.900   9.397 -1.5444 -1.2064  3.4094
  185DOPC   C2522743   5.490   6.038   9.515  0.6266 -0.9402 -0.1186
  185DOPC   H5R22744   5.388   6.008   9.486 -0.9353  3.1000  0.5185
  185DOPC   H5S22745   5.491   6.147   9.537  1.6574 -0.7625 -0.9386
  185DOPC   C2622746   5.528   5.967   9.649 -0.2253  0.7220  0.4371
  185DOPC   H6R22747   5.638   5.964   9.659 -0.2329 -0.2552  0.3354
  185DOPC   H6S22748   5.485   5.865   9.644 -0.2406  0.7830 -1.5318
  185DOPC   C2722749   5.475   6.041   9.773  0.5948 -0.2427  0.8073
  185DOPC   H7R22750   5.365   6.028   9.784  0.9852 -2.8231  2.6927
  185DOPC   H7S22751   5.489   6.151   9.766  1.9600 -0.3482  1.4476
  185DOPC   C2822752   5.546   5.981   9.894  0.0879 -0.0769 -0.5170
  185DOPC   H8R22753   5.648   5.957   9.858 -0.6841 -1.4271 -1.9916
  185DOPC   H8S22754   5.510   5.880   9.925 -1.1600  0.1748 -1.0769
  185DOPC   C2922755   5.552   6.089   9.997 -0.4497  0.1404 -0.6589
  185DOPC   H9R22756   5.598   6.183   9.964 -0.1174  0.3806  0.4368
  185DOPC  C21022757   5.483   6.086  10.113 -0.3320  0.1321  0.4449
  185DOPC  H10R22758   5.478   6.178  10.173 -0.5698  1.0083 -0.8911
  185DOPC  C21122759   5.397   5.976  10.161 -0.8232 -0.0214 -0.5664
  185DOPC  H11R22760   5.465   5.921  10.231 -0.1697  0.3215 -0.9195
  185DOPC  H11S22761   5.364   5.906  10.080 -2.3006 -1.1135  0.9109
  185DOPC  C21222762   5.267   6.026  10.229  0.8653 -0.1464 -0.1180
  185DOPC  H12R22763   5.211   5.940  10.272 -2.3126  1.1376 -1.3327
  185DOPC  H12S22764   5.201   6.058  10.146  0.3986 -1.4625 -0.2815
  185DOPC  C21322765   5.280   6.132  10.338 -0.2528 -0.0736 -0.1351
  185DOPC  H13R22766   5.178   6.158  10.373 -0.1447  1.6613 -1.0476
  185DOPC  H13S22767   5.326   6.223  10.295 -0.7631  0.0874 -0.3464
  185DOPC  C21422768   5.338   6.079  10.465  0.1647 -0.8478 -0.2961
  185DOPC  H14R22769   5.435   6.046  10.423 -0.9136 -0.7742 -3.0160
  185DOPC  H14S22770   5.287   5.986  10.496  0.0757 -0.4665  0.7547
  185DOPC  C21522771   5.368   6.180  10.577  0.0775 -0.2142  0.1961
  185DOPC  H15R22772   5.275   6.219  10.624  1.1281  0.0608  2.1629
  185DOPC  H15S22773   5.415   6.267  10.528 -1.4958  0.0207 -0.9862
  185DOPC  C21622774   5.462   6.106  10.669  0.0500 -0.0847 -0.4037
  185DOPC  H16R22775   5.541   6.068  10.601 -1.9671 -0.8726 -2.4092
  185DOPC  H16S22776   5.402   6.017  10.698 -0.6176  0.3752 -0.3639
  185DOPC  C21722777   5.533   6.175  10.786  0.2706 -0.2322  0.2021
  185DOPC  H17R22778   5.610   6.245  10.747 -0.7258  0.6219 -0.2730
  185DOPC  H17S22779   5.586   6.098  10.846  1.1132 -0.6277 -1.0082
  185DOPC  C21822780   5.437   6.257  10.876  0.0342 -1.1110  0.2152
  185DOPC  H18R22781   5.482   6.301  10.968  1.9324 -2.7615  0.1414
  185DOPC  H18S22782   5.359   6.185  10.910 -0.9260  0.2249  0.9238
  185DOPC  H18T22783   5.378   6.331  10.819  0.4750 -0.5561  0.4658
  185DOPC   C3322784   5.889   5.707   9.662  0.4277  0.3921 -0.5773
  185DOPC   H3X22785   5.997   5.733   9.662  0.8637 -1.3273  0.5251
  185DOPC   H3Y22786   5.876   5.597   9.657  0.1389  0.4564 -1.5983
  185DOPC   C3422787   5.815   5.755   9.790  0.0472 -0.2949 -0.2198
  185DOPC   H4X22788   5.706   5.761   9.769  0.2421 -1.0939 -1.5920
  185DOPC   H4Y22789   5.849   5.858   9.812  2.3203 -0.9778 -0.3320
  185DOPC   C3522790   5.838   5.661   9.899  0.6133  0.7075  0.4327
  185DOPC   H5X22791   5.945   5.634   9.911 -0.0410 -2.2611  0.5406
  185DOPC   H5Y22792   5.773   5.576   9.869  0.6940  0.9581 -0.4518
  185DOPC   C3622793   5.788   5.715  10.037 -0.9360 -0.3993  0.7104
  185DOPC   H6X22794   5.824   5.820  10.044 -0.1464 -0.5921 -0.1805
  185DOPC   H6Y22795   5.678   5.726  10.044 -0.8358  0.9406  0.3529
  185DOPC   C3722796   5.859   5.640  10.153  0.1975 -0.5558  1.1687
  185DOPC   H7X22797   5.809   5.543  10.176 -2.6587  0.4449 -0.3479
  185DOPC   H7Y22798   5.963   5.626  10.115 -0.0840  2.2880 -0.9893
  185DOPC   C3822799   5.844   5.715  10.293 -0.2370 -0.5142 -0.3651
  185DOPC   H8X22800   5.914   5.800  10.310 -0.9379 -0.2946  1.6746
  185DOPC   H8Y22801   5.889   5.631  10.350  1.6953  0.5385 -0.2386
  185DOPC   C3922802   5.705   5.760  10.331 -0.5232 -0.1353  0.3207
  185DOPC   H9X22803   5.664   5.846  10.277 -2.6331  0.4320  2.6172
  185DOPC  C31022804   5.613   5.709  10.411  0.5611  0.3355 -0.4210
  185DOPC  H10X22805   5.516   5.760  10.418  1.1399  1.2926  1.3999
  185DOPC  C31122806   5.633   5.589  10.496 -0.0441  0.0621  0.0319
  185DOPC  H11X22807   5.727   5.538  10.468  0.5690  0.6154  1.0168
  185DOPC  H11Y22808   5.552   5.515  10.475 -0.4342 -0.4022  2.7536
  185DOPC  C31222809   5.642   5.617  10.647  0.3434  0.3853 -0.0207
  185DOPC  H12X22810   5.730   5.682  10.669  1.0945  0.1086 -1.9329
  185DOPC  H12Y22811   5.661   5.529  10.711  0.6088 -0.2328 -0.9253
  185DOPC  C31322812   5.505   5.671  10.695  0.6735 -0.2918 -0.1258
  185DOPC  H13X22813   5.484   5.771  10.651  0.1013  0.2854  1.3824
  185DOPC  H13Y22814   5.419   5.607  10.666 -2.1529  3.3302 -0.5500
  185DOPC  C31422815   5.506   5.704  10.844  0.0283 -0.4337  0.1965
  185DOPC  H14X22816   5.523   5.608  10.896  1.7559 -0.0676  0.3601
  185DOPC  H14Y22817   5.584   5.778  10.873  0.0257  0.0812 -1.0686
  185DOPC  C31522818   5.366   5.755  10.895 -0.3775 -0.2369  0.2404
  185DOPC  H15X22819   5.281   5.687  10.875  0.9590 -1.5724 -1.3039
  185DOPC  H15Y22820   5.339   5.847  10.839  1.0012 -1.4700 -2.6667
  185DOPC  C31622821   5.369   5.781  11.040 -0.6254 -0.1382 -0.1473
  185DOPC  H16X22822   5.461   5.834  11.073  0.4226 -0.4593 -2.4036
  185DOPC  H16Y22823   5.289   5.848  11.078  0.7768 -0.2626  3.4396
  185DOPC  C31722824   5.374   5.651  11.135  0.0143 -0.5955  0.1108
  185DOPC  H17X22825   5.285   5.590  11.110 -0.8350 -0.2668  2.1561
  185DOPC  H17Y22826   5.469   5.603  11.104  0.6293 -0.0522  1.0965
  185DOPC  C31822827   5.384   5.680  11.281  0.4143  0.4403 -0.2253
  185DOPC  H18X22828   5.422   5.590  11.334  0.1402  1.0124  0.9737
  185DOPC  H18Y22829   5.454   5.765  11.293 -1.0791  1.8830 -1.3334
  185DOPC  H18Z22830   5.291   5.715  11.330  0.2335  0.4564 -0.5795
  186DOPC     N22831   0.055   3.624   8.500  0.0805 -0.1720 -0.0113
  186DOPC   C1222832   0.062   3.671   8.648  0.7261 -0.3355  0.3985
  186DOPC  H12A22833  -0.019   3.625   8.703  1.9843 -0.6920  2.0179
  186DOPC  H12B22834   0.056   3.779   8.647  2.1784 -0.2146 -2.0302
  186DOPC   C1322835  -0.085   3.657   8.449 -0.0236  0.6157  0.5206
  186DOPC  H13A22836  -0.157   3.615   8.518  0.7644  0.9482  1.5602
  186DOPC  H13B22837  -0.100   3.763   8.441 -0.4979  0.5347  0.2735
  186DOPC  H13C22838  -0.098   3.613   8.351  1.1270  1.6194 -0.1073
  186DOPC   C1422839   0.060   3.477   8.487  0.1786 -0.3728  0.1644
  186DOPC  H14A22840   0.045   3.431   8.390  0.3884 -1.0267  0.4391
  186DOPC  H14B22841   0.150   3.431   8.525 -0.7698 -1.4192  1.2493
  186DOPC  H14C22842  -0.010   3.427   8.553  0.6811 -1.4893 -0.1186
  186DOPC   C1522843   0.154   3.688   8.404 -0.4099 -0.1781  0.3074
  186DOPC  H15A22844   0.135   3.793   8.387 -1.0817 -0.5424 -1.4281
  186DOPC  H15B22845   0.156   3.635   8.310  0.4684  0.5597 -0.1018
  186DOPC  H15C22846   0.256   3.673   8.435 -0.3808 -0.1507  0.2257
  186DOPC   C1122847   0.197   3.629   8.724  0.2899 -0.3026 -0.0792
  186DOPC  H11A22848   0.290   3.662   8.674  1.1416 -1.7811  0.4653
  186DOPC  H11B22849   0.208   3.689   8.817  2.2138 -1.1600  0.2919
  186DOPC     P22850   0.108   3.416   8.856  0.3264  0.3714 -0.0437
  186DOPC   O1322851   0.097   3.269   8.828 -0.0515 -0.0678 -0.2000
  186DOPC   O1422852  -0.019   3.494   8.872  0.3144 -0.2092 -0.0239
  186DOPC   O1222853   0.203   3.490   8.747 -0.0113  0.0330 -0.0249
  186DOPC   O1122854   0.199   3.422   8.988  0.0916  0.0621 -0.1335
  186DOPC    C122855   0.175   3.532   9.076 -0.3134  0.3893  0.7982
  186DOPC    HA22856   0.067   3.533   9.101  0.3396  0.2084  4.0722
  186DOPC    HB22857   0.204   3.628   9.029  3.3663 -1.1472 -0.4425
  186DOPC    C222858   0.250   3.513   9.211  0.4981 -0.0393  0.5151
  186DOPC    HS22859   0.356   3.516   9.178 -0.4219 -0.1732 -2.8151
  186DOPC   O2122860   0.206   3.388   9.268 -0.3116 -0.0272 -0.0917
  186DOPC   C2122861   0.295   3.310   9.324 -0.6861 -0.4874  0.2178
  186DOPC   O2222862   0.419   3.316   9.309  0.0266 -0.4731 -0.9687
  186DOPC   C2222863   0.235   3.187   9.387 -0.1012  0.1195 -0.5014
  186DOPC   H2R22864   0.236   3.108   9.308 -2.7769  0.4188 -0.9302
  186DOPC   H2S22865   0.129   3.206   9.415  0.4855  1.6349  0.8336
  186DOPC    C322866   0.225   3.630   9.306  0.1540 -0.0574 -0.2776
  186DOPC    HX22867   0.119   3.633   9.339  0.0712 -1.4776 -0.3443
  186DOPC    HY22868   0.245   3.724   9.252 -0.4608  0.5102  0.4641
  186DOPC   O3122869   0.306   3.620   9.432 -0.2333 -0.6729 -0.1259
  186DOPC   C3122870   0.422   3.676   9.428  0.3737  0.0571 -0.6732
  186DOPC   O3222871   0.483   3.701   9.327  0.1190  0.3565  0.4684
  186DOPC   C3222872   0.473   3.695   9.570 -0.1987  0.0264 -0.1638
  186DOPC   H2X22873   0.539   3.607   9.584 -2.1903 -2.0443 -2.6208
  186DOPC   H2Y22874   0.538   3.785   9.567  1.3542 -0.9472  1.7254
  186DOPC   C2322875   0.299   3.153   9.519  0.3672 -0.1778 -0.4536
  186DOPC   H3R22876   0.407   3.135   9.503  0.5372 -0.0545  0.4749
  186DOPC   H3S22877   0.262   3.060   9.568  3.1156 -0.6002  0.9898
  186DOPC   C2422878   0.293   3.264   9.631 -1.2085  0.5082  0.0611
  186DOPC   H4R22879   0.192   3.310   9.622 -1.0150  1.0343  0.5245
  186DOPC   H4S22880   0.361   3.340   9.587 -0.8742 -0.8503 -1.9348
  186DOPC   C2522881   0.337   3.207   9.771  0.1995 -0.1650  0.0071
  186DOPC   H5R22882   0.432   3.154   9.748 -0.8668 -1.3952 -1.8936
  186DOPC   H5S22883   0.271   3.125   9.806  1.6794 -0.7708  1.4899
  186DOPC   C2622884   0.367   3.316   9.881  0.1107  0.4663  0.9051
  186DOPC   H6R22885   0.265   3.349   9.911 -0.9531 -1.9720  0.1668
  186DOPC   H6S22886   0.444   3.390   9.849  2.0456 -0.9204  2.1118
  186DOPC   C2722887   0.417   3.248  10.011  0.1121 -0.7461  0.4076
  186DOPC   H7R22888   0.510   3.190   9.991 -0.1753 -0.6629 -1.3460
  186DOPC   H7S22889   0.341   3.170  10.033 -2.5775  1.2330 -1.2330
  186DOPC   C2822890   0.418   3.353  10.119  0.3150  0.7183  0.2471
  186DOPC   H8R22891   0.319   3.403  10.127 -0.8605 -1.5458  0.7761
  186DOPC   H8S22892   0.483   3.437  10.088 -1.0456  2.0172  0.7650
  186DOPC   C2922893   0.454   3.292  10.258 -0.6173  0.0461  0.3243
  186DOPC   H9R22894   0.531   3.213  10.253 -1.8458 -1.1373 -1.0493
  186DOPC  C21022895   0.404   3.329  10.375  0.1611 -0.0840 -0.0619
  186DOPC  H10R22896   0.423   3.257  10.456  2.2212  0.3129 -0.1454
  186DOPC  C21122897   0.296   3.431  10.407 -0.1331 -0.1122 -0.2920
  186DOPC  H11R22898   0.202   3.385  10.444  0.4379  0.3102  1.8214
  186DOPC  H11S22899   0.271   3.493  10.318  0.0985 -2.3632 -2.0108
  186DOPC  C21222900   0.346   3.517  10.521 -0.2009  0.4712 -0.9654
  186DOPC  H12R22901   0.287   3.610  10.534  1.8130  1.9492 -1.7438
  186DOPC  H12S22902   0.447   3.559  10.498  0.2669  0.5471  1.0177
  186DOPC  C21322903   0.353   3.442  10.661 -1.1818  0.8007  0.7945
  186DOPC  H13R22904   0.459   3.420  10.687 -0.8834  0.4633 -0.5974
  186DOPC  H13S22905   0.292   3.350  10.660  0.7594 -0.5468  1.0073
  186DOPC  C21422906   0.297   3.529  10.766 -0.5704 -0.3818 -0.6655
  186DOPC  H14R22907   0.187   3.531  10.746 -0.9118 -0.4403  1.0433
  186DOPC  H14S22908   0.342   3.631  10.757 -1.2349  0.1374  1.4082
  186DOPC  C21522909   0.317   3.490  10.912  0.1271  0.5219  0.1593
  186DOPC  H15R22910   0.423   3.511  10.937 -0.8236  3.0301  2.5615
  186DOPC  H15S22911   0.302   3.380  10.923 -0.3622  0.6009  0.3038
  186DOPC  C21622912   0.237   3.557  11.019  0.2458  0.4922 -0.1121
  186DOPC  H16R22913   0.144   3.498  11.035 -0.3437  1.0817 -1.2766
  186DOPC  H16S22914   0.220   3.661  10.986 -2.3384  0.0761 -0.2749
  186DOPC  C21722915   0.319   3.560  11.147 -0.4269  0.1140  0.1747
  186DOPC  H17R22916   0.412   3.620  11.131 -0.0317 -0.4749  0.2497
  186DOPC  H17S22917   0.364   3.464  11.177 -0.9332  0.3312  1.6871
  186DOPC  C21822918   0.245   3.611  11.271  0.0556  0.2885 -0.3055
  186DOPC  H18R22919   0.149   3.561  11.295 -0.6895  2.6503  2.0324
  186DOPC  H18S22920   0.209   3.713  11.246 -1.2722 -0.0482  0.1473
  186DOPC  H18T22921   0.309   3.626  11.360  2.9177 -0.1136 -2.1751
  186DOPC   C3322922   0.376   3.714   9.684  0.1266  0.1556 -0.0639
  186DOPC   H3X22923   0.340   3.616   9.721  0.2062  0.3477  0.5430
  186DOPC   H3Y22924   0.293   3.786   9.666  0.4980  0.6292  0.0862
  186DOPC   C3422925   0.457   3.767   9.809  0.1057 -0.1917  0.5521
  186DOPC   H4X22926   0.456   3.875   9.780 -1.7456 -0.4293 -0.4732
  186DOPC   H4Y22927   0.558   3.722   9.818 -0.3432 -1.3715 -0.0543
  186DOPC   C3522928   0.398   3.751   9.950  0.1658 -0.1082  0.0139
  186DOPC   H5X22929   0.365   3.646   9.964 -2.0891  0.2655 -1.8922
  186DOPC   H5Y22930   0.309   3.816   9.940  0.9711  0.6918 -2.9611
  186DOPC   C3622931   0.475   3.786  10.077  0.1056  0.2404 -0.0842
  186DOPC   H6X22932   0.572   3.733  10.078 -1.6286 -3.1771  0.0467
  186DOPC   H6Y22933   0.507   3.892  10.086  0.3594  0.0980  0.7463
  186DOPC   C3722934   0.381   3.758  10.198 -0.0428  0.2802  0.1504
  186DOPC   H7X22935   0.276   3.784  10.176  0.3370  0.2278 -1.9290
  186DOPC   H7Y22936   0.377   3.648  10.211 -0.5763  0.2927  0.0886
  186DOPC   C3822937   0.422   3.823  10.339  0.1702  0.0750 -0.0384
  186DOPC   H8X22938   0.337   3.817  10.411  0.1673 -1.8070 -0.1540
  186DOPC   H8Y22939   0.417   3.928  10.304  0.5711  0.1273  0.0618
  186DOPC   C3922940   0.558   3.788  10.384  0.1005  0.0713 -0.1647
  186DOPC   H9X22941   0.612   3.719  10.317 -0.9942  0.7164 -1.7936
  186DOPC  C31022942   0.618   3.847  10.494  0.2081  0.6677  0.5249
  186DOPC  H10X22943   0.699   3.788  10.540 -1.6024 -2.4071  0.0470
  186DOPC  C31122944   0.554   3.957  10.578 -0.3616 -0.6891 -0.3561
  186DOPC  H11X22945   0.473   4.012  10.526 -1.2360 -1.6487 -0.0416
  186DOPC  H11Y22946   0.623   4.040  10.605 -0.7143 -0.4235 -0.2700
  186DOPC  C31222947   0.485   3.909  10.705  0.3716  0.1421  0.2699
  186DOPC  H12X22948   0.397   3.852  10.668  1.4737  0.0166 -2.3160
  186DOPC  H12Y22949   0.440   3.992  10.765 -1.1151  1.4953 -2.5309
  186DOPC  C31322950   0.568   3.832  10.804 -0.8460  0.3206 -0.0169
  186DOPC  H13X22951   0.589   3.737  10.751  1.0302  0.9166 -0.4248
  186DOPC  H13Y22952   0.666   3.883  10.818 -0.5971 -0.1645  0.0088
  186DOPC  C31422953   0.504   3.799  10.942 -0.4800  0.2504  0.3580
  186DOPC  H14X22954   0.416   3.733  10.926 -0.0578  0.0904 -1.5767
  186DOPC  H14Y22955   0.579   3.748  11.005 -0.6121 -3.0122 -1.9025
  186DOPC  C31522956   0.471   3.929  11.022  0.5413 -0.3433  0.6681
  186DOPC  H15X22957   0.434   3.882  11.116 -1.8564 -0.2678 -0.1718
  186DOPC  H15Y22958   0.389   3.991  10.980  0.7697  1.2957  2.5041
  186DOPC  C31622959   0.590   4.019  11.068 -0.4848 -0.7550  0.0350
  186DOPC  H16X22960   0.679   3.969  11.112  0.5251  0.1517 -0.9209
  186DOPC  H16Y22961   0.625   4.076  10.979 -1.7749  0.2044  0.1155
  186DOPC  C31722962   0.545   4.129  11.166  0.4552 -0.2754  0.0415
  186DOPC  H17X22963   0.639   4.188  11.172 -1.6550  3.5821 -1.5309
  186DOPC  H17Y22964   0.467   4.188  11.114 -0.7990 -1.5842  0.3819
  186DOPC  C31822965   0.498   4.076  11.294  0.5451  0.3703 -0.4473
  186DOPC  H18X22966   0.484   4.156  11.369  2.5666  2.9535 -2.6095
  186DOPC  H18Y22967   0.399   4.026  11.286  0.0715  1.3020 -0.5496
  186DOPC  H18Z22968   0.574   4.001  11.326  0.0406  0.4613  1.0128
  187DOPC     N22969   5.596   2.839   8.603 -0.1743  0.5313  0.3631
  187DOPC   C1222970   5.655   2.798   8.742 -0.2601 -0.5581 -0.0588
  187DOPC  H12A22971   5.757   2.783   8.712 -0.6892 -0.4305 -1.6925
  187DOPC  H12B22972   5.628   2.698   8.772  0.3938  0.0752  2.9225
  187DOPC   C1322973   5.630   2.733   8.497  0.7120 -0.1170 -0.0573
  187DOPC  H13A22974   5.736   2.714   8.484  0.3958 -0.9119 -1.8495
  187DOPC  H13B22975   5.581   2.642   8.530 -0.3739 -0.1396 -1.6440
  187DOPC  H13C22976   5.586   2.768   8.405 -0.0824 -1.5636 -0.2672
  187DOPC   C1422977   5.653   2.964   8.548 -0.1250 -0.5856 -0.3956
  187DOPC  H14A22978   5.761   2.963   8.534 -0.3782 -0.6822 -2.6583
  187DOPC  H14B22979   5.615   2.981   8.449  0.1030  0.3480 -0.3349
  187DOPC  H14C22980   5.633   3.050   8.611  0.5794  0.4038 -1.4628
  187DOPC   C1522981   5.453   2.851   8.622 -0.4438 -0.8805 -1.1656
  187DOPC  H15A22982   5.424   2.941   8.675  3.1561 -0.7932  0.9866
  187DOPC  H15B22983   5.413   2.766   8.675  0.1210 -1.0322 -0.9750
  187DOPC  H15C22984   5.398   2.854   8.529 -1.3031  0.8742 -0.6382
  187DOPC   C1122985   5.632   2.897   8.860  0.4003  0.8726 -0.0446
  187DOPC  H11A22986   5.667   3.000   8.842 -2.5562  1.6273 -2.0605
  187DOPC  H11B22987   5.522   2.888   8.867  0.6196 -2.0064  1.6399
  187DOPC     P22988   5.817   2.808   9.020 -0.0252  0.3443 -0.1193
  187DOPC   O1322989   5.910   2.879   8.925  0.4433  0.4156  0.1637
  187DOPC   O1422990   5.807   2.661   9.012 -0.4546 -0.3631  0.2892
  187DOPC   O1222991   5.674   2.850   8.989  0.0361 -0.1678  0.0188
  187DOPC   O1122992   5.843   2.862   9.162  0.3519 -0.3006 -0.3637
  187DOPC    C122993   5.756   2.828   9.265 -0.5604  0.2884 -0.7466
  187DOPC    HA22994   5.648   2.821   9.238 -0.4479 -1.2980 -0.8822
  187DOPC    HB22995   5.767   2.908   9.341  0.3269 -0.1072 -0.4522
  187DOPC    C222996   5.790   2.692   9.344  0.8840 -0.6868 -0.0306
  187DOPC    HS22997   5.803   2.607   9.273 -2.1675 -1.8909  0.6821
  187DOPC   O2122998   5.683   2.675   9.443  0.2937 -0.9177  0.2467
  187DOPC   C2122999   5.668   2.549   9.482 -0.2974  1.0281 -1.0378
  187DOPC   O2223000   5.738   2.460   9.446  0.1121  0.3026  0.2947
  187DOPC   C2223001   5.553   2.539   9.579  0.2596  0.2015 -1.0034
  187DOPC   H2R23002   5.520   2.433   9.569  0.5112  0.0864 -0.5898
  187DOPC   H2S23003   5.466   2.596   9.539 -1.4296 -2.4991 -1.4261
  187DOPC    C323004   5.921   2.697   9.433  0.0055 -0.1936 -0.5476
  187DOPC    HX23005   5.998   2.696   9.354  2.2266  0.1743  1.4968
  187DOPC    HY23006   5.930   2.605   9.495  0.5307 -0.6189 -1.2498
  187DOPC   O3123007   5.925   2.819   9.510 -0.1737  0.0700  0.2289
  187DOPC   C3123008   5.927   2.814   9.646 -0.7177  0.9360  0.3737
  187DOPC   O3223009   5.925   2.713   9.714  0.2571  0.3689  0.2325
  187DOPC   C3223010   5.921   2.950   9.705 -1.0217 -0.7532 -0.3114
  187DOPC   H2X23011   5.932   3.025   9.625  0.7857 -1.6709 -0.9861
  187DOPC   H2Y23012   5.820   2.959   9.750 -0.7057 -0.5250  0.3697
  187DOPC   C2323013   5.584   2.568   9.724 -0.1196 -0.3011 -0.7582
  187DOPC   H3R23014   5.692   2.583   9.745 -0.0543 -0.1433 -1.1949
  187DOPC   H3S23015   5.557   2.493   9.802  0.2711  1.3600  1.0424
  187DOPC   C2423016   5.522   2.706   9.762 -0.4763  0.3472 -0.1002
  187DOPC   H4R23017   5.411   2.703   9.768 -0.6130  2.6035 -0.4458
  187DOPC   H4S23018   5.550   2.780   9.684 -0.6546 -1.4133 -1.9151
  187DOPC   C2523019   5.579   2.745   9.898  0.1498 -0.0038 -0.4488
  187DOPC   H5R23020   5.530   2.840   9.927  0.1853 -0.2508  0.4617
  187DOPC   H5S23021   5.685   2.772   9.878  0.1416  0.5334  0.1906
  187DOPC   C2623022   5.569   2.641  10.016  0.3685 -0.3719 -0.5440
  187DOPC   H6R23023   5.644   2.560  10.000  0.0991 -0.7737  0.2168
  187DOPC   H6S23024   5.472   2.587  10.020  0.5971 -0.7196  0.7401
  187DOPC   C2723025   5.602   2.708  10.149  0.0875 -0.2680 -0.4243
  187DOPC   H7R23026   5.531   2.789  10.174  1.7656  0.9531  0.5513
  187DOPC   H7S23027   5.695   2.765  10.134 -0.6160  1.3397  0.9867
  187DOPC   C2823028   5.609   2.608  10.269  0.5281 -0.3179  0.6714
  187DOPC   H8R23029   5.704   2.552  10.259  0.0230 -1.0972  0.1234
  187DOPC   H8S23030   5.527   2.532  10.269  2.3300 -2.3702 -0.4173
  187DOPC   C2923031   5.605   2.683  10.397  0.6175 -0.0971  0.3999
  187DOPC   H9R23032   5.677   2.765  10.389  1.1846 -0.4698  1.4409
  187DOPC  C21023033   5.521   2.669  10.491  0.2772  0.3602 -0.3737
  187DOPC  H10R23034   5.522   2.745  10.571  1.5829  3.5407 -3.1538
  187DOPC  C21123035   5.414   2.568  10.498 -0.5846 -0.4343 -0.5326
  187DOPC  H11R23036   5.449   2.473  10.452  1.7254  0.5016 -0.8832
  187DOPC  H11S23037   5.326   2.606  10.441 -1.9771  1.6630  2.7307
  187DOPC  C21223038   5.373   2.539  10.644 -0.3739  0.2568 -0.2828
  187DOPC  H12R23039   5.468   2.503  10.689  0.7178 -0.0024 -2.6356
  187DOPC  H12S23040   5.312   2.446  10.643  0.6871 -0.4719  0.2986
  187DOPC  C21323041   5.292   2.651  10.718  0.2659 -0.0520  0.3250
  187DOPC  H13R23042   5.197   2.664  10.662 -0.1653 -0.5380  0.9271
  187DOPC  H13S23043   5.338   2.752  10.711 -0.6989  0.2928 -1.7236
  187DOPC  C21423044   5.255   2.620  10.863 -0.2604  0.0208  0.5261
  187DOPC  H14R23045   5.342   2.598  10.928  0.2757  0.0326 -0.1737
  187DOPC  H14S23046   5.198   2.525  10.851  1.3903 -0.7354 -2.1540
  187DOPC  C21523047   5.162   2.726  10.925  0.2751 -0.2607 -0.9582
  187DOPC  H15R23048   5.061   2.729  10.880 -0.7238 -0.8861  1.1661
  187DOPC  H15S23049   5.213   2.822  10.902  0.6177 -0.4994 -1.2250
  187DOPC  C21623050   5.141   2.713  11.074  0.9802  0.1509  0.5382
  187DOPC  H16R23051   5.235   2.679  11.123  1.2794  2.6972  1.9406
  187DOPC  H16S23052   5.065   2.637  11.099 -0.3019  0.6521 -1.6286
  187DOPC  C21723053   5.121   2.854  11.137 -0.1778  0.1856 -0.3292
  187DOPC  H17R23054   5.027   2.892  11.094  1.2558  1.1447 -2.8148
  187DOPC  H17S23055   5.198   2.926  11.103 -0.0884 -0.5089 -1.6511
  187DOPC  C21823056   5.123   2.839  11.293  0.5414 -0.2887 -0.0842
  187DOPC  H18R23057   5.039   2.771  11.319 -0.5566  0.5346 -1.3446
  187DOPC  H18S23058   5.107   2.934  11.349  0.0953 -0.7171  0.5369
  187DOPC  H18T23059   5.222   2.803  11.330 -0.7795 -1.0027  3.1403
  187DOPC   C3323060   6.017   2.976   9.821  0.3222  0.4659  0.9918
  187DOPC   H3X23061   6.054   3.081   9.819 -1.0769  0.9666  0.3673
  187DOPC   H3Y23062   6.106   2.914   9.798  1.0475  2.0674 -0.8723
  187DOPC   C3423063   5.952   2.944   9.955  0.3219  0.4632 -0.3489
  187DOPC   H4X23064   5.936   2.835   9.944  0.0372  0.3325  1.2106
  187DOPC   H4Y23065   5.855   2.987   9.990  0.8355  0.0945  1.6399
  187DOPC   C3523066   6.052   2.951  10.069  0.4188  0.1894  0.2173
  187DOPC   H5X23067   6.063   3.060  10.089  1.4185  0.4359 -1.4852
  187DOPC   H5Y23068   6.152   2.920  10.031 -1.1729 -4.4759 -0.7799
  187DOPC   C3623069   6.006   2.882  10.195  0.2184 -0.3051 -0.0296
  187DOPC   H6X23070   5.896   2.886  10.208  0.3270 -1.1455  1.4341
  187DOPC   H6Y23071   6.045   2.778  10.201  0.3875 -0.2751 -0.5538
  187DOPC   C3723072   6.058   2.957  10.326 -0.2878  0.6570  0.1128
  187DOPC   H7X23073   6.165   2.946  10.353 -0.6001  2.3876  2.3466
  187DOPC   H7Y23074   6.048   3.064  10.298 -0.0892 -0.0433 -3.0835
  187DOPC   C3823075   5.962   2.944  10.438 -0.1296  0.3711 -0.5544
  187DOPC   H8X23076   5.860   2.981  10.417  0.3038  0.3333 -3.0098
  187DOPC   H8Y23077   6.008   3.003  10.520 -0.3336 -2.1624  1.5221
  187DOPC   C3923078   5.961   2.799  10.486 -0.1493 -0.2745 -0.0223
  187DOPC   H9X23079   5.993   2.721  10.416 -0.0610 -0.4450  0.2051
  187DOPC  C31023080   5.899   2.754  10.596  0.8131  0.4666 -0.2259
  187DOPC  H10X23081   5.891   2.646  10.611  2.4744  0.6133  2.3555
  187DOPC  C31123082   5.820   2.839  10.691 -0.4543 -0.1343 -0.1815
  187DOPC  H11X23083   5.715   2.802  10.694 -0.8869  1.1000  1.2894
  187DOPC  H11Y23084   5.821   2.945  10.659 -1.9138  0.0893  0.4333
  187DOPC  C31223085   5.868   2.828  10.838 -0.0565 -0.0717 -0.0190
  187DOPC  H12X23086   5.975   2.853  10.856 -0.0036 -0.0490 -0.3737
  187DOPC  H12Y23087   5.847   2.728  10.881 -1.0077 -0.0058 -0.3054
  187DOPC  C31323088   5.798   2.941  10.925 -0.5749  0.5703 -0.3024
  187DOPC  H13X23089   5.826   3.034  10.871 -2.2617  0.6093 -1.1704
  187DOPC  H13Y23090   5.691   2.912  10.928 -0.5344  0.4832  2.7159
  187DOPC  C31423091   5.855   2.951  11.070  0.0542  0.0028 -0.2157
  187DOPC  H14X23092   5.803   2.871  11.128 -0.9472  0.9625  0.2352
  187DOPC  H14Y23093   5.963   2.925  11.065  0.3129  1.2364 -1.7202
  187DOPC  C31523094   5.846   3.093  11.117 -0.1137  0.3616  0.0591
  187DOPC  H15X23095   5.745   3.132  11.139  0.4755  1.8961  0.1609
  187DOPC  H15Y23096   5.886   3.162  11.039  0.3093  0.1585  0.0973
  187DOPC  C31623097   5.927   3.099  11.245  0.2382 -0.0497 -0.9528
  187DOPC  H16X23098   5.864   3.047  11.321 -0.0096  0.9540 -0.4484
  187DOPC  H16Y23099   6.023   3.045  11.235  0.5948 -0.0664  1.7920
  187DOPC  C31723100   5.949   3.249  11.300 -0.5976  0.1083 -0.0435
  187DOPC  H17X23101   6.007   3.299  11.219  0.4579 -0.0191  0.6134
  187DOPC  H17Y23102   5.852   3.302  11.310  0.2178  1.7732 -0.5781
  187DOPC  C31823103   6.022   3.254  11.433 -0.0352  0.2175 -0.1662
  187DOPC  H18X23104   5.993   3.346  11.488 -1.5153 -0.6885  0.6124
  187DOPC  H18Y23105   6.003   3.167  11.499 -0.7651  1.9675  2.0697
  187DOPC  H18Z23106   6.132   3.253  11.414  0.4160 -0.0649  2.1339
  188DOPC     N23107   1.792   3.400   8.743 -0.0961  0.4753 -0.1236
  188DOPC   C1223108   1.943   3.394   8.711  0.5547  0.5381  0.8239
  188DOPC  H12A23109   1.983   3.455   8.790 -0.6022 -0.8379  2.5523
  188DOPC  H12B23110   1.949   3.448   8.618 -3.6758 -0.1587 -0.0596
  188DOPC   C1323111   1.766   3.332   8.876  0.0412 -0.1208 -0.4791
  188DOPC  H13A23112   1.660   3.311   8.885 -0.8312  3.5342 -0.4763
  188DOPC  H13B23113   1.809   3.233   8.880  0.3164 -0.0647 -1.7395
  188DOPC  H13C23114   1.798   3.385   8.964  0.2685 -2.1360  0.7101
  188DOPC   C1423115   1.723   3.327   8.631  0.8224  0.1242  0.5208
  188DOPC  H14A23116   1.763   3.227   8.640  3.6771  1.2544  1.8040
  188DOPC  H14B23117   1.616   3.331   8.640  0.8929  0.1348  1.4172
  188DOPC  H14C23118   1.744   3.361   8.530  1.4818 -3.6552 -0.7815
  188DOPC   C1523119   1.742   3.538   8.755 -0.7946  0.9395  0.5339
  188DOPC  H15A23120   1.640   3.537   8.791 -1.1760 -2.0686 -0.3339
  188DOPC  H15B23121   1.760   3.589   8.662  2.9895  0.4780  0.8437
  188DOPC  H15C23122   1.796   3.590   8.834  1.1766  1.1027 -0.8486
  188DOPC   C1123123   2.009   3.254   8.698  0.1694  0.0565  0.1361
  188DOPC  H11A23124   1.960   3.194   8.618 -1.1469  1.6626 -0.3033
  188DOPC  H11B23125   2.110   3.276   8.658  0.3864 -0.6490  0.2681
  188DOPC     P23126   2.140   3.118   8.867 -0.3197 -0.1628  0.1624
  188DOPC   O1323127   2.193   3.039   8.755 -0.3165  0.5168 -0.6286
  188DOPC   O1423128   2.105   3.040   8.987 -0.4491 -0.4739  0.6765
  188DOPC   O1223129   2.008   3.189   8.825  0.3566  0.1656 -0.5590
  188DOPC   O1123130   2.244   3.226   8.920 -0.0276 -0.2278  0.0241
  188DOPC    C123131   2.207   3.350   8.967  0.7420 -0.0255  0.2553
  188DOPC    HA23132   2.098   3.361   8.987  0.5593  0.3794 -0.8957
  188DOPC    HB23133   2.241   3.427   8.894  1.7112 -0.0253  0.6853
  188DOPC    C223134   2.293   3.391   9.092  0.5553 -0.5137 -0.4959
  188DOPC    HS23135   2.291   3.501   9.107  1.1434 -0.5919  0.2333
  188DOPC   O2123136   2.432   3.358   9.074  0.0603 -0.1444 -0.2058
  188DOPC   C2123137   2.499   3.434   8.997 -0.6726  1.1982  0.2544
  188DOPC   O2223138   2.458   3.516   8.918  0.2522  0.5816 -0.3356
  188DOPC   C2223139   2.650   3.409   9.010  0.1397 -0.0099 -0.3449
  188DOPC   H2R23140   2.686   3.441   8.910 -0.1836 -0.1934 -0.5216
  188DOPC   H2S23141   2.670   3.301   9.029  0.6533  0.1657  0.1496
  188DOPC    C323142   2.234   3.320   9.221 -0.3321  0.4176  0.2101
  188DOPC    HX23143   2.257   3.212   9.205 -0.2275 -0.0404  2.9750
  188DOPC    HY23144   2.124   3.333   9.229 -0.5148 -0.7090 -0.2614
  188DOPC   O3123145   2.314   3.347   9.341  0.2399  0.3774 -0.5903
  188DOPC   C3123146   2.301   3.463   9.394  0.3234  0.0266  0.8663
  188DOPC   O3223147   2.235   3.551   9.345 -0.0272  0.5127  0.3406
  188DOPC   C3223148   2.358   3.461   9.535  0.0730 -0.3351 -0.6027
  188DOPC   H2X23149   2.332   3.363   9.579 -1.7229 -0.4936 -1.9006
  188DOPC   H2Y23150   2.469   3.457   9.525  0.4137  0.4479  2.0078
  188DOPC   C2323151   2.709   3.501   9.123  0.3519 -0.4357  0.2205
  188DOPC   H3R23152   2.673   3.606   9.117  0.1520 -0.3832  1.8784
  188DOPC   H3S23153   2.818   3.508   9.106  0.2709  1.2519  0.3060
  188DOPC   C2423154   2.689   3.452   9.264  0.2921 -0.1794 -0.9692
  188DOPC   H4R23155   2.722   3.350   9.294 -0.3499  0.2267  1.3503
  188DOPC   H4S23156   2.578   3.453   9.273  0.4160  0.4957  1.0431
  188DOPC   C2523157   2.727   3.556   9.374  0.1214  0.7439  0.3804
  188DOPC   H5R23158   2.681   3.532   9.472 -2.8967  1.9689 -0.6015
  188DOPC   H5S23159   2.681   3.657   9.360 -2.6427 -0.3395  0.9432
  188DOPC   C2623160   2.879   3.567   9.376 -0.1791  0.0729  0.2177
  188DOPC   H6R23161   2.902   3.660   9.319  3.1875 -0.6186  0.2282
  188DOPC   H6S23162   2.921   3.493   9.305  0.2394 -0.4094  0.9538
  188DOPC   C2723163   2.954   3.558   9.510  0.1036  0.3366 -0.5157
  188DOPC   H7R23164   2.920   3.635   9.583 -1.1573 -1.8492  1.3656
  188DOPC   H7S23165   3.058   3.582   9.482 -0.4982  2.3589 -1.1470
  188DOPC   C2823166   2.949   3.421   9.575 -0.1856  0.7825  0.1570
  188DOPC   H8R23167   2.957   3.351   9.489 -3.9945 -1.8566  1.7048
  188DOPC   H8S23168   2.845   3.407   9.609  0.7344 -0.4929  2.7355
  188DOPC   C2923169   3.043   3.392   9.686 -0.3810 -0.0485  0.3792
  188DOPC   H9R23170   3.141   3.350   9.661  0.6345  2.2807  0.1510
  188DOPC  C21023171   3.004   3.399   9.814 -0.7147 -0.2375  0.3938
  188DOPC  H10R23172   3.074   3.372   9.894 -0.3587 -0.7651 -0.0780
  188DOPC  C21123173   2.877   3.459   9.861  0.0181  0.1664  0.0370
  188DOPC  H11R23174   2.790   3.402   9.823  0.1448  0.2677 -0.4137
  188DOPC  H11S23175   2.866   3.562   9.821 -3.4343  1.2113  3.1182
  188DOPC  C21223176   2.864   3.473  10.017  0.2991  0.0709  0.1785
  188DOPC  H12R23177   2.870   3.372  10.063 -0.5449  0.0996  0.3601
  188DOPC  H12S23178   2.761   3.508  10.040 -0.1671 -1.7163  1.0059
  188DOPC  C21323179   2.967   3.561  10.092  0.1514  0.0018  0.1308
  188DOPC  H13R23180   2.956   3.657  10.038 -2.8677  1.5334  3.0882
  188DOPC  H13S23181   3.069   3.519  10.088 -0.3828 -1.4734  0.9901
  188DOPC  C21423182   2.932   3.581  10.245  0.6756  0.6740  0.7581
  188DOPC  H14R23183   2.835   3.634  10.247  0.5464  0.6592 -1.7958
  188DOPC  H14S23184   3.011   3.643  10.292  2.5063  0.2886 -1.5797
  188DOPC  C21523185   2.932   3.448  10.330 -0.2116  0.6388  0.4141
  188DOPC  H15R23186   3.034   3.415  10.361  0.4472  2.7982  0.7429
  188DOPC  H15S23187   2.870   3.369  10.284 -0.6552 -0.5504  2.9103
  188DOPC  C21623188   2.877   3.463  10.480 -0.0418  0.1192  0.5794
  188DOPC  H16R23189   2.839   3.363  10.509  0.0915  0.2486  1.2144
  188DOPC  H16S23190   2.784   3.524  10.473 -0.6674 -0.8972 -0.2028
  188DOPC  C21723191   2.973   3.508  10.597 -0.5107 -0.2655  0.1141
  188DOPC  H17R23192   3.014   3.608  10.570  1.2966 -0.9902  0.0712
  188DOPC  H17S23193   3.059   3.439  10.594  0.8040  1.2853 -2.8535
  188DOPC  C21823194   2.910   3.504  10.735 -0.5351 -0.3793  0.4764
  188DOPC  H18R23195   2.987   3.537  10.808 -0.8858  1.5901  0.0274
  188DOPC  H18S23196   2.871   3.401  10.750 -0.1801 -0.5334  0.3451
  188DOPC  H18T23197   2.825   3.576  10.743  0.6276  1.1061 -0.2066
  188DOPC   C3323198   2.300   3.580   9.627  0.3230  0.2503  0.1217
  188DOPC   H3X23199   2.192   3.558   9.645  0.0828  0.5152 -0.9640
  188DOPC   H3Y23200   2.312   3.673   9.568  1.6838 -0.3220 -0.5471
  188DOPC   C3423201   2.384   3.607   9.747  0.0855 -0.2816 -0.4087
  188DOPC   H4X23202   2.490   3.609   9.715 -0.2929 -0.8873 -1.7676
  188DOPC   H4Y23203   2.362   3.524   9.818  0.0394  0.5632  0.5986
  188DOPC   C3523204   2.353   3.740   9.817  0.5682 -0.3099  0.3139
  188DOPC   H5X23205   2.243   3.738   9.830  0.6876  0.6507  1.6426
  188DOPC   H5Y23206   2.384   3.835   9.768 -0.6947  0.2422  0.5360
  188DOPC   C3623207   2.406   3.748   9.959 -0.7875  0.1380 -0.2454
  188DOPC   H6X23208   2.508   3.705   9.950 -1.4853 -2.3946  2.5162
  188DOPC   H6Y23209   2.408   3.855   9.990 -1.3362 -0.1350  0.7648
  188DOPC   C3723210   2.340   3.657  10.066 -0.5482  0.1685  0.1032
  188DOPC   H7X23211   2.252   3.597  10.035 -0.3419 -0.4358  0.6408
  188DOPC   H7Y23212   2.415   3.583  10.104 -1.4317 -0.4299  0.7257
  188DOPC   C3823213   2.303   3.736  10.190  0.9661 -0.3702 -0.5008
  188DOPC   H8X23214   2.223   3.674  10.237  1.3865 -0.4078  0.1793
  188DOPC   H8Y23215   2.229   3.809  10.149  1.2624 -0.5535 -1.3787
  188DOPC   C3923216   2.411   3.791  10.282 -0.2388 -0.4000 -0.6902
  188DOPC   H9X23217   2.495   3.845  10.235  1.8175 -1.7666  1.2167
  188DOPC  C31023218   2.421   3.771  10.411  0.2107 -0.2948 -0.2335
  188DOPC  H10X23219   2.515   3.801  10.461 -0.7197  1.6397  0.4712
  188DOPC  C31123220   2.316   3.715  10.508 -0.2168 -0.3243  0.0065
  188DOPC  H11X23221   2.333   3.605  10.514  1.8907  0.0241  2.1157
  188DOPC  H11Y23222   2.214   3.741  10.475 -0.8184  0.8926  2.5980
  188DOPC  C31223223   2.312   3.768  10.660  0.0098  0.1474  0.4832
  188DOPC  H12X23224   2.218   3.738  10.712 -0.5804  1.0345 -0.0560
  188DOPC  H12Y23225   2.302   3.878  10.660 -0.3906  0.1158  0.2738
  188DOPC  C31323226   2.433   3.736  10.743 -0.6981  0.4130 -0.2711
  188DOPC  H13X23227   2.414   3.638  10.791 -1.3294 -0.0597 -1.4344
  188DOPC  H13Y23228   2.523   3.743  10.679  1.6523  0.2880  2.8264
  188DOPC  C31423229   2.448   3.848  10.854 -0.2506 -0.0511 -1.0702
  188DOPC  H14X23230   2.461   3.947  10.805 -0.4370  0.3125 -0.3888
  188DOPC  H14Y23231   2.357   3.846  10.918  1.5281  1.0109  1.6583
  188DOPC  C31523232   2.576   3.825  10.930  0.1436 -0.9301  0.8109
  188DOPC  H15X23233   2.609   3.927  10.959 -0.9582 -0.5479  0.7793
  188DOPC  H15Y23234   2.647   3.777  10.860  1.2017  0.9662  0.5063
  188DOPC  C31623235   2.569   3.735  11.051 -0.0978  0.0026 -0.3276
  188DOPC  H16X23236   2.499   3.764  11.133  0.9290  4.0860 -0.6468
  188DOPC  H16Y23237   2.527   3.638  11.019  1.1690 -0.2899 -1.1292
  188DOPC  C31723238   2.699   3.711  11.115  1.2495 -0.2849 -0.2656
  188DOPC  H17X23239   2.770   3.675  11.038  2.2457 -1.8275  1.2978
  188DOPC  H17Y23240   2.735   3.803  11.168 -0.5568  0.4327 -0.2088
  188DOPC  C31823241   2.673   3.605  11.221 -1.2358  0.6561 -0.1977
  188DOPC  H18X23242   2.627   3.512  11.181  1.7772 -1.5566  1.1877
  188DOPC  H18Y23243   2.766   3.555  11.254 -1.4975  0.4272  0.2079
  188DOPC  H18Z23244   2.611   3.647  11.303 -1.8398 -2.4413  1.0740
  189DOPC     N23245   3.839   0.900   8.488  0.2947 -0.6914  0.1250
  189DOPC   C1223246   3.964   0.879   8.575  0.7349 -0.0030  0.4467
  189DOPC  H12A23247   4.050   0.862   8.513  0.9353  1.4424  0.2765
  189DOPC  H12B23248   3.948   0.787   8.629 -0.2506  1.0428  2.0095
  189DOPC   C1323249   3.875   1.011   8.396 -0.5991  0.3242  0.0212
  189DOPC  H13A23250   3.802   1.023   8.318  0.6394 -2.1748 -1.6660
  189DOPC  H13B23251   3.887   1.100   8.457  1.3511  0.8511 -1.0195
  189DOPC  H13C23252   3.971   0.981   8.355  1.7005  2.3179  3.3819
  189DOPC   C1423253   3.722   0.937   8.571 -0.5651  0.4346 -0.9699
  189DOPC  H14A23254   3.700   0.857   8.640  0.4590  0.2882 -0.8013
  189DOPC  H14B23255   3.750   1.028   8.622 -1.0713  0.3044 -0.4545
  189DOPC  H14C23256   3.636   0.954   8.507 -0.2422  1.3994 -1.1655
  189DOPC   C1523257   3.798   0.772   8.407  0.1358  0.8905 -0.3657
  189DOPC  H15A23258   3.882   0.731   8.353  0.5292  0.8147  0.2822
  189DOPC  H15B23259   3.724   0.804   8.336 -2.1485 -0.0530  1.4334
  189DOPC  H15C23260   3.747   0.702   8.472  2.4274 -0.0198  0.5789
  189DOPC   C1123261   3.998   0.995   8.674 -1.0130 -0.5136 -0.3482
  189DOPC  H11A23262   3.918   1.026   8.745 -0.6758 -0.0721 -0.1553
  189DOPC  H11B23263   4.078   0.951   8.737 -0.9315 -0.3341 -0.3255
  189DOPC     P23264   4.200   1.117   8.556 -0.0853  0.0065 -0.2451
  189DOPC   O1323265   4.216   1.252   8.499  0.2716 -0.0312 -0.1040
  189DOPC   O1423266   4.240   0.999   8.471 -0.0646 -0.2920  0.1539
  189DOPC   O1223267   4.054   1.112   8.603 -0.1651 -0.1740 -0.9925
  189DOPC   O1123268   4.273   1.107   8.699 -0.7947  0.2846  0.3507
  189DOPC    C123269   4.255   1.187   8.811  0.2244 -0.3774 -0.3026
  189DOPC    HA23270   4.150   1.224   8.809  0.4039  0.1179 -0.8830
  189DOPC    HB23271   4.324   1.273   8.800  0.1755 -0.3854 -0.7150
  189DOPC    C223272   4.265   1.105   8.942  0.4100  0.2301  0.1704
  189DOPC    HS23273   4.369   1.066   8.948 -0.1585 -1.2053  1.5973
  189DOPC   O2123274   4.169   0.991   8.926 -0.1776  0.5518 -0.4101
  189DOPC   C2123275   4.214   0.889   9.007  0.4462  0.1633 -0.8071
  189DOPC   O2223276   4.322   0.879   9.058  0.0047  0.0164  0.1241
  189DOPC   C2223277   4.096   0.789   9.013 -0.1232 -0.3449  0.1051
  189DOPC   H2R23278   4.144   0.691   9.035  2.0664  0.8126  0.8753
  189DOPC   H2S23279   4.038   0.797   8.919  0.8133 -0.6734 -0.5228
  189DOPC    C323280   4.233   1.192   9.061  1.3500 -0.5517  0.0023
  189DOPC    HX23281   4.126   1.216   9.045  0.9602 -0.2575  2.6192
  189DOPC    HY23282   4.297   1.282   9.045 -0.0990  0.4165 -0.5822
  189DOPC   O3123283   4.252   1.120   9.186  0.2161  0.2414 -0.4525
  189DOPC   C3123284   4.227   1.196   9.293 -0.2001  0.4155 -0.1193
  189DOPC   O3223285   4.171   1.306   9.296 -0.8137  0.4856 -0.0049
  189DOPC   C3223286   4.295   1.127   9.409 -0.2639  0.2090 -0.5598
  189DOPC   H2X23287   4.243   1.031   9.428  1.1344 -0.0376  2.8056
  189DOPC   H2Y23288   4.404   1.110   9.395  0.1569  2.1441 -0.0355
  189DOPC   C2323289   3.988   0.827   9.124 -0.7053 -0.7409 -0.1070
  189DOPC   H3R23290   3.897   0.770   9.096 -1.7953  2.2184 -3.1793
  189DOPC   H3S23291   3.953   0.932   9.119 -0.5158 -0.7433 -2.5938
  189DOPC   C2423292   4.033   0.804   9.265  0.7779  0.5113  0.1542
  189DOPC   H4R23293   4.107   0.881   9.296 -1.4677  3.0281 -0.3861
  189DOPC   H4S23294   4.083   0.706   9.281 -0.8678 -0.7787 -2.0580
  189DOPC   C2523295   3.922   0.824   9.374 -0.0015 -0.2582 -0.1253
  189DOPC   H5R23296   3.856   0.735   9.368 -1.6552  0.9752 -0.7158
  189DOPC   H5S23297   3.857   0.910   9.351 -1.2084 -1.5831 -1.8713
  189DOPC   C2623298   3.988   0.845   9.515 -0.6736 -0.3216 -0.0361
  189DOPC   H6R23299   4.051   0.936   9.518 -0.4100 -0.4482 -1.4323
  189DOPC   H6S23300   4.062   0.763   9.529 -0.5459 -0.2812 -0.4718
  189DOPC   C2723301   3.885   0.841   9.629 -0.5542 -0.5805  0.5529
  189DOPC   H7R23302   3.830   0.744   9.637  0.4008 -1.1644  0.1615
  189DOPC   H7S23303   3.817   0.924   9.600  0.3670 -0.1881 -0.5626
  189DOPC   C2823304   3.948   0.878   9.765  0.4146 -0.1499  0.6891
  189DOPC   H8R23305   3.860   0.899   9.831  0.6628  2.0705  0.4112
  189DOPC   H8S23306   4.006   0.971   9.749 -0.2222  0.1073 -0.1781
  189DOPC   C2923307   4.029   0.766   9.819  0.0295  0.2381 -0.2681
  189DOPC   H9R23308   4.097   0.720   9.746 -1.3348 -4.1687  0.8883
  189DOPC  C21023309   4.031   0.710   9.934  0.1272 -0.0166  0.0454
  189DOPC  H10R23310   4.114   0.642   9.960  0.5769  1.1455  1.7844
  189DOPC  C21123311   3.962   0.757  10.066  0.1661  0.0273  0.1200
  189DOPC  H11R23312   3.894   0.676  10.098 -0.2928  0.2805 -0.1994
  189DOPC  H11S23313   3.881   0.831  10.049 -2.6171 -3.1143 -1.3261
  189DOPC  C21223314   4.046   0.811  10.189 -0.3153  0.3115  0.7083
  189DOPC  H12R23315   4.077   0.916  10.175  2.2424 -0.0445  2.9873
  189DOPC  H12S23316   4.136   0.751  10.213 -2.0359 -3.2242 -0.8350
  189DOPC  C21323317   3.965   0.808  10.321 -0.4336  0.2542  0.4454
  189DOPC  H13R23318   3.919   0.707  10.322 -0.6221  0.3033 -1.1249
  189DOPC  H13S23319   3.888   0.888  10.318 -0.2247  0.4371 -2.4267
  189DOPC  C21423320   4.055   0.840  10.439 -0.2187  0.5542  0.5702
  189DOPC  H14R23321   4.094   0.943  10.420  0.4067  0.2665  0.2648
  189DOPC  H14S23322   4.143   0.772  10.450 -0.0841  0.8628  1.4269
  189DOPC  C21523323   3.970   0.835  10.572  0.0665  0.3715 -0.0805
  189DOPC  H15R23324   3.915   0.740  10.583  1.3550 -0.3889  0.0396
  189DOPC  H15S23325   3.898   0.919  10.571 -0.2683  0.0892  0.0768
  189DOPC  C21623326   4.043   0.849  10.710  0.8410 -0.4588  0.4847
  189DOPC  H16R23327   4.054   0.958  10.730  1.7718 -0.2868 -0.8519
  189DOPC  H16S23328   4.151   0.825  10.719  1.4335  2.5136  3.0775
  189DOPC  C21723329   3.978   0.788  10.835  0.0095  0.1828 -0.2511
  189DOPC  H17R23330   3.971   0.678  10.826  0.5230  0.2219 -1.3482
  189DOPC  H17S23331   3.878   0.836  10.827 -0.1903  0.0105  1.0535
  189DOPC  C21823332   4.057   0.822  10.960  0.5049  0.1509 -0.7988
  189DOPC  H18R23333   4.153   0.766  10.962 -0.2580 -1.1984  1.2546
  189DOPC  H18S23334   4.008   0.785  11.052  0.2802 -1.7496 -1.6263
  189DOPC  H18T23335   4.080   0.929  10.977  0.4397 -0.3040  2.7750
  189DOPC   C3323336   4.279   1.213   9.536  0.3132  0.2009  0.3046
  189DOPC   H3X23337   4.173   1.244   9.540  0.2568  0.1499 -0.5354
  189DOPC   H3Y23338   4.340   1.305   9.528  2.3971 -0.8780  2.4593
  189DOPC   C3423339   4.326   1.133   9.653 -0.8668 -0.4161 -0.0955
  189DOPC   H4X23340   4.431   1.097   9.641 -1.0556 -0.8081 -0.6183
  189DOPC   H4Y23341   4.258   1.047   9.668 -1.7557  0.4506  1.0332
  189DOPC   C3523342   4.325   1.221   9.778  0.4249 -0.2356 -0.1395
  189DOPC   H5X23343   4.248   1.300   9.766 -0.0607 -0.6756  0.0452
  189DOPC   H5Y23344   4.415   1.284   9.790  0.2042 -0.0252  0.4736
  189DOPC   C3623345   4.301   1.140   9.911 -0.3233  0.1444  0.4626
  189DOPC   H6X23346   4.194   1.129   9.935 -0.2108 -2.2598  0.0796
  189DOPC   H6Y23347   4.345   1.038   9.901 -1.3861 -0.3238  0.5074
  189DOPC   C3723348   4.369   1.207  10.030  0.2599  0.6399  0.3125
  189DOPC   H7X23349   4.479   1.215  10.014  1.0222 -0.5265  3.9600
  189DOPC   H7Y23350   4.333   1.310  10.045  0.0068  0.4964  0.6949
  189DOPC   C3823351   4.340   1.129  10.163  0.2541  0.8953  0.3778
  189DOPC   H8X23352   4.425   1.067  10.200  1.1831  3.0817  2.1157
  189DOPC   H8Y23353   4.263   1.051  10.145  2.2251 -1.1942  0.5062
  189DOPC   C3923354   4.283   1.213  10.269  0.5812  0.1353  0.0487
  189DOPC   H9X23355   4.217   1.291  10.228  1.9313  0.2938 -1.9296
  189DOPC  C31023356   4.311   1.212  10.401 -0.2209  0.0463 -0.1392
  189DOPC  H10X23357   4.262   1.284  10.469 -0.7206 -1.0006  0.6434
  189DOPC  C31123358   4.421   1.123  10.457 -0.7154 -0.1383 -0.9184
  189DOPC  H11X23359   4.517   1.177  10.446 -1.4697  1.5484  0.3279
  189DOPC  H11Y23360   4.437   1.026  10.406  0.6409 -1.3384  1.5810
  189DOPC  C31223361   4.397   1.074  10.602  0.1474 -0.4657 -0.5272
  189DOPC  H12X23362   4.474   0.998  10.628 -0.1622 -1.1516 -1.5212
  189DOPC  H12Y23363   4.294   1.031  10.593 -1.4762  2.9688  0.0852
  189DOPC  C31323364   4.395   1.183  10.706  1.2841 -0.6160  0.0663
  189DOPC  H13X23365   4.499   1.219  10.722  0.7181  0.0389  2.6654
  189DOPC  H13Y23366   4.334   1.270  10.672 -0.0503 -1.9923 -1.2393
  189DOPC  C31423367   4.344   1.135  10.840  0.4439  0.0442 -0.2062
  189DOPC  H14X23368   4.333   1.228  10.900 -0.0337  1.4440 -2.3667
  189DOPC  H14Y23369   4.241   1.093  10.837 -0.7895  2.9086 -1.4052
  189DOPC  C31523370   4.434   1.023  10.894  0.5759 -0.1019 -0.5110
  189DOPC  H15X23371   4.535   1.068  10.910  0.3173  0.4853 -0.4755
  189DOPC  H15Y23372   4.438   0.938  10.824  0.3688  0.5287 -1.3021
  189DOPC  C31623373   4.409   0.985  11.042 -0.0010 -0.0683  0.0179
  189DOPC  H16X23374   4.303   0.951  11.048  0.2011 -0.6989  0.0253
  189DOPC  H16Y23375   4.474   0.897  11.063  2.9866  1.4317 -2.2780
  189DOPC  C31723376   4.447   1.104  11.138  0.9181  0.3182  0.0781
  189DOPC  H17X23377   4.546   1.147  11.113 -0.0832  1.8208 -1.5134
  189DOPC  H17Y23378   4.374   1.184  11.116 -0.0145 -0.2466  1.0577
  189DOPC  C31823379   4.430   1.063  11.288  0.5020 -0.1797  0.3233
  189DOPC  H18X23380   4.503   0.981  11.307  0.3535 -0.3421  0.2030
  189DOPC  H18Y23381   4.448   1.150  11.355 -2.6470 -0.7459  2.0989
  189DOPC  H18Z23382   4.327   1.029  11.314 -1.5144  5.2931  0.8026
  190DOPC     N23383   1.913   2.030   8.817 -0.0807 -0.0410 -0.0046
  190DOPC   C1223384   1.942   1.989   8.673  0.6083  0.0462 -0.3885
  190DOPC  H12A23385   2.001   2.063   8.620  1.7239 -1.2704 -1.0595
  190DOPC  H12B23386   1.847   1.981   8.623  0.5173 -0.6224 -0.1257
  190DOPC   C1323387   2.038   2.041   8.899 -0.5454  0.2849 -0.3424
  190DOPC  H13A23388   2.109   1.970   8.858 -0.3210 -0.1157  0.6949
  190DOPC  H13B23389   2.079   2.141   8.888  0.6630 -0.0143  1.1396
  190DOPC  H13C23390   2.028   2.017   9.004  0.5809  2.2882  0.2884
  190DOPC   C1423391   1.822   1.927   8.873  0.3351 -0.3430  0.0926
  190DOPC  H14A23392   1.731   1.918   8.815  0.3086 -1.5354  0.2792
  190DOPC  H14B23393   1.885   1.839   8.864  1.4825  0.0555  3.0664
  190DOPC  H14C23394   1.796   1.955   8.974  1.1840  0.8322 -0.0038
  190DOPC   C1523395   1.847   2.166   8.824 -0.1207  0.0314 -0.4203
  190DOPC  H15A23396   1.822   2.206   8.921  0.3126 -1.7053  0.4502
  190DOPC  H15B23397   1.758   2.174   8.764 -1.6611  2.0062  1.9039
  190DOPC  H15C23398   1.919   2.236   8.785 -0.6240  0.7501 -0.0842
  190DOPC   C1123399   2.038   1.867   8.648 -0.0039  0.3476  0.1910
  190DOPC  H11A23400   1.990   1.779   8.697  0.1916 -1.1739 -2.2042
  190DOPC  H11B23401   2.039   1.851   8.539  0.8651  1.7072 -0.0200
  190DOPC     P23402   2.288   1.942   8.611 -0.6081  0.0946 -0.2548
  190DOPC   O1323403   2.245   2.044   8.516  0.1860  0.7458  0.0589
  190DOPC   O1423404   2.366   1.830   8.565  0.0912  0.0735 -0.1191
  190DOPC   O1223405   2.171   1.885   8.691 -0.0109  0.7414 -0.1346
  190DOPC   O1123406   2.378   2.021   8.718 -0.4315 -0.0251  0.2212
  190DOPC    C123407   2.418   1.951   8.837  0.0661 -0.6452 -0.3135
  190DOPC    HA23408   2.474   1.864   8.797 -0.9670 -1.3832 -0.1988
  190DOPC    HB23409   2.324   1.919   8.887  0.5270 -0.7397  0.5056
  190DOPC    C223410   2.497   2.024   8.951  1.3180 -0.6526  0.4832
  190DOPC    HS23411   2.607   2.011   8.940  1.6163  0.2739  2.0577
  190DOPC   O2123412   2.456   1.985   9.078  0.0513  0.1665  0.1904
  190DOPC   C2123413   2.545   1.969   9.174  0.6581 -0.1836  0.8829
  190DOPC   O2223414   2.666   1.982   9.164  0.2627  0.4821  0.2510
  190DOPC   C2223415   2.467   1.928   9.299  0.2621 -0.1875  0.5303
  190DOPC   H2R23416   2.430   1.828   9.270  0.2208  0.1949 -0.7615
  190DOPC   H2S23417   2.379   1.994   9.314 -0.8448 -1.0916 -1.6203
  190DOPC    C323418   2.480   2.178   8.944  0.1521 -0.0975 -0.2244
  190DOPC    HX23419   2.370   2.189   8.953 -0.0297  1.8101 -3.3914
  190DOPC    HY23420   2.505   2.232   8.850  1.5770  1.6964  1.0991
  190DOPC   O3123421   2.540   2.261   9.052  0.4311 -0.4942  0.1716
  190DOPC   C3123422   2.663   2.312   9.025 -0.4443 -0.1266  1.0218
  190DOPC   O3223423   2.738   2.282   8.932  0.3404 -0.0011 -0.3931
  190DOPC   C3223424   2.691   2.425   9.129 -0.5330 -0.1104 -0.2228
  190DOPC   H2X23425   2.719   2.508   9.060  1.2227  0.5369  1.1844
  190DOPC   H2Y23426   2.597   2.441   9.186  0.9850  1.8475  1.9310
  190DOPC   C2323427   2.547   1.932   9.427  0.3184 -0.0879 -0.4051
  190DOPC   H3R23428   2.546   2.039   9.455 -1.2405 -0.3064  0.5053
  190DOPC   H3S23429   2.653   1.900   9.413  1.0412  1.5662  0.9137
  190DOPC   C2423430   2.479   1.848   9.538 -0.3017  0.1101  0.7555
  190DOPC   H4R23431   2.451   1.742   9.524  1.5736 -0.2055 -1.0580
  190DOPC   H4S23432   2.383   1.897   9.564 -0.5372  1.2421 -1.8959
  190DOPC   C2523433   2.564   1.861   9.663  0.0776  1.0161 -0.9740
  190DOPC   H5R23434   2.577   1.970   9.682  0.0148  0.8293  0.1702
  190DOPC   H5S23435   2.661   1.818   9.630 -0.7639 -0.8969 -1.1035
  190DOPC   C2623436   2.509   1.783   9.776 -0.4597 -0.2335  0.0421
  190DOPC   H6R23437   2.538   1.676   9.775 -0.7861 -0.4434  3.2447
  190DOPC   H6S23438   2.399   1.792   9.763 -0.4339 -0.6046 -0.4632
  190DOPC   C2723439   2.571   1.827   9.913  0.7312  0.2025 -0.2864
  190DOPC   H7R23440   2.572   1.938   9.906 -0.5488  0.2599  0.2667
  190DOPC   H7S23441   2.670   1.787   9.944  0.4284 -0.7573 -0.5325
  190DOPC   C2823442   2.474   1.808  10.031 -0.1378  0.4571  0.2495
  190DOPC   H8R23443   2.370   1.836  10.006 -0.1443  0.4509  0.2690
  190DOPC   H8S23444   2.509   1.888  10.100  0.6123 -0.8626  1.4581
  190DOPC   C2923445   2.484   1.679  10.109  0.2489 -0.2639 -0.4686
  190DOPC   H9R23446   2.448   1.592  10.051 -1.6722 -0.1345  0.4523
  190DOPC  C21023447   2.509   1.652  10.240 -0.1702 -0.8618  1.3903
  190DOPC  H10R23448   2.520   1.546  10.268  2.1730 -0.9412  0.3797
  190DOPC  C21123449   2.538   1.756  10.346  0.1155 -0.1662 -0.6140
  190DOPC  H11R23450   2.498   1.854  10.315 -0.6814 -0.0208  0.7791
  190DOPC  H11S23451   2.644   1.775  10.374  0.5008 -0.2151 -1.9906
  190DOPC  C21223452   2.470   1.704  10.475 -0.3297 -0.1278  0.0567
  190DOPC  H12R23453   2.514   1.607  10.506  0.2837  0.5558  1.4594
  190DOPC  H12S23454   2.362   1.696  10.453 -0.6100 -0.6894  1.5129
  190DOPC  C21323455   2.475   1.813  10.586 -0.4113  0.0818  0.2990
  190DOPC  H13R23456   2.405   1.897  10.567 -0.5462  0.2194  1.3275
  190DOPC  H13S23457   2.579   1.853  10.589 -0.4014 -0.0097  1.8709
  190DOPC  C21423458   2.440   1.742  10.719  0.1805 -0.7997 -0.2637
  190DOPC  H14R23459   2.494   1.646  10.708  1.5511 -0.0685 -0.1490
  190DOPC  H14S23460   2.330   1.729  10.731 -0.2441  1.7905 -0.7093
  190DOPC  C21523461   2.480   1.815  10.851  0.1494  0.1807  0.1376
  190DOPC  H15R23462   2.451   1.919  10.828  1.2474  0.1479 -1.4935
  190DOPC  H15S23463   2.586   1.809  10.885  0.3747  1.1145 -0.3836
  190DOPC  C21623464   2.393   1.765  10.972 -0.3938 -0.2670  0.1244
  190DOPC  H16R23465   2.398   1.658  10.998 -0.9501 -0.0795  1.0744
  190DOPC  H16S23466   2.286   1.776  10.942 -1.5651 -1.0450  3.4665
  190DOPC  C21723467   2.418   1.839  11.106  0.2865  0.2535  0.1547
  190DOPC  H17R23468   2.376   1.942  11.116 -0.4210 -0.1873  2.2683
  190DOPC  H17S23469   2.527   1.842  11.128 -0.0419 -0.6340  2.1701
  190DOPC  C21823470   2.366   1.754  11.224 -0.3075 -0.4883  0.5063
  190DOPC  H18R23471   2.369   1.815  11.317 -1.0210  0.1532  0.1224
  190DOPC  H18S23472   2.434   1.668  11.240 -0.4361 -0.7339 -0.2293
  190DOPC  H18T23473   2.263   1.717  11.203 -0.5365  0.7320 -0.6683
  190DOPC   C3323474   2.799   2.390   9.238  0.2413 -0.7204  0.4861
  190DOPC   H3X23475   2.810   2.487   9.291  2.0520  0.9303 -2.6285
  190DOPC   H3Y23476   2.904   2.377   9.205  0.8670  1.4663  1.3840
  190DOPC   C3423477   2.770   2.273   9.332  0.3933 -0.4020 -0.0217
  190DOPC   H4X23478   2.741   2.171   9.300 -2.3517 -0.1204  1.2951
  190DOPC   H4Y23479   2.683   2.298   9.395  0.8978  0.5949  0.3033
  190DOPC   C3523480   2.894   2.258   9.431  0.4516 -0.2246  0.5975
  190DOPC   H5X23481   2.917   2.359   9.470  0.2677 -0.6435  1.8525
  190DOPC   H5Y23482   2.978   2.226   9.366  0.1706  1.0202 -0.4136
  190DOPC   C3623483   2.872   2.161   9.546 -0.2800  0.0104 -0.3803
  190DOPC   H6X23484   2.782   2.197   9.600 -0.3761 -0.0182 -0.5218
  190DOPC   H6Y23485   2.854   2.057   9.511 -1.0641 -0.0484  0.1745
  190DOPC   C3723486   2.988   2.158   9.648 -0.0563 -0.1144  0.1081
  190DOPC   H7X23487   3.085   2.139   9.597 -1.3584 -1.8472 -1.8848
  190DOPC   H7Y23488   2.998   2.255   9.701 -2.2753  0.3933 -0.3108
  190DOPC   C3823489   2.972   2.052   9.755  0.1523 -1.0364  0.1371
  190DOPC   H8X23490   3.069   2.057   9.810 -0.6804  2.7901  1.5867
  190DOPC   H8Y23491   2.945   1.950   9.721 -1.0758 -1.0261  0.9944
  190DOPC   C3923492   2.862   2.086   9.854 -0.3416 -0.3820  0.0023
  190DOPC   H9X23493   2.805   2.176   9.830  1.2440 -0.0082 -2.7290
  190DOPC  C31023494   2.848   2.028   9.975  0.7242 -0.4100 -0.4344
  190DOPC  H10X23495   2.770   2.062  10.044  0.8412 -1.3768  0.1920
  190DOPC  C31123496   2.933   1.916  10.028 -0.7729  0.1038 -0.5092
  190DOPC  H11X23497   3.002   1.870   9.954 -0.0980 -0.3885  0.4046
  190DOPC  H11Y23498   2.870   1.830  10.058 -1.1879 -0.1435 -1.9695
  190DOPC  C31223499   3.034   1.973  10.135  0.4338  0.5207  0.4867
  190DOPC  H12X23500   3.095   2.057  10.095  0.5647  0.5525  0.7533
  190DOPC  H12Y23501   3.105   1.894  10.165 -1.1106 -1.2613 -0.3066
  190DOPC  C31323502   2.961   2.014  10.265  0.3800 -0.4020 -0.2072
  190DOPC  H13X23503   2.885   2.088  10.231  0.4767 -0.2596 -0.1147
  190DOPC  H13Y23504   2.908   1.933  10.320 -0.6102  0.6561  0.4409
  190DOPC  C31423505   3.046   2.082  10.378 -0.3005  0.1831  0.3623
  190DOPC  H14X23506   3.134   2.022  10.409 -1.3968 -0.6370  2.0468
  190DOPC  H14Y23507   3.097   2.169  10.333 -0.2582  0.1483  0.3430
  190DOPC  C31523508   2.973   2.113  10.513 -0.6752  0.7033 -0.0655
  190DOPC  H15X23509   2.882   2.174  10.494  0.2132  2.0019 -0.3021
  190DOPC  H15Y23510   3.039   2.193  10.554 -4.0270  3.1384  0.9951
  190DOPC  C31623511   2.961   1.992  10.608 -0.0115 -0.4296 -0.1356
  190DOPC  H16X23512   2.931   1.902  10.548  0.7821  0.0514 -1.2858
  190DOPC  H16Y23513   3.056   1.972  10.660 -0.8056 -1.3339  1.0154
  190DOPC  C31723514   2.853   2.006  10.716  0.3013  0.4030  0.7733
  190DOPC  H17X23515   2.863   2.109  10.754  1.1682  0.5259  0.2525
  190DOPC  H17Y23516   2.755   1.996  10.664 -0.4004 -0.8147  2.2483
  190DOPC  C31823517   2.862   1.903  10.825  0.2460 -0.2354  0.1223
  190DOPC  H18X23518   2.848   1.800  10.787  0.4538  0.3883 -1.7211
  190DOPC  H18Y23519   2.964   1.914  10.868  0.0646 -0.2324  0.5595
  190DOPC  H18Z23520   2.790   1.934  10.904 -2.7734  0.8466 -2.8103
  191DOPC     N23521   4.810   2.031   8.418  0.1386  0.2392 -0.4147
  191DOPC   C1223522   4.732   1.997   8.544 -0.1889 -0.0806  0.6576
  191DOPC  H12A23523   4.646   1.939   8.514 -0.1922  0.3798 -0.2734
  191DOPC  H12B23524   4.679   2.088   8.572  0.3543  0.8018 -1.0224
  191DOPC   C1323525   4.719   2.108   8.329  0.4231  0.6810  0.0724
  191DOPC  H13A23526   4.710   2.204   8.378 -0.1076 -0.2207  1.8058
  191DOPC  H13B23527   4.762   2.130   8.232 -0.6004 -0.2634 -0.6162
  191DOPC  H13C23528   4.629   2.052   8.311  0.7833  0.2246 -0.3650
  191DOPC   C1423529   4.843   1.909   8.338 -0.2372  0.0197  0.1563
  191DOPC  H14A23530   4.894   1.844   8.408 -0.9806 -1.0365 -0.2634
  191DOPC  H14B23531   4.749   1.869   8.305 -0.3568  0.2888  0.1693
  191DOPC  H14C23532   4.894   1.926   8.244  0.5969 -1.0796  0.3894
  191DOPC   C1523533   4.931   2.110   8.445 -0.4518  0.0035  0.6749
  191DOPC  H15A23534   4.999   2.060   8.512  2.3047 -0.9193 -2.5408
  191DOPC  H15B23535   4.895   2.201   8.491 -5.0604 -1.0073 -0.4262
  191DOPC  H15C23536   4.990   2.140   8.359  0.4695  2.5701  2.0829
  191DOPC   C1123537   4.804   1.930   8.665 -0.3125 -0.5349 -0.6039
  191DOPC  H11A23538   4.862   2.014   8.708  0.5068 -1.8727  1.0210
  191DOPC  H11B23539   4.726   1.898   8.736  0.5730 -0.2069  0.5427
  191DOPC     P23540   5.034   1.803   8.649 -0.4434 -0.0571 -0.1346
  191DOPC   O1323541   5.090   1.936   8.643  0.0067  0.1493 -0.2707
  191DOPC   O1423542   5.102   1.694   8.569 -0.4985  0.6738 -0.0127
  191DOPC   O1223543   4.881   1.818   8.621  0.1062  0.6295  0.4870
  191DOPC   O1123544   5.038   1.760   8.801 -1.0690  0.2400  0.3117
  191DOPC    C123545   5.025   1.624   8.835 -0.2937  0.0096  0.1007
  191DOPC    HA23546   5.051   1.550   8.756  1.9160  1.4447 -0.6091
  191DOPC    HB23547   4.919   1.598   8.857 -0.0785 -1.1089 -0.1331
  191DOPC    C223548   5.116   1.586   8.956 -0.2948 -0.2660 -0.5661
  191DOPC    HS23549   5.095   1.479   8.976  1.1806 -0.8962 -2.1256
  191DOPC   O2123550   5.101   1.671   9.065  0.0818  0.1670 -0.3085
  191DOPC   C2123551   4.987   1.647   9.139  0.4359  0.5244 -0.2640
  191DOPC   O2223552   4.910   1.556   9.115  0.2993 -0.4550  0.6052
  191DOPC   C2223553   4.970   1.753   9.250 -0.7630  0.3385  0.0326
  191DOPC   H2R23554   4.863   1.764   9.274 -0.4308  1.0397  1.2604
  191DOPC   H2S23555   5.013   1.849   9.213 -0.5517  0.4123  0.4575
  191DOPC    C323556   5.265   1.586   8.912 -0.2368 -0.9222 -0.0549
  191DOPC    HX23557   5.288   1.690   8.882  1.0805  0.0495  3.7277
  191DOPC    HY23558   5.274   1.527   8.818  0.6824  0.2961 -0.7589
  191DOPC   O3123559   5.354   1.553   9.023 -0.2337  0.0773  0.6120
  191DOPC   C3123560   5.375   1.425   9.040  0.0086 -0.3097  0.7517
  191DOPC   O3223561   5.316   1.338   8.979  0.4299  0.4262  0.4341
  191DOPC   C3223562   5.492   1.402   9.138  0.3408  0.0455 -0.4232
  191DOPC   H2X23563   5.584   1.453   9.103  0.8319  0.6690  1.6277
  191DOPC   H2Y23564   5.474   1.442   9.240  3.0516 -0.4903  0.3497
  191DOPC   C2323565   5.044   1.706   9.373 -0.2676 -0.5456  0.8859
  191DOPC   H3R23566   5.154   1.711   9.365 -0.3447  2.9483  0.4528
  191DOPC   H3S23567   5.028   1.597   9.388  0.1489 -0.5594  1.2577
  191DOPC   C2423568   4.997   1.792   9.492 -0.3363 -0.8051 -0.4291
  191DOPC   H4R23569   4.895   1.756   9.519  0.5854 -2.2164  1.3328
  191DOPC   H4S23570   5.001   1.901   9.469  2.0507  0.1153  3.4973
  191DOPC   C2523571   5.085   1.775   9.617 -0.3573 -0.0184 -0.3565
  191DOPC   H5R23572   5.183   1.826   9.604  0.2871 -0.9180  0.7163
  191DOPC   H5S23573   5.116   1.668   9.614 -1.0455 -0.2650  0.7888
  191DOPC   C2623574   5.011   1.806   9.746 -0.3939 -0.1031 -0.2173
  191DOPC   H6R23575   4.912   1.756   9.751 -0.7289  0.5965  0.1838
  191DOPC   H6S23576   4.994   1.916   9.743  0.6367  0.0963  0.4862
  191DOPC   C2723577   5.087   1.776   9.871 -0.3576  0.1933 -0.6331
  191DOPC   H7R23578   5.188   1.820   9.863 -0.8049  1.6303  0.9085
  191DOPC   H7S23579   5.101   1.666   9.875 -0.8274  0.1572  0.6080
  191DOPC   C2823580   5.016   1.817  10.002  0.4750  0.3896  0.3674
  191DOPC   H8R23581   4.913   1.776  10.009  0.6031 -0.2042 -0.9203
  191DOPC   H8S23582   5.002   1.927   9.990 -1.7123  0.2150  0.9254
  191DOPC   C2923583   5.101   1.778  10.118  0.0313 -0.1838  0.6493
  191DOPC   H9R23584   5.208   1.760  10.099  0.0952  3.2302 -3.8938
  191DOPC  C21023585   5.065   1.777  10.248  0.0340 -0.5731  0.3899
  191DOPC  H10R23586   5.138   1.739  10.321  0.6743  0.3580  0.2626
  191DOPC  C21123587   4.937   1.822  10.306  0.4752 -0.4698  0.0268
  191DOPC  H11R23588   4.866   1.737  10.308 -1.8875  1.1816 -3.5778
  191DOPC  H11S23589   4.885   1.905  10.253  1.6857  0.9421  0.9387
  191DOPC  C21223590   4.958   1.867  10.457 -0.0796  0.3284  1.0495
  191DOPC  H12R23591   4.876   1.940  10.471 -1.5031 -0.6313 -1.4753
  191DOPC  H12S23592   5.052   1.925  10.447 -0.5746  0.8668 -0.7901
  191DOPC  C21323593   4.978   1.759  10.565  0.1437  0.4861 -0.2407
  191DOPC  H13R23594   5.075   1.706  10.558  0.5447  1.0059  1.1403
  191DOPC  H13S23595   4.900   1.680  10.564 -0.7069  1.0965  3.4138
  191DOPC  C21423596   4.970   1.825  10.702  0.6569  0.2664 -0.1726
  191DOPC  H14R23597   4.862   1.840  10.724  0.4358  1.1003 -1.6944
  191DOPC  H14S23598   5.016   1.926  10.697  2.6561 -0.6441 -1.4106
  191DOPC  C21523599   5.025   1.735  10.822  0.0350  0.7766  0.1517
  191DOPC  H15R23600   5.129   1.709  10.796 -0.5524 -2.1265  0.4193
  191DOPC  H15S23601   4.957   1.648  10.829  1.5735 -0.3366  3.7484
  191DOPC  C21623602   5.035   1.822  10.956  0.1498 -0.1579  0.7066
  191DOPC  H16R23603   4.933   1.858  10.983 -0.9592 -2.2016 -0.5203
  191DOPC  H16S23604   5.113   1.899  10.936 -0.3162  0.0722 -0.2449
  191DOPC  C21723605   5.076   1.740  11.084  0.0638 -1.1220  0.0963
  191DOPC  H17R23606   5.079   1.808  11.171 -0.6348  0.0504 -0.7652
  191DOPC  H17S23607   5.179   1.711  11.056  0.8970  0.6627  1.1789
  191DOPC  C21823608   4.994   1.620  11.119  0.1995 -0.5549  0.3965
  191DOPC  H18R23609   4.895   1.616  11.069 -0.2267 -0.5090  1.2134
  191DOPC  H18S23610   4.993   1.609  11.230  2.9100 -0.7991  0.4531
  191DOPC  H18T23611   5.050   1.528  11.088  1.9194 -0.7870  3.7214
  191DOPC   C3323612   5.516   1.250   9.157  0.4828 -0.0440 -0.6650
  191DOPC   H3X23613   5.558   1.199   9.067  0.4409 -1.0455 -0.1364
  191DOPC   H3Y23614   5.421   1.194   9.171  0.7445 -1.0436 -2.5057
  191DOPC   C3423615   5.611   1.215   9.265 -0.6295  0.4106 -0.5796
  191DOPC   H4X23616   5.685   1.297   9.267 -1.5116  1.1949  0.5638
  191DOPC   H4Y23617   5.676   1.130   9.234  0.3587 -0.2262  2.8320
  191DOPC   C3523618   5.540   1.187   9.394 -0.0815 -0.0148 -0.5332
  191DOPC   H5X23619   5.458   1.112   9.382  0.9999 -1.0199 -1.9135
  191DOPC   H5Y23620   5.495   1.282   9.430 -0.0474 -0.0923 -0.2848
  191DOPC   C3623621   5.624   1.141   9.513  0.2376  0.0160 -0.3390
  191DOPC   H6X23622   5.682   1.052   9.483 -2.4480 -1.8894 -0.2157
  191DOPC   H6Y23623   5.691   1.225   9.541  1.6315 -0.5040 -1.9471
  191DOPC   C3723624   5.542   1.111   9.635 -0.3053 -0.1017 -0.1770
  191DOPC   H7X23625   5.485   1.202   9.668 -1.2221  0.1560 -2.3235
  191DOPC   H7Y23626   5.463   1.039   9.605  0.8549 -0.7908 -1.6665
  191DOPC   C3823627   5.623   1.056   9.757  0.1850  0.0418 -0.6988
  191DOPC   H8X23628   5.678   0.969   9.716 -0.4788  0.6752 -3.0977
  191DOPC   H8Y23629   5.548   1.003   9.820 -0.3742  0.1231 -1.2919
  191DOPC   C3923630   5.715   1.159   9.830  0.6429 -0.1438 -0.5920
  191DOPC   H9X23631   5.797   1.198   9.767 -0.3611  1.7014 -0.8410
  191DOPC  C31023632   5.700   1.208   9.955  0.2363 -0.5626 -0.2563
  191DOPC  H10X23633   5.777   1.282   9.980 -1.2720  1.3785 -1.1061
  191DOPC  C31123634   5.597   1.186  10.069  0.2412  0.4703  0.1097
  191DOPC  H11X23635   5.529   1.104  10.036  0.0625  1.1772 -1.3500
  191DOPC  H11Y23636   5.532   1.274  10.085 -2.8125 -1.6068 -0.0524
  191DOPC  C31223637   5.678   1.160  10.208 -0.1927 -0.8224  0.1564
  191DOPC  H12X23638   5.698   1.258  10.256  0.4968 -1.5402  1.3954
  191DOPC  H12Y23639   5.775   1.111  10.183 -0.6804 -0.6742 -2.2722
  191DOPC  C31323640   5.612   1.077  10.314 -0.6146  0.8432  0.1430
  191DOPC  H13X23641   5.507   1.066  10.283 -0.7292 -2.5599  1.3122
  191DOPC  H13Y23642   5.666   0.980  10.321  1.3202  1.9496  2.1812
  191DOPC  C31423643   5.607   1.147  10.448 -0.4811  0.3008 -0.6835
  191DOPC  H14X23644   5.707   1.165  10.493  0.8531 -0.2821 -3.2188
  191DOPC  H14Y23645   5.556   1.244  10.428 -1.6206 -0.2691 -0.5712
  191DOPC  C31523646   5.521   1.065  10.549 -0.3484  0.7906 -0.4630
  191DOPC  H15X23647   5.567   0.964  10.554  2.1252  1.7971 -1.0932
  191DOPC  H15Y23648   5.417   1.052  10.513 -0.3180  0.1110 -0.3224
  191DOPC  C31623649   5.523   1.106  10.697  0.3669  0.0495  0.2275
  191DOPC  H16X23650   5.483   1.210  10.704  0.1037 -0.1180  1.3060
  191DOPC  H16Y23651   5.463   1.027  10.747  0.9375  0.2135  1.1787
  191DOPC  C31723652   5.659   1.092  10.757 -0.3779  0.6978 -0.3939
  191DOPC  H17X23653   5.693   0.989  10.731 -1.4776  0.5862 -1.5099
  191DOPC  H17Y23654   5.725   1.171  10.717  0.4805  0.0063 -0.3822
  191DOPC  C31823655   5.654   1.116  10.906 -0.3757 -0.3223 -0.4144
  191DOPC  H18X23656   5.616   1.218  10.929  0.2741 -0.4798  1.5635
  191DOPC  H18Y23657   5.583   1.040  10.946 -1.4985  0.7032 -0.4023
  191DOPC  H18Z23658   5.757   1.118  10.949 -0.4157 -0.9277 -0.2798
  192DOPC     N23659   0.480   5.356   8.701 -0.1210 -0.2393  0.2326
  192DOPC   C1223660   0.555   5.410   8.822 -0.7586  0.0794 -1.0168
  192DOPC  H12A23661   0.639   5.474   8.798 -0.5946  0.8043  1.2628
  192DOPC  H12B23662   0.596   5.332   8.885 -0.9143  1.9250  1.5524
  192DOPC   C1323663   0.354   5.281   8.734  0.2555 -0.4128  0.4565
  192DOPC  H13A23664   0.287   5.352   8.781  0.2843  0.4173 -0.7101
  192DOPC  H13B23665   0.306   5.256   8.640  0.4292 -2.0703  0.7892
  192DOPC  H13C23666   0.374   5.195   8.795  0.7832 -1.8169 -1.5863
  192DOPC   C1423667   0.568   5.256   8.626 -0.0462  0.0091  0.0591
  192DOPC  H14A23668   0.606   5.185   8.697  0.1898  0.1348  0.0606
  192DOPC  H14B23669   0.515   5.198   8.552  0.3465 -0.1444 -0.1065
  192DOPC  H14C23670   0.646   5.311   8.574  0.3914 -0.0270  0.6621
  192DOPC   C1523671   0.455   5.466   8.604  0.1458  0.1485 -0.2488
  192DOPC  H15A23672   0.412   5.549   8.659 -0.8449 -0.7491  0.3735
  192DOPC  H15B23673   0.380   5.423   8.539  1.0422  0.2831 -1.3880
  192DOPC  H15C23674   0.545   5.479   8.547  0.3986 -2.5480 -0.5833
  192DOPC   C1123675   0.478   5.501   8.924  0.2348  0.7000  0.0011
  192DOPC  H11A23676   0.400   5.428   8.954  0.2423  0.2135 -1.0960
  192DOPC  H11B23677   0.536   5.522   9.017  2.4897  1.1930 -1.4210
  192DOPC     P23678   0.480   5.745   8.869  0.3385  0.4493  0.2386
  192DOPC   O1323679   0.398   5.826   8.778  0.1477  0.6519 -0.0693
  192DOPC   O1423680   0.619   5.724   8.828  0.2278  0.5075  0.5376
  192DOPC   O1223681   0.405   5.606   8.868 -0.3491 -0.0842  0.4285
  192DOPC   O1123682   0.462   5.802   9.010  0.1225 -0.5306 -0.5655
  192DOPC    C123683   0.356   5.777   9.104 -0.0895 -0.0035 -0.2002
  192DOPC    HA23684   0.317   5.674   9.086  0.0152 -0.3806  1.5993
  192DOPC    HB23685   0.271   5.849   9.094  0.4202  0.5884 -0.3067
  192DOPC    C223686   0.398   5.778   9.257 -0.2409 -0.1314  0.5119
  192DOPC    HS23687   0.414   5.886   9.276 -0.5647 -0.0714  0.4553
  192DOPC   O2123688   0.515   5.695   9.261 -0.3138 -0.1944  0.7624
  192DOPC   C2123689   0.632   5.756   9.230 -0.0301  0.1402  0.9010
  192DOPC   O2223690   0.659   5.874   9.219 -0.1952  0.3046 -0.6952
  192DOPC   C2223691   0.736   5.648   9.191  0.2538  1.2889 -0.5321
  192DOPC   H2R23692   0.738   5.642   9.080 -0.0569  2.2998 -0.6038
  192DOPC   H2S23693   0.702   5.553   9.236 -0.4968  0.9995 -1.6772
  192DOPC    C323694   0.292   5.710   9.357  0.4532  0.0639  0.0935
  192DOPC    HX23695   0.277   5.609   9.313 -0.9147  0.0741  0.4936
  192DOPC    HY23696   0.192   5.759   9.349 -0.3275 -1.1413  1.8870
  192DOPC   O3123697   0.340   5.698   9.485 -0.3361  0.1701  0.3033
  192DOPC   C3123698   0.318   5.814   9.554 -0.0654 -0.1563 -0.4255
  192DOPC   O3223699   0.273   5.915   9.506  0.0157 -0.4969 -0.5853
  192DOPC   C3223700   0.309   5.794   9.699  0.2032  0.2634  0.2814
  192DOPC   H2X23701   0.274   5.885   9.751 -1.4530 -0.3630  0.3071
  192DOPC   H2Y23702   0.236   5.713   9.720  1.7838 -1.0816  0.7945
  192DOPC   C2323703   0.877   5.679   9.250  0.2132 -0.3953 -0.1949
  192DOPC   H3R23704   0.920   5.763   9.192  0.5226 -0.3774  0.0556
  192DOPC   H3S23705   0.948   5.597   9.223  0.1299 -1.4298  2.3908
  192DOPC   C2423706   0.871   5.704   9.404 -0.7278 -0.0394  1.0406
  192DOPC   H4R23707   0.817   5.801   9.411 -1.1099  0.0721 -2.0635
  192DOPC   H4S23708   0.972   5.702   9.451 -0.1875 -1.6147 -0.1253
  192DOPC   C2523709   0.795   5.597   9.482  0.6934 -0.0332 -0.2191
  192DOPC   H5R23710   0.843   5.498   9.466  1.0349  0.2525 -0.9960
  192DOPC   H5S23711   0.696   5.597   9.431  0.4832 -0.2592  0.1830
  192DOPC   C2623712   0.758   5.632   9.629  0.1622  0.2163  0.1429
  192DOPC   H6R23713   0.680   5.559   9.658  2.2185 -1.3657  2.0830
  192DOPC   H6S23714   0.718   5.736   9.627 -0.6964 -0.1114  0.1003
  192DOPC   C2723715   0.885   5.636   9.714  0.5403  0.5651  0.3468
  192DOPC   H7R23716   0.958   5.713   9.681  0.9009 -0.4918 -1.4358
  192DOPC   H7S23717   0.934   5.537   9.706  1.4553  0.8844  1.7006
  192DOPC   C2823718   0.849   5.659   9.864 -0.5841 -0.0906 -0.5640
  192DOPC   H8R23719   0.794   5.566   9.893  2.8246 -1.4988  2.0067
  192DOPC   H8S23720   0.778   5.743   9.876 -0.6972 -0.2225 -0.3067
  192DOPC   C2923721   0.978   5.674   9.948 -0.2189  0.3868 -0.1408
  192DOPC   H9R23722   1.043   5.762   9.937 -1.0450  1.2488  1.5194
  192DOPC  C21023723   1.017   5.583  10.039  0.1417 -0.0901  0.5296
  192DOPC  H10R23724   1.111   5.600  10.092  0.0445 -0.0878  0.7041
  192DOPC  C21123725   0.951   5.454  10.073 -0.5215  0.1070  0.0593
  192DOPC  H11R23726   1.032   5.378  10.078  0.0080  0.5325 -1.4490
  192DOPC  H11S23727   0.882   5.420   9.993 -0.2315  0.3891 -0.3198
  192DOPC  C21223728   0.876   5.458  10.207  0.5523  0.8609  0.1762
  192DOPC  H12R23729   0.844   5.352  10.217  2.9465 -0.1546 -1.8144
  192DOPC  H12S23730   0.788   5.523  10.189  0.6099  0.9525  0.2258
  192DOPC  C21323731   0.955   5.503  10.331  0.0272 -0.5612 -0.5717
  192DOPC  H13R23732   1.006   5.601  10.319 -0.5226 -0.0844  0.7922
  192DOPC  H13S23733   1.050   5.447  10.347  0.4017  0.0622 -0.5661
  192DOPC  C21423734   0.874   5.491  10.459 -0.5334 -0.5857 -0.4075
  192DOPC  H14R23735   0.857   5.382  10.474  1.4430 -1.0467 -1.2354
  192DOPC  H14S23736   0.778   5.536  10.424 -0.1327 -0.9554 -2.0219
  192DOPC  C21523737   0.940   5.558  10.581 -0.3981  0.1378 -0.4204
  192DOPC  H15R23738   0.898   5.519  10.676  1.2093 -3.3844 -0.9807
  192DOPC  H15S23739   0.926   5.668  10.584 -0.1386  0.2505 -2.0280
  192DOPC  C21623740   1.086   5.510  10.605 -0.2215 -0.3241  0.2673
  192DOPC  H16R23741   1.153   5.564  10.534 -0.7087  1.0195  0.7971
  192DOPC  H16S23742   1.094   5.400  10.591  1.7114 -0.2435  0.4848
  192DOPC  C21723743   1.139   5.535  10.749 -0.3258  0.0096  0.1109
  192DOPC  H17R23744   1.069   5.499  10.828  1.5942 -1.3908  1.2397
  192DOPC  H17S23745   1.153   5.645  10.751  3.2461 -0.1838 -3.0422
  192DOPC  C21823746   1.277   5.468  10.779  0.2285 -1.2329 -0.0883
  192DOPC  H18R23747   1.328   5.495  10.874 -0.9988  0.2125  0.1882
  192DOPC  H18S23748   1.351   5.494  10.700 -1.2715  0.9647 -0.8729
  192DOPC  H18T23749   1.263   5.358  10.785 -1.4443 -1.0646 -0.4469
  192DOPC   C3323750   0.450   5.738   9.750 -0.0568 -0.0566 -0.2029
  192DOPC   H3X23751   0.539   5.782   9.700  0.9869 -1.2895  0.5229
  192DOPC   H3Y23752   0.436   5.630   9.730 -1.0070  0.2275 -1.2345
  192DOPC   C3423753   0.456   5.751   9.904  0.1875 -0.2926 -0.6461
  192DOPC   H4X23754   0.458   5.860   9.925  1.4176 -0.3986 -0.1516
  192DOPC   H4Y23755   0.558   5.721   9.937 -0.4100 -2.7702 -0.8434
  192DOPC   C3523756   0.349   5.681   9.985  0.6200  0.0105 -0.4210
  192DOPC   H5X23757   0.338   5.578   9.945 -0.0548  0.9993 -2.9955
  192DOPC   H5Y23758   0.251   5.733   9.978  0.2649 -0.4107  1.1529
  192DOPC   C3623759   0.393   5.664  10.130 -1.1698 -0.2888 -0.3450
  192DOPC   H6X23760   0.491   5.614  10.137 -1.1582 -0.0763  1.4211
  192DOPC   H6Y23761   0.389   5.763  10.181 -2.7228 -0.8370  0.6599
  192DOPC   C3723762   0.298   5.572  10.218  0.3293  1.0357 -0.3520
  192DOPC   H7X23763   0.194   5.611  10.211 -0.4843 -1.1019 -1.0302
  192DOPC   H7Y23764   0.294   5.471  10.172  3.0569  0.5227  0.3682
  192DOPC   C3823765   0.336   5.552  10.369 -0.0690  0.3571  0.8623
  192DOPC   H8X23766   0.446   5.548  10.380  0.2054 -0.9471 -1.5626
  192DOPC   H8Y23767   0.285   5.464  10.413  0.1906  0.2429  0.9340
  192DOPC   C3923768   0.303   5.667  10.463 -0.0319  0.3199  0.0420
  192DOPC   H9X23769   0.318   5.765  10.414 -1.2202  0.3363 -0.3303
  192DOPC  C31023770   0.226   5.655  10.566 -0.0288  0.3691 -0.0905
  192DOPC  H10X23771   0.182   5.745  10.612  2.0667  2.2104 -1.5177
  192DOPC  C31123772   0.175   5.534  10.648  0.6312 -0.4215  0.2476
  192DOPC  H11X23773   0.190   5.450  10.576 -0.5559  1.1284 -1.9108
  192DOPC  H11Y23774   0.065   5.542  10.658  0.5628  2.8790 -1.7435
  192DOPC  C31223775   0.252   5.503  10.784 -0.4059 -0.1923  0.5851
  192DOPC  H12X23776   0.350   5.555  10.780  1.3272 -3.2951 -2.4638
  192DOPC  H12Y23777   0.264   5.392  10.783 -0.0274 -0.1496  0.1550
  192DOPC  C31323778   0.163   5.542  10.900  0.0081 -0.6373 -0.3996
  192DOPC  H13X23779   0.162   5.652  10.885 -0.1749 -0.9088 -2.5977
  192DOPC  H13Y23780   0.055   5.514  10.903 -0.5298  1.3356  1.1080
  192DOPC  C31423781   0.223   5.481  11.031  0.0995 -0.8930 -0.1921
  192DOPC  H14X23782   0.333   5.477  11.021  0.1032  0.0498 -0.7033
  192DOPC  H14Y23783   0.202   5.545  11.119  2.3920 -0.6171  0.1925
  192DOPC  C31523784   0.183   5.342  11.063  0.2690  0.1698 -0.0627
  192DOPC  H15X23785   0.180   5.277  10.973 -0.2310 -0.0353  0.0998
  192DOPC  H15Y23786   0.080   5.350  11.101 -0.6796 -2.9670 -1.5796
  192DOPC  C31623787   0.270   5.284  11.180  0.5571  0.6948  0.1528
  192DOPC  H16X23788   0.379   5.285  11.159  0.8604 -1.3269  1.3579
  192DOPC  H16Y23789   0.257   5.358  11.261 -2.3662  0.8592 -0.3343
  192DOPC  C31723790   0.240   5.143  11.236  0.1479 -0.3315  0.3531
  192DOPC  H17X23791   0.154   5.156  11.305 -0.0079  0.0440  0.0836
  192DOPC  H17Y23792   0.207   5.084  11.148  1.7010 -2.6658  1.2357
  192DOPC  C31823793   0.362   5.087  11.308 -0.5328 -0.2662 -0.0213
  192DOPC  H18X23794   0.439   5.066  11.230  0.6243  5.0588 -0.7382
  192DOPC  H18Y23795   0.400   5.168  11.374  1.6121 -1.4278  0.2570
  192DOPC  H18Z23796   0.337   5.005  11.378 -0.7040 -0.4827 -0.3359
  193DOPC     N23797   0.039   2.540   8.932 -0.3354  0.1705  0.1753
  193DOPC   C1223798   0.154   2.622   8.901 -0.1245 -0.7260 -0.2881
  193DOPC  H12A23799   0.141   2.717   8.950  2.2816 -1.2141  1.4982
  193DOPC  H12B23800   0.145   2.655   8.799 -1.0730 -0.3394 -0.0871
  193DOPC   C1323801   0.038   2.519   9.078 -0.1646 -0.5932  0.0823
  193DOPC  H13A23802  -0.032   2.443   9.109 -0.6055  0.7594  2.6002
  193DOPC  H13B23803   0.136   2.481   9.103 -0.7246 -2.5633 -0.5232
  193DOPC  H13C23804   0.027   2.615   9.127 -0.0818 -0.0602 -0.9045
  193DOPC   C1423805   0.046   2.412   8.851 -0.3344 -0.0816 -0.0721
  193DOPC  H14A23806  -0.036   2.343   8.860 -2.0477  1.9745  0.8483
  193DOPC  H14B23807   0.053   2.443   8.747 -0.7534  2.2413  0.5484
  193DOPC  H14C23808   0.137   2.354   8.860  0.0681  0.4525 -0.6022
  193DOPC   C1523809  -0.086   2.613   8.893 -0.6632  0.8333 -0.3654
  193DOPC  H15A23810  -0.106   2.601   8.788 -1.1198 -0.6677 -0.1294
  193DOPC  H15B23811  -0.091   2.719   8.913 -0.6315  1.4966 -3.3744
  193DOPC  H15C23812  -0.169   2.567   8.945  0.7691 -1.8799 -0.3260
  193DOPC   C1123813   0.293   2.561   8.912 -0.1224  0.0427 -0.0017
  193DOPC  H11A23814   0.306   2.467   8.855  2.2478  0.8406 -0.9162
  193DOPC  H11B23815   0.366   2.633   8.868  0.1370  0.7742  1.5517
  193DOPC     P23816   0.431   2.632   9.129  0.3194  0.0499  0.0213
  193DOPC   O1323817   0.359   2.758   9.138 -0.0007  0.7207 -0.3847
  193DOPC   O1423818   0.571   2.623   9.072 -0.0277  0.0959  0.2860
  193DOPC   O1223819   0.329   2.537   9.048  0.2218 -0.3008  0.0591
  193DOPC   O1123820   0.426   2.556   9.266  1.1645  0.0775  0.4211
  193DOPC    C123821   0.307   2.494   9.319  0.5379 -0.0725  0.5754
  193DOPC    HA23822   0.312   2.384   9.304 -0.7081 -0.0914  0.1703
  193DOPC    HB23823   0.208   2.511   9.271  0.8764  1.3667  0.3258
  193DOPC    C223824   0.288   2.519   9.468 -0.3129 -0.5039 -0.1104
  193DOPC    HS23825   0.394   2.509   9.500 -0.0998 -1.2529 -1.0101
  193DOPC   O2123826   0.207   2.406   9.516  0.3678  0.2129  0.5333
  193DOPC   C2123827   0.230   2.366   9.637 -0.1411 -0.9212 -0.2662
  193DOPC   O2223828   0.322   2.410   9.709  0.4847  0.0710 -0.2131
  193DOPC   C2223829   0.123   2.260   9.677  0.1301  0.4836 -0.4887
  193DOPC   H2R23830   0.156   2.207   9.769 -2.0888  1.5641  1.0141
  193DOPC   H2S23831   0.136   2.172   9.610  1.6958 -0.5381  1.0294
  193DOPC    C323832   0.228   2.663   9.499 -0.4896 -0.2914 -0.1301
  193DOPC    HX23833   0.121   2.663   9.468 -0.0571 -1.2497 -1.7791
  193DOPC    HY23834   0.267   2.746   9.436 -0.5313 -0.7350 -0.7506
  193DOPC   O3123835   0.231   2.693   9.637 -0.6048  0.3129  0.2909
  193DOPC   C3123836   0.352   2.730   9.689 -0.0155 -0.5447 -0.2658
  193DOPC   O3223837   0.449   2.738   9.617 -0.0716  0.2484 -0.5284
  193DOPC   C3223838   0.335   2.780   9.831  0.0445  0.4905 -0.7476
  193DOPC   H2X23839   0.267   2.867   9.823 -1.3010 -0.4347  0.1329
  193DOPC   H2Y23840   0.269   2.708   9.885  0.4259  0.6240 -0.0897
  193DOPC   C2323841  -0.015   2.315   9.705  0.2766  0.3189  0.6262
  193DOPC   H3R23842  -0.087   2.230   9.700  0.9001 -0.1929  0.2121
  193DOPC   H3S23843  -0.035   2.395   9.630  2.4980  1.2000  0.9135
  193DOPC   C2423844  -0.029   2.384   9.839 -0.0567 -0.5400 -0.0625
  193DOPC   H4R23845   0.039   2.471   9.852 -0.1466 -0.6794  1.4868
  193DOPC   H4S23846  -0.002   2.313   9.920 -1.4124  0.5652  1.4087
  193DOPC   C2523847  -0.167   2.440   9.870  0.1746 -0.2778 -0.1211
  193DOPC   H5R23848  -0.235   2.371   9.816 -0.2800  1.7123 -2.2074
  193DOPC   H5S23849  -0.185   2.541   9.827  0.0961  0.5593  1.7861
  193DOPC   C2623850  -0.199   2.436  10.023  0.6671  0.6429  0.3825
  193DOPC   H6R23851  -0.191   2.329  10.055 -1.1375  0.6574  0.9992
  193DOPC   H6S23852  -0.306   2.461  10.038 -0.2096 -2.9902  1.3892
  193DOPC   C2723853  -0.104   2.536  10.107  0.4602 -0.0846 -0.5342
  193DOPC   H7R23854  -0.096   2.638  10.064  1.6386  1.4179  2.9285
  193DOPC   H7S23855  -0.006   2.485  10.103  0.9195  0.6760  0.6328
  193DOPC   C2823856  -0.152   2.559  10.253  0.3895  0.4969 -0.0238
  193DOPC   H8R23857  -0.056   2.577  10.307  0.8310  0.6084 -0.8333
  193DOPC   H8S23858  -0.197   2.465  10.291  0.3956  0.6125  0.2773
  193DOPC   C2923859  -0.235   2.685  10.267  0.1666  0.7009  0.5014
  193DOPC   H9R23860  -0.294   2.719  10.181 -2.0956 -1.7947  0.9505
  193DOPC  C21023861  -0.250   2.753  10.386  0.2113  0.6406  0.3007
  193DOPC  H10R23862  -0.326   2.833  10.395 -1.6701 -1.0292 -0.2434
  193DOPC  C21123863  -0.180   2.712  10.509  0.4451 -0.3131  0.1272
  193DOPC  H11R23864  -0.070   2.721  10.517  0.4155  0.4577 -0.2557
  193DOPC  H11S23865  -0.187   2.602  10.525 -0.9059 -1.1111 -4.3848
  193DOPC  C21223866  -0.234   2.786  10.634 -0.1100 -0.0401  0.9335
  193DOPC  H12R23867  -0.262   2.889  10.604 -1.9030 -1.0645 -1.1522
  193DOPC  H12S23868  -0.160   2.770  10.716  1.0907  0.4074 -0.0204
  193DOPC  C21323869  -0.359   2.727  10.680  1.2283  0.1705  0.1497
  193DOPC  H13R23870  -0.347   2.626  10.726  1.7341  0.9640  1.8672
  193DOPC  H13S23871  -0.437   2.711  10.603 -0.0521  2.7993  0.7823
  193DOPC  C21423872  -0.438   2.824  10.767  0.5272  0.3217 -0.4098
  193DOPC  H14R23873  -0.536   2.774  10.788  1.1822 -1.3593 -1.2156
  193DOPC  H14S23874  -0.462   2.917  10.712  0.4676  0.4113 -0.2328
  193DOPC  C21523875  -0.369   2.860  10.906 -0.3573 -0.1160 -0.1175
  193DOPC  H15R23876  -0.421   2.951  10.943  1.0453  2.3715 -3.6786
  193DOPC  H15S23877  -0.264   2.891  10.886 -0.5668  0.3033 -0.6053
  193DOPC  C21623878  -0.360   2.745  11.015  0.2571 -0.0483  0.5437
  193DOPC  H16R23879  -0.338   2.788  11.115  0.7529 -0.5696  0.6664
  193DOPC  H16S23880  -0.288   2.664  10.991 -0.5174 -0.7311  0.4853
  193DOPC  C21723881  -0.497   2.668  11.019 -0.5878  0.2815  0.2132
  193DOPC  H17R23882  -0.504   2.595  10.936 -2.6588  0.3004  0.3154
  193DOPC  H17S23883  -0.580   2.741  11.010 -0.3922  0.7355  1.7561
  193DOPC  C21823884  -0.511   2.574  11.136  0.2207  0.0241  0.1160
  193DOPC  H18R23885  -0.444   2.487  11.119  0.2108  0.3260 -1.7319
  193DOPC  H18S23886  -0.615   2.538  11.146  0.6175 -0.9035  1.1027
  193DOPC  H18T23887  -0.494   2.620  11.235 -0.0722 -0.1722  0.2573
  193DOPC   C3323888   0.461   2.816   9.905  0.6758  0.0131 -0.8884
  193DOPC   H3X23889   0.505   2.910   9.863 -0.4725  1.7222  1.4833
  193DOPC   H3Y23890   0.544   2.743   9.898  2.1636  1.6382 -1.1669
  193DOPC   C3423891   0.423   2.852  10.053  0.3141  0.1871  0.4309
  193DOPC   H4X23892   0.348   2.786  10.103  0.8904 -0.6315  0.2426
  193DOPC   H4Y23893   0.374   2.951  10.049  1.1527  0.7055  2.1062
  193DOPC   C3523894   0.549   2.851  10.143  0.1904  0.3625 -0.2372
  193DOPC   H5X23895   0.630   2.913  10.100  0.3886 -0.0856 -0.5145
  193DOPC   H5Y23896   0.597   2.750  10.148 -1.2466 -0.3001  1.0191
  193DOPC   C3623897   0.524   2.909  10.289  0.0410 -0.2354  0.2499
  193DOPC   H6X23898   0.473   3.006  10.272 -1.6941 -1.2491 -0.6478
  193DOPC   H6Y23899   0.462   2.840  10.351 -0.4816 -0.5014 -0.5538
  193DOPC   C3723900   0.656   2.930  10.364 -0.2472 -0.1589  0.3831
  193DOPC   H7X23901   0.701   2.835  10.400 -0.3062  0.0835  1.1039
  193DOPC   H7Y23902   0.726   2.979  10.294  0.4823 -2.3339 -0.5061
  193DOPC   C3823903   0.648   3.023  10.488 -0.7620  0.4601 -0.3274
  193DOPC   H8X23904   0.595   3.113  10.450 -0.5008 -0.2024 -2.3779
  193DOPC   H8Y23905   0.745   3.043  10.539 -1.3408 -0.7357  1.3551
  193DOPC   C3923906   0.562   2.955  10.581  0.0993  0.9728 -0.3159
  193DOPC   H9X23907   0.528   2.857  10.543 -0.3317  1.4779 -1.2727
  193DOPC  C31023908   0.529   3.007  10.699 -0.4722  0.7071 -0.4318
  193DOPC  H10X23909   0.472   2.953  10.776 -0.3617  0.9592 -0.1722
  193DOPC  C31123910   0.587   3.141  10.745  0.0157  1.0860 -0.9690
  193DOPC  H11X23911   0.503   3.203  10.783 -0.9599 -0.4427 -0.5690
  193DOPC  H11Y23912   0.636   3.204  10.667  0.2760  2.7708  0.4883
  193DOPC  C31223913   0.687   3.114  10.858 -0.7456  1.1290  0.2451
  193DOPC  H12X23914   0.727   3.207  10.904  0.0806  0.7642  0.2840
  193DOPC  H12Y23915   0.775   3.058  10.821 -2.1520  0.6295 -2.5990
  193DOPC  C31323916   0.629   3.025  10.974 -0.6726 -0.7265  0.1255
  193DOPC  H13X23917   0.524   3.061  10.980 -0.3377  0.3150 -0.0363
  193DOPC  H13Y23918   0.642   2.920  10.941 -0.6619 -0.7414  0.1779
  193DOPC  C31423919   0.700   3.054  11.111 -0.4397 -0.1475 -0.0223
  193DOPC  H14X23920   0.792   2.992  11.111  1.5096  2.5622 -0.3123
  193DOPC  H14Y23921   0.734   3.159  11.108  1.2633 -0.6747 -2.2465
  193DOPC  C31523922   0.602   3.036  11.229 -0.5584  0.0313 -0.1411
  193DOPC  H15X23923   0.518   2.968  11.203 -1.3402  0.9034  0.0608
  193DOPC  H15Y23924   0.556   3.136  11.243 -1.7973 -0.7101  1.5389
  193DOPC  C31623925   0.665   3.011  11.362  0.7036  0.4569  0.1967
  193DOPC  H16X23926   0.586   3.021  11.439  0.5989  0.4883  0.0847
  193DOPC  H16Y23927   0.700   2.905  11.364 -1.1066 -0.2090 -0.8265
  193DOPC  C31723928   0.780   3.103  11.388  0.0222 -0.8065 -0.8366
  193DOPC  H17X23929   0.839   3.040  11.458 -1.6931  0.9462  2.4501
  193DOPC  H17Y23930   0.842   3.122  11.298  1.3567 -1.1293 -0.0006
  193DOPC  C31823931   0.748   3.236  11.457 -0.6360  0.0938  0.1066
  193DOPC  H18X23932   0.838   3.295  11.486 -0.8393  1.2556 -1.4472
  193DOPC  H18Y23933   0.695   3.289  11.375 -0.6811 -0.9795 -0.5702
  193DOPC  H18Z23934   0.676   3.212  11.538  0.4893 -0.6108  0.9268
  194DOPC     N23935   1.952   1.118   8.954 -0.2287  0.8753 -0.1399
  194DOPC   C1223936   1.968   1.084   9.103  0.1305  0.4151  0.1327
  194DOPC  H12A23937   2.048   1.011   9.101  1.0044  1.3448 -1.5959
  194DOPC  H12B23938   1.871   1.052   9.139 -0.0899  0.2846 -0.5567
  194DOPC   C1323939   1.846   1.220   8.940 -0.6473 -0.4402  0.4066
  194DOPC  H13A23940   1.839   1.261   8.841 -1.0084  0.9759  0.9921
  194DOPC  H13B23941   1.752   1.177   8.970 -1.0053 -1.3904 -1.9160
  194DOPC  H13C23942   1.864   1.304   9.006  1.4380 -0.2434 -0.3371
  194DOPC   C1423943   1.921   1.001   8.873  0.1955 -0.3198  0.3797
  194DOPC  H14A23944   2.008   0.976   8.815 -0.4270 -0.4621 -0.5188
  194DOPC  H14B23945   1.901   0.926   8.948 -3.3503  1.9247  1.9693
  194DOPC  H14C23946   1.839   1.012   8.803 -0.8375 -0.3284  1.5658
  194DOPC   C1523947   2.084   1.171   8.898  0.0764 -0.0597  0.4035
  194DOPC  H15A23948   2.080   1.205   8.796  2.7846  1.0775  0.5950
  194DOPC  H15B23949   2.169   1.105   8.909 -0.7369 -1.5970 -1.8232
  194DOPC  H15C23950   2.117   1.263   8.944  0.7012 -0.1652  0.1717
  194DOPC   C1123951   2.022   1.198   9.195  0.2221  0.7358 -0.2975
  194DOPC  H11A23952   2.045   1.150   9.293  1.7005  0.8736 -0.5494
  194DOPC  H11B23953   2.123   1.230   9.161  0.9325 -0.1919  0.8585
  194DOPC     P23954   1.797   1.284   9.287  0.3174  0.3088  0.4732
  194DOPC   O1323955   1.792   1.146   9.337 -0.3074 -0.1044 -0.5977
  194DOPC   O1423956   1.695   1.332   9.193  0.2330 -0.4386 -0.1317
  194DOPC   O1223957   1.933   1.307   9.207 -0.3341 -0.3557 -0.0409
  194DOPC   O1123958   1.821   1.382   9.408  0.3614 -0.0459  0.0391
  194DOPC    C123959   1.868   1.350   9.541  0.4338  0.5279  0.5078
  194DOPC    HA23960   1.970   1.311   9.524 -0.1832  0.0293 -2.9172
  194DOPC    HB23961   1.797   1.270   9.573 -0.2045  0.5614 -0.7436
  194DOPC    C223962   1.857   1.475   9.632  0.1559  0.5603  0.2317
  194DOPC    HS23963   1.757   1.522   9.625  0.0709  0.4041  0.3727
  194DOPC   O2123964   1.961   1.567   9.593 -0.5557  0.0891  0.3996
  194DOPC   C2123965   1.925   1.689   9.612 -0.8179  0.2819 -0.3000
  194DOPC   O2223966   1.813   1.729   9.648 -0.1058 -0.5985 -0.6202
  194DOPC   C2223967   2.056   1.773   9.600  0.1153 -0.7245 -0.4736
  194DOPC   H2R23968   2.053   1.843   9.514  0.4648  0.4020  0.3973
  194DOPC   H2S23969   2.152   1.717   9.613  0.0800 -0.2191  2.8353
  194DOPC    C323970   1.862   1.439   9.784 -0.3734 -0.4829  0.2662
  194DOPC    HX23971   1.973   1.431   9.794 -0.1828  2.8323  2.4808
  194DOPC    HY23972   1.802   1.348   9.805  0.1105 -1.2314 -1.4021
  194DOPC   O3123973   1.817   1.550   9.866 -0.0816 -0.0287  0.4386
  194DOPC   C3123974   1.684   1.576   9.872  0.1094  0.2446  0.0308
  194DOPC   O3223975   1.600   1.507   9.815  0.1564 -1.0432  0.3509
  194DOPC   C3223976   1.667   1.695   9.963  0.2680 -0.0729 -0.1527
  194DOPC   H2X23977   1.705   1.785   9.909  0.3668  0.8167  1.3331
  194DOPC   H2Y23978   1.557   1.710   9.968  0.5702  3.3262 -0.9227
  194DOPC   C2323979   2.053   1.880   9.720  0.3198  1.2020 -1.1415
  194DOPC   H3R23980   1.958   1.937   9.711  1.3782  3.1053 -0.5372
  194DOPC   H3S23981   2.138   1.950   9.707  0.0544  1.4512 -1.5610
  194DOPC   C2423982   2.083   1.813   9.857 -0.1067  0.1919 -0.2196
  194DOPC   H4R23983   2.189   1.781   9.865 -0.6003 -1.8141 -1.2000
  194DOPC   H4S23984   2.024   1.719   9.864 -0.3421  0.3533  0.0007
  194DOPC   C2523985   2.055   1.888   9.986  0.0513 -0.0251  0.7254
  194DOPC   H5R23986   2.072   1.817  10.070 -1.2604 -0.2641  0.8144
  194DOPC   H5S23987   1.949   1.920   9.999  0.1634  0.3359  0.7572
  194DOPC   C2623988   2.139   2.008  10.013 -0.2280 -0.0266 -1.0768
  194DOPC   H6R23989   2.108   2.085   9.939 -1.1895  0.0214 -0.6390
  194DOPC   H6S23990   2.244   1.980   9.990  0.7036  1.6202  0.7702
  194DOPC   C2723991   2.126   2.064  10.156 -0.3054 -0.4518 -0.1236
  194DOPC   H7R23992   2.020   2.061  10.192  0.2698 -1.9207  1.6277
  194DOPC   H7S23993   2.150   2.172  10.154  0.3979 -0.5909 -3.0252
  194DOPC   C2823994   2.220   1.999  10.260  0.6186 -0.2625 -0.5702
  194DOPC   H8R23995   2.323   1.984  10.221  0.2716  1.1630 -2.1371
  194DOPC   H8S23996   2.175   1.899  10.277  1.7354 -0.3787  2.2977
  194DOPC   C2923997   2.204   2.082  10.393 -0.0588 -0.0403 -0.2997
  194DOPC   H9R23998   2.240   2.186  10.392  0.4965 -0.2099  0.8517
  194DOPC  C21023999   2.147   2.031  10.504  0.1566  0.6049 -0.5071
  194DOPC  H10R24000   2.143   2.095  10.594  0.9710  0.5388 -0.4103
  194DOPC  C21124001   2.095   1.896  10.522  0.6437  0.5060 -0.1305
  194DOPC  H11R24002   2.173   1.817  10.525  0.5677  0.4154 -0.4937
  194DOPC  H11S24003   2.030   1.873  10.435 -0.6743  2.2233  0.3371
  194DOPC  C21224004   2.011   1.874  10.642  0.7437 -0.0154 -0.1746
  194DOPC  H12R24005   1.961   1.774  10.639  0.9699 -0.2670  2.3520
  194DOPC  H12S24006   1.920   1.937  10.632  0.2812 -0.4777  0.9149
  194DOPC  C21324007   2.084   1.872  10.778 -0.2244 -0.2550 -0.2932
  194DOPC  H13R24008   2.156   1.957  10.774 -1.6911  1.1715  1.6140
  194DOPC  H13S24009   2.132   1.779  10.814  1.0015  0.2011 -0.6994
  194DOPC  C21424010   1.986   1.909  10.894 -0.4815  0.0050 -0.0051
  194DOPC  H14R24011   1.931   2.001  10.865 -0.4092 -0.3082 -1.1855
  194DOPC  H14S24012   2.041   1.935  10.987 -0.4928 -0.0721  0.0234
  194DOPC  C21524013   1.870   1.813  10.913 -0.1478 -0.1293  0.3451
  194DOPC  H15R24014   1.827   1.789  10.813 -0.2243 -0.7259  0.5229
  194DOPC  H15S24015   1.789   1.850  10.979 -0.0375 -1.6296  1.3460
  194DOPC  C21624016   1.922   1.684  10.974 -0.0739  0.8640  0.1663
  194DOPC  H16R24017   2.006   1.700  11.044 -1.5811 -1.4438  2.6870
  194DOPC  H16S24018   1.956   1.621  10.889 -4.0574 -1.7846  0.2973
  194DOPC  C21724019   1.818   1.605  11.059 -0.4581 -0.0860  0.0386
  194DOPC  H17R24020   1.794   1.671  11.146  1.2061  0.1630  0.3406
  194DOPC  H17S24021   1.873   1.515  11.094 -1.1481 -0.3460  0.4783
  194DOPC  C21824022   1.698   1.562  10.978  0.1884  0.1333 -0.6717
  194DOPC  H18R24023   1.649   1.474  11.026  1.4983 -0.4900 -0.4359
  194DOPC  H18S24024   1.722   1.505  10.886 -2.3671 -0.8880 -0.8006
  194DOPC  H18T24025   1.629   1.646  10.954  2.0207  1.7445 -0.4835
  194DOPC   C3324026   1.729   1.668  10.105  0.1984  0.9388  0.7392
  194DOPC   H3X24027   1.839   1.653  10.102  0.1779  0.7051  1.1631
  194DOPC   H3Y24028   1.692   1.573  10.149  1.0949  0.5036  0.5789
  194DOPC   C3424029   1.699   1.780  10.206  0.6630 -0.5576 -0.2747
  194DOPC   H4X24030   1.590   1.793  10.216  0.8582  0.5788  0.4829
  194DOPC   H4Y24031   1.757   1.871  10.179  0.0549 -0.3483 -0.9002
  194DOPC   C3524032   1.737   1.751  10.353  0.5077 -0.0049  0.2530
  194DOPC   H5X24033   1.688   1.832  10.411  1.6237 -0.3431  1.7390
  194DOPC   H5Y24034   1.848   1.762  10.348  0.5056  1.3703  2.3245
  194DOPC   C3624035   1.688   1.610  10.393  0.9204  0.0385 -0.4014
  194DOPC   H6X24036   1.586   1.600  10.351  0.0177  2.2652  1.1006
  194DOPC   H6Y24037   1.759   1.542  10.342  0.6178 -0.2320 -0.4666
  194DOPC   C3724038   1.675   1.581  10.546 -0.0667 -0.1604 -0.0455
  194DOPC   H7X24039   1.638   1.476  10.545  0.1224 -0.2275 -0.2161
  194DOPC   H7Y24040   1.775   1.591  10.592  1.4800 -1.0706 -2.9117
  194DOPC   C3824041   1.572   1.678  10.607  0.0395  0.4411  0.3391
  194DOPC   H8X24042   1.597   1.784  10.587  0.2624  0.3395  0.0759
  194DOPC   H8Y24043   1.588   1.666  10.716  1.3899 -0.3064  0.0808
  194DOPC   C3924044   1.430   1.635  10.579  0.0995 -0.1742  0.3727
  194DOPC   H9X24045   1.412   1.530  10.608 -1.2946 -0.7037 -2.1763
  194DOPC  C31024046   1.336   1.704  10.510  0.1954  0.2025  0.8864
  194DOPC  H10X24047   1.236   1.659  10.503  0.3339 -0.2157  1.5450
  194DOPC  C31124048   1.336   1.851  10.467 -0.6264  0.6127  0.6670
  194DOPC  H11X24049   1.340   1.840  10.357 -1.8328 -1.2441  0.7522
  194DOPC  H11Y24050   1.428   1.903  10.501 -0.8671  1.1806  0.4567
  194DOPC  C31224051   1.220   1.937  10.511  0.6086  0.0794  0.2482
  194DOPC  H12X24052   1.136   1.870  10.482  0.7659 -0.7977  1.7097
  194DOPC  H12Y24053   1.211   2.031  10.453  1.8301  0.5216  0.7361
  194DOPC  C31324054   1.218   1.988  10.654 -0.6522 -0.1671  0.0320
  194DOPC  H13X24055   1.311   2.043  10.677  0.0301 -0.7866 -1.1553
  194DOPC  H13Y24056   1.131   2.056  10.671 -1.4019 -0.8437 -0.9538
  194DOPC  C31424057   1.191   1.874  10.754  0.0259  0.5400 -0.3283
  194DOPC  H14X24058   1.123   1.795  10.717 -0.3583  0.0271  1.3506
  194DOPC  H14Y24059   1.287   1.824  10.779 -0.8281 -0.1810  1.7779
  194DOPC  C31524060   1.105   1.920  10.878 -0.7522 -0.8053  0.0639
  194DOPC  H15X24061   1.043   2.011  10.862 -0.5022 -0.7429 -0.6002
  194DOPC  H15Y24062   1.167   1.932  10.970 -1.9428  1.5095  0.6379
  194DOPC  C31624063   1.003   1.813  10.926  0.7120  0.4510 -0.0976
  194DOPC  H16X24064   1.051   1.715  10.905 -1.6228 -0.4933 -1.4911
  194DOPC  H16Y24065   0.971   1.821  11.032  1.8589 -0.8287  0.3672
  194DOPC  C31724066   0.872   1.816  10.835  0.0961 -0.7328  0.3420
  194DOPC  H17X24067   0.910   1.845  10.735  2.2636  1.8334  1.7579
  194DOPC  H17Y24068   0.828   1.714  10.832 -0.7990 -0.4057  1.7452
  194DOPC  C31824069   0.765   1.913  10.899 -0.0347  0.2157  0.1986
  194DOPC  H18X24070   0.670   1.898  10.842  1.0957 -2.5637 -1.1546
  194DOPC  H18Y24071   0.743   1.902  11.007  2.7156 -1.5840  0.6840
  194DOPC  H18Z24072   0.804   2.016  10.888 -0.1789  0.1695 -0.9366
  195DOPC     N24073   5.313   2.197   8.893 -0.4642  0.0504 -0.2534
  195DOPC   C1224074   5.394   2.076   8.918 -0.1065 -0.3047  0.1518
  195DOPC  H12A24075   5.334   1.996   8.958  2.6848 -3.3810 -1.3398
  195DOPC  H12B24076   5.465   2.093   8.997  0.2442  0.5024 -0.3296
  195DOPC   C1324077   5.208   2.172   8.787 -0.0081  0.2520 -0.5215
  195DOPC  H13A24078   5.163   2.074   8.798 -0.5521  0.4430 -0.9715
  195DOPC  H13B24079   5.129   2.246   8.784 -0.4357 -0.0982  1.0550
  195DOPC  H13C24080   5.257   2.152   8.693  1.8023 -1.5912  0.7186
  195DOPC   C1424081   5.400   2.310   8.848 -0.1651  0.5914  0.0783
  195DOPC  H14A24082   5.347   2.392   8.803 -2.2572 -0.9177 -0.3354
  195DOPC  H14B24083   5.455   2.355   8.930  0.2489  0.9224 -0.3807
  195DOPC  H14C24084   5.480   2.279   8.782  2.1428  1.8529  2.1000
  195DOPC   C1524085   5.240   2.229   9.015 -0.1137 -0.4946  0.2678
  195DOPC  H15A24086   5.163   2.162   9.049 -1.9597  0.7726 -1.1981
  195DOPC  H15B24087   5.190   2.323   8.997  1.2856 -0.1001 -1.9468
  195DOPC  H15C24088   5.313   2.237   9.095  1.7959  2.6640 -1.5824
  195DOPC   C1124089   5.473   2.016   8.801 -0.3303  0.4540  0.3933
  195DOPC  H11A24090   5.516   1.916   8.825  0.1714  0.3118 -0.9710
  195DOPC  H11B24091   5.402   1.992   8.719 -0.7668  0.5296  0.7478
  195DOPC     P24092   5.725   2.108   8.822 -0.5552  0.1987 -0.0190
  195DOPC   O1324093   5.758   2.256   8.828 -0.2823 -0.7884 -0.2463
  195DOPC   O1424094   5.811   2.020   8.747  0.6906  0.3054  0.7603
  195DOPC   O1224095   5.583   2.097   8.749  1.4006  0.4048 -0.0414
  195DOPC   O1124096   5.703   2.056   8.970  0.5724  0.6351  0.0352
  195DOPC    C124097   5.717   1.913   9.005  0.1032  0.1530 -0.0123
  195DOPC    HA24098   5.823   1.881   8.995  0.1879  0.6256 -0.7334
  195DOPC    HB24099   5.666   1.847   8.932  1.2628  0.4726 -1.1585
  195DOPC    C224100   5.669   1.882   9.145  0.3034  0.3463 -0.0784
  195DOPC    HS24101   5.565   1.921   9.152 -0.4780 -0.8489 -3.3310
  195DOPC   O2124102   5.755   1.951   9.229  0.3334  0.0477 -0.2579
  195DOPC   C2124103   5.712   1.977   9.350  0.3847 -1.2813  0.5464
  195DOPC   O2224104   5.600   1.955   9.397 -0.3624  0.3440  0.1802
  195DOPC   C2224105   5.824   2.043   9.428 -0.2514  0.6213  0.3230
  195DOPC   H2R24106   5.795   2.144   9.464 -3.6703 -0.0827 -0.1274
  195DOPC   H2S24107   5.902   2.059   9.351  0.1509 -1.4873  0.2349
  195DOPC    C324108   5.662   1.728   9.178  0.2247 -0.8363  0.2023
  195DOPC    HX24109   5.753   1.679   9.136  1.0204  1.4123 -0.8302
  195DOPC    HY24110   5.581   1.687   9.114 -0.0380  1.8905 -1.3680
  195DOPC   O3124111   5.657   1.702   9.321  0.3521 -0.5265 -0.4860
  195DOPC   C3124112   5.532   1.674   9.371  0.2783 -0.5967  0.1086
  195DOPC   O3224113   5.430   1.691   9.306  0.3873 -0.4766  0.3131
  195DOPC   C3224114   5.535   1.607   9.505 -0.2624 -0.2744  0.2087
  195DOPC   H2X24115   5.572   1.504   9.483 -2.4519 -1.4353  1.5227
  195DOPC   H2Y24116   5.601   1.668   9.570 -2.2677  3.3577 -0.9274
  195DOPC   C2324117   5.890   1.957   9.544 -0.0016 -0.0589  0.1056
  195DOPC   H3R24118   5.933   1.863   9.503  1.6991 -0.8586  3.4057
  195DOPC   H3S24119   5.801   1.926   9.603  0.4541 -0.6510  0.4916
  195DOPC   C2424120   5.969   2.042   9.637  0.1059 -0.0483  0.4070
  195DOPC   H4R24121   5.925   2.142   9.649  0.5187  0.4813 -1.9252
  195DOPC   H4S24122   6.071   2.059   9.595 -0.5806  1.4454 -0.7436
  195DOPC   C2524123   5.984   1.966   9.770  0.3680 -0.0008  0.6318
  195DOPC   H5R24124   6.004   1.859   9.751  0.6358  0.2901 -0.9231
  195DOPC   H5S24125   5.885   1.979   9.818 -0.1428 -1.1458 -0.0652
  195DOPC   C2624126   6.092   2.023   9.866  0.4284 -0.2378 -0.1796
  195DOPC   H6R24127   6.072   1.955   9.952 -0.1226 -0.6639 -0.6335
  195DOPC   H6S24128   6.063   2.122   9.909  0.7258  0.5221 -1.6663
  195DOPC   C2724129   6.232   2.029   9.815  0.1323  0.1708  0.2824
  195DOPC   H7R24130   6.238   2.117   9.747 -1.6940  1.2771  1.4588
  195DOPC   H7S24131   6.262   1.938   9.758 -0.7176  0.6525 -0.9942
  195DOPC   C2824132   6.338   2.058   9.924  0.8878 -0.3128  0.1788
  195DOPC   H8R24133   6.286   2.131   9.990 -0.7315 -1.3787  0.1543
  195DOPC   H8S24134   6.431   2.100   9.882  3.1816 -1.5576  3.5701
  195DOPC   C2924135   6.375   1.936   9.993  0.4893  0.2385  0.0018
  195DOPC   H9R24136   6.400   1.848   9.933 -2.0294 -1.3819  1.1522
  195DOPC  C21024137   6.387   1.918  10.126 -0.0174 -0.6592  0.2179
  195DOPC  H10R24138   6.429   1.824  10.166 -0.2799 -0.2710  1.4366
  195DOPC  C21124139   6.373   2.027  10.233  0.1402  0.3738  0.7209
  195DOPC  H11R24140   6.332   1.986  10.328  0.2823 -0.2280  0.5267
  195DOPC  H11S24141   6.302   2.101  10.191 -2.4057 -2.5538 -0.6022
  195DOPC  C21224142   6.507   2.084  10.286  0.1020  0.7459  0.3348
  195DOPC  H12R24143   6.557   2.125  10.196 -0.4519  0.4067 -0.1318
  195DOPC  H12S24144   6.578   2.003  10.314  0.7647  0.7243 -1.2769
  195DOPC  C21324145   6.480   2.187  10.388 -0.1541 -0.1470  0.0733
  195DOPC  H13R24146   6.414   2.146  10.467  0.1311 -0.3511  0.2072
  195DOPC  H13S24147   6.430   2.277  10.347 -1.3051 -0.6808  0.2694
  195DOPC  C21424148   6.603   2.242  10.455 -0.8510  0.0745 -0.5007
  195DOPC  H14R24149   6.613   2.352  10.445 -0.2023  0.1884  1.0543
  195DOPC  H14S24150   6.691   2.196  10.407 -0.5396  0.6339 -0.4751
  195DOPC  C21524151   6.619   2.215  10.606 -0.1419 -0.5512  0.2632
  195DOPC  H15R24152   6.723   2.235  10.640  1.0499  0.8003 -3.6889
  195DOPC  H15S24153   6.598   2.107  10.623  0.9355 -1.1947 -2.1465
  195DOPC  C21624154   6.528   2.308  10.687 -0.0100  0.2351  0.3246
  195DOPC  H16R24155   6.421   2.279  10.680  0.4241 -1.9066  1.6172
  195DOPC  H16S24156   6.551   2.407  10.642  0.4616 -0.6250 -1.4279
  195DOPC  C21724157   6.571   2.316  10.829  0.1938 -0.2794  0.1383
  195DOPC  H17R24158   6.665   2.374  10.839 -0.8904  1.2311  2.1080
  195DOPC  H17S24159   6.600   2.216  10.867 -0.0776 -0.7913 -0.9465
  195DOPC  C21824160   6.467   2.377  10.925  1.2205 -0.7743 -0.0515
  195DOPC  H18R24161   6.441   2.480  10.893  0.4982 -0.7219  0.6821
  195DOPC  H18S24162   6.510   2.390  11.026 -0.6725  0.4026  0.6557
  195DOPC  H18T24163   6.375   2.315  10.934  1.5933 -1.6828 -1.9799
  195DOPC   C3324164   5.390   1.593   9.567  0.2621  0.2775 -0.2424
  195DOPC   H3X24165   5.331   1.544   9.487  0.7933 -1.3577  0.3345
  195DOPC   H3Y24166   5.349   1.693   9.591  1.4346  1.5036 -2.9279
  195DOPC   C3424167   5.390   1.501   9.689 -0.3684  0.1795 -0.0944
  195DOPC   H4X24168   5.408   1.401   9.643  0.0745  0.9180 -1.5954
  195DOPC   H4Y24169   5.286   1.491   9.725  0.3482 -0.8333  1.8087
  195DOPC   C3524170   5.492   1.536   9.800 -0.2316  0.1048 -0.3912
  195DOPC   H5X24171   5.548   1.632   9.787  2.0441 -0.6974  2.3007
  195DOPC   H5Y24172   5.567   1.455   9.793 -1.0096 -0.6384 -0.3169
  195DOPC   C3624173   5.440   1.537   9.939 -0.0277  0.0816 -0.7127
  195DOPC   H6X24174   5.369   1.623   9.944  2.3107  2.0721  0.9572
  195DOPC   H6Y24175   5.389   1.442   9.963  1.0191 -0.0249  1.3240
  195DOPC   C3724176   5.541   1.559  10.044 -0.2245 -0.4788  0.6265
  195DOPC   H7X24177   5.603   1.468  10.062  0.3205  0.2586  2.7626
  195DOPC   H7Y24178   5.609   1.641  10.016  1.5224 -3.0240 -3.4585
  195DOPC   C3824179   5.473   1.569  10.182  0.0738 -0.5506 -1.0766
  195DOPC   H8X24180   5.413   1.478  10.201 -0.0682 -0.2979 -0.2665
  195DOPC   H8Y24181   5.403   1.655  10.172 -2.1199 -2.0775  0.3795
  195DOPC   C3924182   5.586   1.571  10.283  0.2358 -0.2512 -0.4694
  195DOPC   H9X24183   5.676   1.625  10.251 -0.3640  1.0866  0.0182
  195DOPC  C31024184   5.572   1.534  10.410  0.0321 -0.0090  0.2197
  195DOPC  H10X24185   5.666   1.527  10.468  1.5988  0.0845 -2.1723
  195DOPC  C31124186   5.451   1.496  10.492  0.5311 -0.8529  0.1731
  195DOPC  H11X24187   5.415   1.397  10.455 -1.3015 -0.1975  0.0582
  195DOPC  H11Y24188   5.369   1.566  10.464  1.0490 -0.4104 -0.2472
  195DOPC  C31224189   5.473   1.508  10.643  0.6688 -0.4250  0.8028
  195DOPC  H12X24190   5.552   1.434  10.670  0.1672 -1.5486 -0.6242
  195DOPC  H12Y24191   5.379   1.475  10.692 -1.7324  3.6944 -0.5695
  195DOPC  C31324192   5.491   1.644  10.690  0.5039 -0.5801 -0.4533
  195DOPC  H13X24193   5.596   1.677  10.673  0.3158  0.3397  0.0624
  195DOPC  H13Y24194   5.424   1.706  10.626  0.5042 -1.3018 -1.1676
  195DOPC  C31424195   5.465   1.684  10.835  0.1746  0.1230 -0.0724
  195DOPC  H14X24196   5.473   1.792  10.862 -3.7346  0.2181  1.2765
  195DOPC  H14Y24197   5.357   1.658  10.842  0.3407 -0.7070 -0.4711
  195DOPC  C31524198   5.552   1.595  10.931 -0.7643 -0.1481  0.3333
  195DOPC  H15X24199   5.656   1.633  10.917  0.2221 -3.1445 -1.3443
  195DOPC  H15Y24200   5.549   1.490  10.897  0.0356  0.5508 -2.0741
  195DOPC  C31624201   5.506   1.624  11.079  0.1585 -0.7918  0.8333
  195DOPC  H16X24202   5.487   1.734  11.082 -0.2570 -0.7431 -1.4630
  195DOPC  H16Y24203   5.405   1.581  11.096 -1.6144  2.3307 -0.7903
  195DOPC  C31724204   5.610   1.578  11.178  0.6603  0.0199 -0.5618
  195DOPC  H17X24205   5.708   1.625  11.157  0.2531  1.5452  0.7872
  195DOPC  H17Y24206   5.592   1.609  11.283  1.1627 -1.9089  0.1338
  195DOPC  C31824207   5.621   1.427  11.189  0.7362  0.1921  0.8087
  195DOPC  H18X24208   5.692   1.392  11.267  0.9071 -2.8532 -0.5457
  195DOPC  H18Y24209   5.523   1.375  11.186 -1.4616  4.0232  0.2885
  195DOPC  H18Z24210   5.680   1.398  11.099  0.3363 -0.3439  0.7104
  196DOPC     N24211   0.523   3.212   8.863 -0.4390 -0.3946  0.8313
  196DOPC   C1224212   0.552   3.359   8.897  0.0352  0.5855 -0.0662
  196DOPC  H12A24213   0.454   3.402   8.908 -1.2270 -1.9869 -0.5577
  196DOPC  H12B24214   0.590   3.410   8.810  1.9797 -0.2663  0.2173
  196DOPC   C1324215   0.642   3.129   8.837 -0.0781  0.2373 -0.1126
  196DOPC  H13A24216   0.711   3.149   8.917 -1.1158  0.2833  0.7883
  196DOPC  H13B24217   0.617   3.024   8.828 -2.9428  0.9171 -1.5597
  196DOPC  H13C24218   0.699   3.155   8.749 -3.0814  1.0704 -1.9762
  196DOPC   C1424219   0.445   3.211   8.740  0.7621  0.1667 -0.2517
  196DOPC  H14A24220   0.489   3.254   8.651 -0.6388  0.4403 -0.8389
  196DOPC  H14B24221   0.416   3.109   8.724 -0.0767  0.0456  1.7313
  196DOPC  H14C24222   0.356   3.270   8.756  1.5859  0.7561  2.7698
  196DOPC   C1524223   0.446   3.143   8.974 -0.5667 -0.5799  0.4914
  196DOPC  H15A24224   0.424   3.042   8.944 -0.1579 -0.9123  1.2698
  196DOPC  H15B24225   0.351   3.194   8.983 -0.3753 -0.3052  1.0291
  196DOPC  H15C24226   0.499   3.146   9.068  1.5210  2.6030 -0.6301
  196DOPC   C1124227   0.656   3.392   9.008  0.0718  0.0913  0.5335
  196DOPC  H11A24228   0.673   3.500   9.028 -0.6075  0.5988 -1.3670
  196DOPC  H11B24229   0.616   3.342   9.098  1.0069 -2.8067 -0.5274
  196DOPC     P24230   0.904   3.366   9.074  0.3632  0.5988 -0.7592
  196DOPC   O1324231   0.921   3.515   9.070 -0.3737  0.2851 -0.1622
  196DOPC   O1424232   1.009   3.274   9.024 -0.2997 -0.0458  0.0532
  196DOPC   O1224233   0.776   3.331   8.988  0.3413  0.3687  0.6019
  196DOPC   O1124234   0.865   3.300   9.217  0.2765 -0.3685 -0.2639
  196DOPC    C124235   0.788   3.180   9.234  0.0161 -0.1533  0.1226
  196DOPC    HA24236   0.808   3.105   9.154 -1.1041 -0.0771 -0.2483
  196DOPC    HB24237   0.679   3.201   9.239  0.1793  0.8925 -0.2838
  196DOPC    C224238   0.824   3.117   9.368 -0.2665 -0.3588 -0.0438
  196DOPC    HS24239   0.772   3.019   9.372  1.4425 -1.3001  0.1403
  196DOPC   O2124240   0.776   3.205   9.474 -0.5483  0.3047 -0.4835
  196DOPC   C2124241   0.740   3.148   9.580 -0.3115 -0.5907  0.2886
  196DOPC   O2224242   0.717   3.030   9.594 -0.1139  0.0656 -0.1978
  196DOPC   C2224243   0.706   3.252   9.680  0.8103 -0.2283 -0.4395
  196DOPC   H2R24244   0.597   3.263   9.663  0.8863  1.2421 -0.1389
  196DOPC   H2S24245   0.752   3.346   9.640  1.1356  1.0300  2.6226
  196DOPC    C324246   0.980   3.103   9.383  0.8005  0.2910 -0.3385
  196DOPC    HX24247   1.021   3.202   9.351  2.0184 -1.0504 -3.3790
  196DOPC    HY24248   1.005   3.034   9.299  1.4779  0.9844 -0.7258
  196DOPC   O3124249   1.029   3.072   9.509 -0.6151  0.8259 -0.7292
  196DOPC   C3124250   1.160   3.084   9.528  0.7674 -0.1519 -0.0218
  196DOPC   O3224251   1.234   3.108   9.430  0.5285  0.7218  0.2386
  196DOPC   C3224252   1.200   3.061   9.671  0.7691 -0.3666 -0.0624
  196DOPC   H2X24253   1.163   3.148   9.730 -1.2203 -1.5082  0.4536
  196DOPC   H2Y24254   1.156   2.965   9.704  1.7459 -1.5439 -1.9882
  196DOPC   C2324255   0.738   3.220   9.824 -0.0979 -0.2849 -0.3727
  196DOPC   H3R24256   0.671   3.135   9.849  2.0029 -1.4327  1.8386
  196DOPC   H3S24257   0.691   3.299   9.886 -1.4380  0.2540 -1.9960
  196DOPC   C2424258   0.882   3.189   9.857  0.2336  0.0429  0.0820
  196DOPC   H4R24259   0.945   3.280   9.865 -0.7036  0.8389 -1.1818
  196DOPC   H4S24260   0.933   3.119   9.786  0.3363  0.6465 -0.4458
  196DOPC   C2524261   0.886   3.113   9.991 -0.2089  0.2703 -0.6273
  196DOPC   H5R24262   0.796   3.052  10.013  1.1257 -1.8260 -0.6365
  196DOPC   H5S24263   0.896   3.194  10.066  1.3464  0.5133 -1.0537
  196DOPC   C2624264   1.015   3.026   9.992  0.4044 -0.0933 -0.4428
  196DOPC   H6R24265   1.102   3.094   9.980  1.2985 -1.3504 -1.4059
  196DOPC   H6S24266   1.011   2.973   9.894  2.6445  0.0768 -0.6879
  196DOPC   C2724267   1.008   2.920  10.099  0.0002  0.2839 -0.6719
  196DOPC   H7R24268   1.096   2.858  10.071  0.1896  0.9018 -1.4570
  196DOPC   H7S24269   0.914   2.862  10.091  0.2004  0.2186 -3.5660
  196DOPC   C2824270   1.034   2.982  10.242 -0.3473  0.3155 -0.0302
  196DOPC   H8R24271   0.979   2.924  10.319  1.2206  0.8189  1.5437
  196DOPC   H8S24272   0.967   3.070  10.242  0.3665  0.8701  0.0727
  196DOPC   C2924273   1.175   3.015  10.274  0.0657  0.2379 -0.4062
  196DOPC   H9R24274   1.241   3.045  10.192  0.9010 -0.1984  0.0884
  196DOPC  C21024275   1.236   3.011  10.401  0.5100 -0.1624  1.1408
  196DOPC  H10R24276   1.336   3.055  10.409  1.8086 -2.7950  0.5076
  196DOPC  C21124277   1.166   2.973  10.532  0.9382 -0.1170 -1.0671
  196DOPC  H11R24278   1.207   2.874  10.561  2.0554 -0.0629 -2.3271
  196DOPC  H11S24279   1.057   2.963  10.515  0.7014 -0.7918  0.7101
  196DOPC  C21224280   1.201   3.078  10.639  0.0282  0.0765  0.2238
  196DOPC  H12R24281   1.174   3.177  10.597 -0.0500 -0.4157 -0.9566
  196DOPC  H12S24282   1.310   3.077  10.662  0.4922 -0.7535 -1.7611
  196DOPC  C21324283   1.138   3.046  10.778 -0.0998 -0.0227 -0.5492
  196DOPC  H13R24284   1.180   2.958  10.831 -0.8637 -0.6377 -0.9435
  196DOPC  H13S24285   1.036   3.010  10.752  0.7189 -2.9736 -0.1220
  196DOPC  C21424286   1.132   3.166  10.874  0.3645 -0.3743 -0.4033
  196DOPC  H14R24287   1.047   3.147  10.944 -0.2370  1.6177 -0.5128
  196DOPC  H14S24288   1.100   3.251  10.810  1.5134  0.7597  0.4849
  196DOPC  C21524289   1.265   3.194  10.950  0.1245  0.0640  0.4542
  196DOPC  H15R24290   1.332   3.229  10.869 -1.4754  1.0020 -0.5189
  196DOPC  H15S24291   1.303   3.102  10.998 -1.4666 -0.0140  1.6565
  196DOPC  C21624292   1.258   3.304  11.054  0.1851 -0.3507 -0.1630
  196DOPC  H16R24293   1.201   3.394  11.024 -0.2835  0.4709  2.8126
  196DOPC  H16S24294   1.364   3.324  11.082 -0.1457 -2.7720  3.4995
  196DOPC  C21724295   1.178   3.251  11.180  0.6966  0.0276 -0.1754
  196DOPC  H17R24296   1.237   3.167  11.221  1.0079 -0.9013 -2.4156
  196DOPC  H17S24297   1.083   3.217  11.134  0.9364  0.8315 -1.3052
  196DOPC  C21824298   1.166   3.356  11.290 -0.6464 -0.5247 -0.2877
  196DOPC  H18R24299   1.140   3.453  11.242 -1.3805  0.2501  1.6089
  196DOPC  H18S24300   1.263   3.375  11.338  0.2401 -0.5788 -1.9703
  196DOPC  H18T24301   1.087   3.331  11.364  0.4708 -1.8760  0.4970
  196DOPC   C3324302   1.348   3.043   9.697 -0.2089  0.7933 -0.2332
  196DOPC   H3X24303   1.400   3.136   9.665  0.5244 -0.0030 -1.4374
  196DOPC   H3Y24304   1.388   2.959   9.635 -0.0561  1.3255 -0.8756
  196DOPC   C3424305   1.381   3.001   9.840 -0.0209  0.9662 -0.0835
  196DOPC   H4X24306   1.322   2.911   9.866 -0.6486  0.5172 -2.7507
  196DOPC   H4Y24307   1.347   3.082   9.908  0.3855 -1.3975  3.1970
  196DOPC   C3524308   1.534   2.977   9.839 -0.6348  0.5880  0.0158
  196DOPC   H5X24309   1.590   3.065   9.802  0.0588 -0.7734 -2.4292
  196DOPC   H5Y24310   1.556   2.889   9.774 -0.5097  2.0065 -1.9457
  196DOPC   C3624311   1.597   2.949   9.976 -0.7894 -0.9011  0.1641
  196DOPC   H6X24312   1.551   2.854  10.010  0.0246 -1.6178 -0.6787
  196DOPC   H6Y24313   1.704   2.937   9.949 -1.3787 -0.9238 -2.3833
  196DOPC   C3724314   1.588   3.073  10.071 -0.3805 -0.3024  0.2928
  196DOPC   H7X24315   1.603   3.173  10.026 -2.0443 -1.1821 -2.4691
  196DOPC   H7Y24316   1.483   3.074  10.107 -1.0545 -0.6978 -1.5395
  196DOPC   C3824317   1.689   3.049  10.181 -0.6251 -0.2998 -1.1810
  196DOPC   H8X24318   1.720   3.139  10.238  0.4595  0.6753 -3.1919
  196DOPC   H8Y24319   1.784   3.027  10.128  1.6707  1.6698  1.8517
  196DOPC   C3924320   1.648   2.941  10.281 -0.0498  0.6083  0.1235
  196DOPC   H9X24321   1.663   2.838  10.245  0.6228  0.8835 -0.3911
  196DOPC  C31024322   1.631   2.951  10.418  0.0559 -0.9076 -0.7647
  196DOPC  H10X24323   1.586   2.867  10.472  1.0944  0.7379  2.9288
  196DOPC  C31124324   1.633   3.088  10.497 -0.1337  0.8898  0.1067
  196DOPC  H11X24325   1.544   3.147  10.469 -0.8080  0.6913  1.7099
  196DOPC  H11Y24326   1.723   3.146  10.468 -0.3601  1.1630 -0.0517
  196DOPC  C31224327   1.645   3.064  10.648 -0.7929  0.4674  0.2525
  196DOPC  H12X24328   1.739   3.008  10.670 -0.7106 -0.8883 -3.0445
  196DOPC  H12Y24329   1.566   2.989  10.668  1.0132 -1.6906 -0.3361
  196DOPC  C31324330   1.641   3.197  10.733  0.3341 -0.1349  0.3791
  196DOPC  H13X24331   1.725   3.255  10.688 -1.0753 -0.8410 -3.5214
  196DOPC  H13Y24332   1.542   3.241  10.709 -0.2026  0.4250  3.2519
  196DOPC  C31424333   1.649   3.177  10.883  0.6580  0.3496  0.4109
  196DOPC  H14X24334   1.628   3.271  10.939 -1.6075  0.3140 -0.2534
  196DOPC  H14Y24335   1.564   3.116  10.918  0.8310 -0.4007 -0.4349
  196DOPC  C31524336   1.769   3.100  10.942 -0.2563  0.5543  0.3032
  196DOPC  H15X24337   1.865   3.153  10.927  1.2032 -1.5433  1.5977
  196DOPC  H15Y24338   1.778   3.004  10.888 -1.3014  0.6989 -0.1598
  196DOPC  C31624339   1.762   3.085  11.089 -0.3246  0.2156  0.2290
  196DOPC  H16X24340   1.760   3.186  11.137 -1.1596  0.6622 -0.7146
  196DOPC  H16Y24341   1.669   3.035  11.124 -1.4658  1.8514 -0.2995
  196DOPC  C31724342   1.882   2.999  11.143 -0.5535  0.1674 -0.2947
  196DOPC  H17X24343   1.872   2.895  11.105  0.4116  0.5021 -1.5462
  196DOPC  H17Y24344   1.970   3.037  11.086 -1.4219  2.9220  0.0464
  196DOPC  C31824345   1.922   3.012  11.292 -0.3478  0.2798  0.0906
  196DOPC  H18X24346   1.991   2.929  11.317  2.5346  2.3582 -0.5330
  196DOPC  H18Y24347   1.967   3.105  11.333  0.8594 -0.3540  0.2411
  196DOPC  H18Z24348   1.830   2.984  11.349  0.5793 -1.6310  0.7129
  197DOPC     N24349   1.775   0.168   8.594 -0.2291 -0.5084  0.1987
  197DOPC   C1224350   1.870   0.143   8.707 -0.1054  0.6427 -0.4070
  197DOPC  H12A24351   1.943   0.222   8.712 -0.9336  1.4193 -0.2342
  197DOPC  H12B24352   1.918   0.047   8.692 -0.7384  0.4138 -1.0413
  197DOPC   C1324353   1.848   0.175   8.461 -0.0800  0.7308 -0.1499
  197DOPC  H13A24354   1.778   0.194   8.381  0.6214 -0.9702 -1.2252
  197DOPC  H13B24355   1.927   0.248   8.457 -0.8469  1.5568 -0.6718
  197DOPC  H13C24356   1.895   0.081   8.435 -4.2360 -1.5355 -0.3727
  197DOPC   C1424357   1.695   0.293   8.614  0.3134 -0.1571 -0.6606
  197DOPC  H14A24358   1.677   0.311   8.719  0.2517 -0.9239 -0.5350
  197DOPC  H14B24359   1.732   0.387   8.575 -1.5361  1.5780  1.4860
  197DOPC  H14C24360   1.600   0.283   8.564 -0.1362 -1.4493  0.3780
  197DOPC   C1524361   1.679   0.052   8.587 -0.1262 -0.4422 -0.0597
  197DOPC  H15A24362   1.618   0.069   8.500 -0.0011  0.5275  0.0400
  197DOPC  H15B24363   1.619   0.038   8.676  0.5093  0.1740  0.4815
  197DOPC  H15C24364   1.730  -0.043   8.574  2.0158  0.5981  0.3456
  197DOPC   C1124365   1.807   0.150   8.851 -0.5639 -0.3876  0.6354
  197DOPC  H11A24366   1.723   0.078   8.860 -1.3047  0.3697 -0.0790
  197DOPC  H11B24367   1.884   0.113   8.922 -0.2625 -1.5419 -0.2685
  197DOPC     P24368   1.862   0.389   8.940  0.2370 -0.1664  0.4288
  197DOPC   O1324369   1.786   0.513   8.970 -0.6504 -0.2676 -0.3366
  197DOPC   O1424370   1.981   0.400   8.850 -0.0276 -0.4861 -0.1683
  197DOPC   O1224371   1.757   0.280   8.891  0.4331  0.4234  0.7483
  197DOPC   O1124372   1.912   0.334   9.077  0.1110 -0.0016 -0.3033
  197DOPC    C124373   1.814   0.319   9.188 -0.0784  0.5494 -0.0092
  197DOPC    HA24374   1.720   0.267   9.163  0.3310  0.5995 -1.7969
  197DOPC    HB24375   1.789   0.412   9.243  1.0126 -0.2890  2.0135
  197DOPC    C224376   1.881   0.228   9.301 -0.1602 -0.0326 -0.2180
  197DOPC    HS24377   1.802   0.197   9.372  1.4456 -1.4092  1.0507
  197DOPC   O2124378   1.977   0.318   9.370 -0.8117 -0.1861  0.7377
  197DOPC   C2124379   2.029   0.264   9.483 -0.1668  0.1133  0.0179
  197DOPC   O2224380   1.981   0.168   9.541 -0.0615 -0.3219 -0.0865
  197DOPC   C2224381   2.174   0.322   9.510  0.0683 -0.3867 -0.1962
  197DOPC   H2R24382   2.175   0.418   9.454 -0.6310 -1.3894 -2.0382
  197DOPC   H2S24383   2.244   0.247   9.469 -0.9749 -1.4500 -0.0932
  197DOPC    C324384   1.943   0.102   9.231 -0.0886 -1.1462  0.2552
  197DOPC    HX24385   2.028   0.139   9.169 -1.1846  2.0760  0.5209
  197DOPC    HY24386   1.867   0.057   9.164 -0.3016  1.7159 -1.5715
  197DOPC   O3124387   2.001   0.004   9.323  0.4372 -0.3916  0.3092
  197DOPC   C3124388   1.919  -0.086   9.362 -0.1871  0.7507 -0.2338
  197DOPC   O3224389   1.803  -0.102   9.326 -0.3763  0.0022 -0.1570
  197DOPC   C3224390   1.992  -0.178   9.471  0.7369  0.4096  0.3613
  197DOPC   H2X24391   2.067  -0.240   9.416  0.1775  1.2490 -1.4371
  197DOPC   H2Y24392   2.046  -0.118   9.547 -0.2149 -0.1959  1.5459
  197DOPC   C2324393   2.198   0.343   9.658  0.7011 -0.0178  0.0104
  197DOPC   H3R24394   2.111   0.398   9.699  0.3629 -1.0712  0.7384
  197DOPC   H3S24395   2.281   0.413   9.678 -0.4263  1.0102  1.2938
  197DOPC   C2424396   2.213   0.211   9.745 -0.3740  0.8080  0.4770
  197DOPC   H4R24397   2.321   0.191   9.762  0.0635  3.0053  0.5606
  197DOPC   H4S24398   2.172   0.116   9.706  0.2891  0.5705  0.3460
  197DOPC   C2524399   2.149   0.225   9.887 -0.0941  0.3671 -0.6714
  197DOPC   H5R24400   2.039   0.221   9.876 -0.1253 -2.4472 -0.2433
  197DOPC   H5S24401   2.184   0.321   9.930  0.6035  0.8592 -2.2600
  197DOPC   C2624402   2.190   0.112   9.988 -0.1084  0.5871  0.2237
  197DOPC   H6R24403   2.298   0.112  10.013  0.2055 -1.5934 -0.8687
  197DOPC   H6S24404   2.174   0.021   9.926 -1.2641  0.1103  1.1752
  197DOPC   C2724405   2.106   0.105  10.115  0.2947 -0.7639  0.6666
  197DOPC   H7R24406   2.100   0.012  10.176 -1.1885  0.4336  2.4783
  197DOPC   H7S24407   2.005   0.126  10.076  0.1445  0.8157  1.8242
  197DOPC   C2824408   2.125   0.217  10.222 -0.2927 -0.2089  0.0685
  197DOPC   H8R24409   2.028   0.209  10.276  0.0670  0.7734  0.8955
  197DOPC   H8S24410   2.123   0.317  10.174  0.0582 -0.5242 -0.6108
  197DOPC   C2924411   2.252   0.177  10.293 -0.4383  0.0527 -1.2501
  197DOPC   H9R24412   2.346   0.199  10.240  0.8850  0.5191  1.1542
  197DOPC  C21024413   2.264   0.163  10.428  0.1985  0.1956 -0.4695
  197DOPC  H10R24414   2.358   0.124  10.470  0.5764  2.2343  0.7205
  197DOPC  C21124415   2.158   0.185  10.530 -0.8406 -0.6203  0.1621
  197DOPC  H11R24416   2.064   0.220  10.481 -0.1000  0.2176 -0.7037
  197DOPC  H11S24417   2.179   0.272  10.595  0.8852 -0.1372 -0.9664
  197DOPC  C21224418   2.113   0.059  10.602  0.0935  0.1734  0.7987
  197DOPC  H12R24419   2.081  -0.004  10.517 -2.1391  3.2699 -0.8752
  197DOPC  H12S24420   2.021   0.076  10.662 -0.5254  0.7015 -0.2819
  197DOPC  C21324421   2.210  -0.002  10.702 -0.0771 -0.2557  0.1722
  197DOPC  H13R24422   2.300  -0.043  10.652 -0.1538 -1.1515  0.7620
  197DOPC  H13S24423   2.166  -0.089  10.755  0.2968  0.4541  1.7396
  197DOPC  C21424424   2.250   0.097  10.811 -0.1936 -0.0171  0.0720
  197DOPC  H14R24425   2.160   0.155  10.841  0.1107  2.4509 -3.2446
  197DOPC  H14S24426   2.329   0.168  10.778  2.2592 -3.0388 -1.0265
  197DOPC  C21524427   2.310   0.030  10.933 -0.0796  0.4446 -0.2723
  197DOPC  H15R24428   2.358   0.106  10.999  1.6279 -1.3953  0.7231
  197DOPC  H15S24429   2.395  -0.035  10.905 -1.4122 -1.5460  0.1240
  197DOPC  C21624430   2.200  -0.046  11.003 -0.1724 -0.2793  0.8564
  197DOPC  H16R24431   2.158  -0.127  10.939 -2.9601  0.9838  0.9660
  197DOPC  H16S24432   2.108   0.011  11.025 -0.9332 -0.6865 -1.0059
  197DOPC  C21724433   2.262  -0.100  11.135  0.5397  0.0583  0.6238
  197DOPC  H17R24434   2.292  -0.015  11.199 -1.8612  3.1125 -1.9802
  197DOPC  H17S24435   2.351  -0.156  11.098 -2.3589 -4.4387 -0.3202
  197DOPC  C21824436   2.175  -0.197  11.216 -0.4222  0.0130 -0.0443
  197DOPC  H18R24437   2.107  -0.266  11.161 -2.5532 -0.4587  2.9263
  197DOPC  H18S24438   2.107  -0.138  11.281 -0.2291  0.1245  0.0569
  197DOPC  H18T24439   2.237  -0.271  11.271 -0.3182 -0.9637 -1.4301
  197DOPC   C3324440   1.890  -0.274   9.538  0.1138  0.4607 -0.0324
  197DOPC   H3X24441   1.843  -0.333   9.457  1.0083 -1.1416  0.5801
  197DOPC   H3Y24442   1.801  -0.223   9.583  0.5923  2.3006 -1.0850
  197DOPC   C3424443   1.946  -0.365   9.651 -0.2881 -0.6926  0.3524
  197DOPC   H4X24444   2.020  -0.434   9.606  0.2809  0.2104 -0.1254
  197DOPC   H4Y24445   1.863  -0.422   9.700 -1.3494  0.9277  0.5223
  197DOPC   C3524446   2.023  -0.285   9.758  0.1960 -0.5963 -0.3815
  197DOPC   H5X24447   1.959  -0.208   9.805  2.1282  0.9752 -0.1966
  197DOPC   H5Y24448   2.114  -0.251   9.704  0.2263  0.4061  0.2915
  197DOPC   C3624449   2.068  -0.371   9.887  0.3947 -0.3615  0.7135
  197DOPC   H6X24450   1.974  -0.420   9.920 -0.9810  0.7948 -1.3167
  197DOPC   H6Y24451   2.137  -0.450   9.849 -0.9894 -1.6201  0.7608
  197DOPC   C3724452   2.127  -0.285  10.000  0.3388 -0.0110 -0.0755
  197DOPC   H7X24453   2.199  -0.211   9.958 -0.6128  0.7144 -0.4795
  197DOPC   H7Y24454   2.042  -0.230  10.046  0.0456 -0.0090 -0.6043
  197DOPC   C3824455   2.209  -0.370  10.095  0.1489  0.0789 -0.3709
  197DOPC   H8X24456   2.291  -0.316  10.147 -1.3468  0.1542  2.0306
  197DOPC   H8Y24457   2.259  -0.442  10.026 -0.5264  0.2052 -0.9993
  197DOPC   C3924458   2.112  -0.441  10.188  0.1224  0.0147  0.2395
  197DOPC   H9X24459   2.052  -0.525  10.151 -0.2124 -0.5842  2.0221
  197DOPC  C31024460   2.071  -0.388  10.304  0.0599 -0.2854  0.1336
  197DOPC  H10X24461   2.006  -0.452  10.366  0.1127 -1.8181 -1.3357
  197DOPC  C31124462   2.118  -0.261  10.370 -0.2927  0.4415  0.0229
  197DOPC  H11X24463   2.038  -0.196  10.410  0.9775  0.7930  2.0951
  197DOPC  H11Y24464   2.181  -0.206  10.297  0.9415 -1.0576 -0.0809
  197DOPC  C31224465   2.211  -0.304  10.485 -0.1745 -0.8729  0.4604
  197DOPC  H12X24466   2.272  -0.216  10.512 -0.5370 -0.4352 -0.0942
  197DOPC  H12Y24467   2.284  -0.379  10.448  0.5686  0.7433 -1.5831
  197DOPC  C31324468   2.147  -0.353  10.616  0.3391  0.7551 -0.0521
  197DOPC  H13X24469   2.074  -0.283  10.661 -0.4235 -0.2215  0.2614
  197DOPC  H13Y24470   2.092  -0.448  10.596  0.9545 -0.1701  2.3165
  197DOPC  C31424471   2.250  -0.388  10.724 -0.3375  0.0463  0.2247
  197DOPC  H14X24472   2.318  -0.463  10.678  0.8257 -0.3342  2.4503
  197DOPC  H14Y24473   2.316  -0.301  10.744  0.5674  0.0621 -2.4168
  197DOPC  C31524474   2.182  -0.447  10.849 -0.5534  0.1002  0.4147
  197DOPC  H15X24475   2.123  -0.531  10.807 -1.8554  1.0549  0.2778
  197DOPC  H15Y24476   2.111  -0.370  10.885 -1.2466 -1.2752  2.1131
  197DOPC  C31624477   2.276  -0.479  10.965 -0.0853 -0.0360  0.4743
  197DOPC  H16X24478   2.316  -0.392  11.023  1.4728 -0.6896  0.4207
  197DOPC  H16Y24479   2.229  -0.548  11.038  1.2992  0.6699  2.1064
  197DOPC  C31724480   2.404  -0.546  10.921 -0.1950  0.0794 -0.5078
  197DOPC  H17X24481   2.378  -0.625  10.847  1.9042 -1.6590  0.4921
  197DOPC  H17Y24482   2.463  -0.474  10.860  0.0532  0.8676  0.6386
  197DOPC  C31824483   2.484  -0.592  11.040 -0.5896 -0.8624 -0.0039
  197DOPC  H18X24484   2.516  -0.509  11.108  1.3149 -4.1542  3.4792
  197DOPC  H18Y24485   2.423  -0.671  11.088 -1.5613  0.2992  0.7415
  197DOPC  H18Z24486   2.577  -0.639  11.003 -0.0453 -1.3831  1.9254
  198DOPC     N24487   0.312   1.823   8.903  0.3178  0.0244 -0.3496
  198DOPC   C1224488   0.179   1.751   8.867  0.4327  0.5556 -0.2037
  198DOPC  H12A24489   0.202   1.646   8.857  1.7121  0.9123 -1.2677
  198DOPC  H12B24490   0.154   1.781   8.767 -2.6414  0.1139  0.3317
  198DOPC   C1324491   0.382   1.759   9.018 -0.5740  0.7757 -0.1198
  198DOPC  H13A24492   0.424   1.664   8.990 -0.1257  1.0786 -0.4882
  198DOPC  H13B24493   0.473   1.812   9.040 -1.5186  1.0249  3.9445
  198DOPC  H13C24494   0.317   1.758   9.105 -1.8409  0.0203 -1.0318
  198DOPC   C1424495   0.283   1.963   8.938 -0.2861 -0.6146  0.0355
  198DOPC  H14A24496   0.222   1.975   9.027 -3.5291  1.3122 -2.2393
  198DOPC  H14B24497   0.374   2.017   8.961 -0.6031 -0.7781  1.8349
  198DOPC  H14C24498   0.244   2.028   8.860  1.8385 -0.2138 -0.7664
  198DOPC   C1524499   0.401   1.806   8.784  0.4322 -0.5349 -0.1584
  198DOPC  H15A24500   0.493   1.862   8.794  0.5452 -0.9735  1.7766
  198DOPC  H15B24501   0.352   1.831   8.692 -0.5042 -0.9754  0.2109
  198DOPC  H15C24502   0.430   1.702   8.779 -0.1714 -0.6942 -0.3697
  198DOPC   C1124503   0.051   1.767   8.949  0.3312 -0.2726 -0.4771
  198DOPC  H11A24504   0.024   1.874   8.962 -0.9496 -0.4788 -1.1721
  198DOPC  H11B24505  -0.031   1.719   8.890 -2.3378 -1.9519  4.0687
  198DOPC     P24506   0.059   1.528   9.057 -0.0912 -0.8052  0.0857
  198DOPC   O1324507   0.129   1.474   9.174  0.0133  0.2570 -0.3642
  198DOPC   O1424508   0.118   1.486   8.928 -0.1002 -0.3080  0.1072
  198DOPC   O1224509   0.062   1.688   9.071 -0.4285  0.0323  0.6008
  198DOPC   O1124510  -0.093   1.490   9.055 -0.5548  0.6436 -0.0987
  198DOPC    C124511  -0.179   1.568   9.141 -0.4287 -0.1002  0.1663
  198DOPC    HA24512  -0.276   1.587   9.090  0.1925 -0.7352 -1.3294
  198DOPC    HB24513  -0.136   1.663   9.180  2.5494 -1.3090  0.0830
  198DOPC    C224514  -0.227   1.475   9.257 -0.6937 -0.7172  0.3281
  198DOPC    HS24515  -0.268   1.539   9.338 -1.3408  0.3082 -0.7843
  198DOPC   O2124516  -0.108   1.395   9.303 -0.0246 -0.0754 -0.2260
  198DOPC   C2124517  -0.045   1.453   9.408  0.2626 -0.4618  0.0811
  198DOPC   O2224518  -0.078   1.557   9.463  0.5217  0.0559 -0.2249
  198DOPC   C2224519   0.057   1.356   9.460 -0.0998 -1.1802 -0.3726
  198DOPC   H2R24520   0.157   1.398   9.434 -1.1759  2.5571  0.9526
  198DOPC   H2S24521   0.039   1.255   9.417 -0.9557 -2.4332  2.6497
  198DOPC    C324522  -0.327   1.370   9.198  0.0971  0.3284  0.3972
  198DOPC    HX24523  -0.287   1.335   9.101 -3.1682 -0.3579 -0.8144
  198DOPC    HY24524  -0.425   1.416   9.176 -0.2323  0.1990  1.5175
  198DOPC   O3124525  -0.359   1.260   9.281  0.0538  0.4474  0.0019
  198DOPC   C3124526  -0.271   1.161   9.278 -0.1543  0.1050 -0.0771
  198DOPC   O3224527  -0.188   1.140   9.190  0.4431 -0.0973 -0.0724
  198DOPC   C3224528  -0.289   1.083   9.409  0.5371 -0.1903 -0.0936
  198DOPC   H2X24529  -0.248   1.149   9.488 -1.5599 -0.3408  1.1787
  198DOPC   H2Y24530  -0.399   1.068   9.416  0.5741 -0.4351 -0.0249
  198DOPC   C2324531   0.041   1.337   9.613  0.4989 -0.0074 -0.1201
  198DOPC   H3R24532  -0.067   1.313   9.627  0.1244  1.7306  0.2098
  198DOPC   H3S24533   0.037   1.436   9.664 -2.1521  0.2496 -0.6686
  198DOPC   C2424534   0.145   1.247   9.680  0.6974 -0.3539  0.1915
  198DOPC   H4R24535   0.244   1.280   9.644  0.2331 -0.3682 -1.1417
  198DOPC   H4S24536   0.129   1.146   9.637 -0.4717  0.8327 -2.3832
  198DOPC   C2524537   0.137   1.240   9.833 -0.5553 -0.0803  0.2311
  198DOPC   H5R24538   0.142   1.345   9.869 -2.1125 -0.1518  0.7401
  198DOPC   H5S24539   0.229   1.188   9.868  0.1044  0.7693 -0.1972
  198DOPC   C2624540   0.014   1.173   9.875  0.3979 -0.0609  0.3156
  198DOPC   H6R24541   0.003   1.080   9.815 -2.3854  1.3893 -1.6122
  198DOPC   H6S24542  -0.074   1.235   9.847  1.1511  1.8568  1.9545
  198DOPC   C2724543   0.014   1.137  10.025 -0.6307 -0.6769 -0.1105
  198DOPC   H7R24544   0.087   1.054  10.042 -0.1441 -0.5557 -1.5268
  198DOPC   H7S24545  -0.084   1.095  10.057 -1.0429  0.7516  0.5732
  198DOPC   C2824546   0.043   1.247  10.132  0.1167 -0.5526 -0.2308
  198DOPC   H8R24547  -0.046   1.314  10.134  2.4035  2.6925 -0.7469
  198DOPC   H8S24548   0.120   1.316  10.092  0.2751 -1.7609 -2.1103
  198DOPC   C2924549   0.083   1.194  10.259 -0.5422  0.0367 -0.1177
  198DOPC   H9R24550   0.177   1.138  10.249 -1.1237 -0.9584 -0.1760
  198DOPC  C21024551   0.029   1.198  10.384 -0.4322 -0.8613 -0.4498
  198DOPC  H10R24552   0.095   1.156  10.462  0.3196 -0.4650 -0.8564
  198DOPC  C21124553  -0.106   1.253  10.419 -0.4489  0.1135 -0.4456
  198DOPC  H11R24554  -0.189   1.202  10.365 -1.0911  1.1034 -0.4305
  198DOPC  H11S24555  -0.113   1.359  10.386  1.6114  0.7761  1.0576
  198DOPC  C21224556  -0.139   1.241  10.566  0.2287 -0.3284 -0.6593
  198DOPC  H12R24557  -0.141   1.135  10.599 -0.1826 -1.2233 -3.3555
  198DOPC  H12S24558  -0.238   1.289  10.577  0.2315 -0.4061 -0.2629
  198DOPC  C21324559  -0.056   1.321  10.665 -0.2822 -0.4026 -0.0754
  198DOPC  H13R24560  -0.048   1.428  10.635 -1.0541 -0.4114 -0.3265
  198DOPC  H13S24561   0.045   1.273  10.668  0.4664  1.0485 -0.8155
  198DOPC  C21424562  -0.110   1.321  10.810 -0.1412  0.6638  0.3954
  198DOPC  H14R24563  -0.121   1.216  10.845  2.0424  0.5645  0.9392
  198DOPC  H14S24564  -0.212   1.366  10.809 -0.6253 -0.2460  2.5911
  198DOPC  C21524565  -0.015   1.388  10.912  0.6703  0.0435 -0.4624
  198DOPC  H15R24566  -0.005   1.493  10.876 -1.2393  0.6098  0.5299
  198DOPC  H15S24567   0.084   1.338  10.908  1.3715  1.3020  0.4492
  198DOPC  C21624568  -0.071   1.391  11.051  0.6408  0.4107  0.1270
  198DOPC  H16R24569   0.017   1.406  11.118  0.0453  1.8629  0.6306
  198DOPC  H16S24570  -0.092   1.287  11.081  2.6508  0.2135  1.0246
  198DOPC  C21724571  -0.180   1.497  11.071  0.2285  0.1366 -0.2200
  198DOPC  H17R24572  -0.261   1.472  10.999 -2.1407 -1.1664  2.6932
  198DOPC  H17S24573  -0.130   1.591  11.039 -1.6088  0.9958 -0.7427
  198DOPC  C21824574  -0.237   1.497  11.215 -0.0181  0.1562  0.3449
  198DOPC  H18R24575  -0.147   1.499  11.280  0.9084 -0.8615 -0.8374
  198DOPC  H18S24576  -0.294   1.402  11.223  0.0137  0.2016  1.1005
  198DOPC  H18T24577  -0.292   1.589  11.245  0.2350  0.3381  0.2548
  198DOPC   C3324578  -0.219   0.952   9.424 -0.4218 -0.1120  0.1919
  198DOPC   H3X24579  -0.111   0.970   9.440 -0.3453 -1.5560  1.5153
  198DOPC   H3Y24580  -0.241   0.885   9.338  0.7846 -0.0976 -0.1340
  198DOPC   C3424581  -0.284   0.871   9.535 -0.8486 -0.1130 -0.0467
  198DOPC   H4X24582  -0.260   0.767   9.506  1.8739  0.1181  1.1193
  198DOPC   H4Y24583  -0.394   0.889   9.539 -1.0728 -1.5708  2.9349
  198DOPC   C3524584  -0.235   0.904   9.676 -0.5284  0.2114  0.4749
  198DOPC   H5X24585  -0.242   1.011   9.703  1.8047  0.1932  1.3947
  198DOPC   H5Y24586  -0.127   0.875   9.677 -1.3098 -3.2138 -0.4734
  198DOPC   C3624587  -0.305   0.826   9.792 -0.2797  0.0218 -0.0776
  198DOPC   H6X24588  -0.413   0.850   9.786 -0.5409 -0.7007  1.3108
  198DOPC   H6Y24589  -0.289   0.719   9.769  0.1075  0.4025 -1.7303
  198DOPC   C3724590  -0.240   0.862   9.929 -0.0261 -0.3786 -0.6505
  198DOPC   H7X24591  -0.134   0.829   9.938  0.3597  1.1958  1.4026
  198DOPC   H7Y24592  -0.230   0.972   9.939  0.7778 -0.5162  0.2130
  198DOPC   C3824593  -0.322   0.801  10.048 -0.4889 -0.0163  0.6136
  198DOPC   H8X24594  -0.260   0.809  10.140 -1.0113 -2.6758  1.2764
  198DOPC   H8Y24595  -0.322   0.696  10.012  3.5644  0.1225 -0.3343
  198DOPC   C3924596  -0.460   0.853  10.067  0.3237 -0.2839  0.2999
  198DOPC   H9X24597  -0.523   0.835   9.978  2.4916 -2.0231 -0.9718
  198DOPC  C31024598  -0.514   0.929  10.163 -0.9165 -0.2861  0.0014
  198DOPC  H10X24599  -0.616   0.968  10.149 -0.7012  0.3321  0.1460
  198DOPC  C31124600  -0.452   0.973  10.297  0.6994  0.4270  0.1195
  198DOPC  H11X24601  -0.437   1.083  10.288  1.2766  0.5881  2.4091
  198DOPC  H11Y24602  -0.352   0.930  10.318  0.5991  0.5585  0.9019
  198DOPC  C31224603  -0.543   0.954  10.425 -1.1296  0.1128 -0.1911
  198DOPC  H12X24604  -0.563   0.845  10.425 -1.4217  0.1637 -0.8464
  198DOPC  H12Y24605  -0.638   1.007  10.400 -0.0421  2.7038  0.8058
  198DOPC  C31324606  -0.487   1.009  10.552 -0.4487 -0.0502 -0.0317
  198DOPC  H13X24607  -0.386   0.970  10.576  0.1628 -0.4671 -2.9207
  198DOPC  H13Y24608  -0.474   1.119  10.544  0.2337 -0.1497 -0.3210
  198DOPC  C31424609  -0.584   0.977  10.674  0.8021  0.5024  0.1029
  198DOPC  H14X24610  -0.689   1.007  10.651  0.3968  0.6616  2.0165
  198DOPC  H14Y24611  -0.587   0.867  10.688 -2.5022  0.7552  2.2176
  198DOPC  C31524612  -0.531   1.037  10.806 -0.6506  0.4944 -0.1380
  198DOPC  H15X24613  -0.546   1.147  10.798 -0.1535  0.6301  0.5812
  198DOPC  H15Y24614  -0.423   1.012  10.811 -0.8565 -0.5281 -0.5859
  198DOPC  C31624615  -0.614   1.003  10.930  0.4760 -0.2001  0.2497
  198DOPC  H16X24616  -0.719   1.039  10.918  0.8788  1.4262  1.3879
  198DOPC  H16Y24617  -0.621   0.894  10.948 -1.7524 -0.2812 -0.6983
  198DOPC  C31724618  -0.552   1.064  11.060  0.7620 -0.8461 -0.0971
  198DOPC  H17X24619  -0.614   1.030  11.146  0.3561  1.7600  0.7305
  198DOPC  H17Y24620  -0.451   1.018  11.055  1.3541  0.3002  0.7716
  198DOPC  C31824621  -0.534   1.218  11.072 -0.2213  0.2356 -0.1276
  198DOPC  H18X24622  -0.537   1.256  11.176  1.2418  0.2900 -0.0924
  198DOPC  H18Y24623  -0.440   1.245  11.021  1.3031 -2.0551  1.2848
  198DOPC  H18Z24624  -0.605   1.270  11.004  1.4230 -0.6480 -2.6598
  199DOPC     N24625   6.237   1.450   8.088 -0.3667  0.1527  0.1830
  199DOPC   C1224626   6.228   1.572   8.180  0.8653 -0.5205 -0.1457
  199DOPC  H12A24627   6.171   1.648   8.129  1.2201  0.3277  0.6965
  199DOPC  H12B24628   6.327   1.614   8.188  0.1623  1.1274  0.4138
  199DOPC   C1324629   6.339   1.354   8.135 -0.5266 -0.2988  0.2190
  199DOPC  H13A24630   6.335   1.339   8.242  0.2928 -2.2442  0.0198
  199DOPC  H13B24631   6.325   1.256   8.091 -0.2934 -0.4591  0.5011
  199DOPC  H13C24632   6.437   1.381   8.101  0.2884 -2.2856  0.8279
  199DOPC   C1424633   6.286   1.486   7.952  0.0440 -0.0815  0.8028
  199DOPC  H14A24634   6.389   1.518   7.948 -0.5350  1.7818 -0.3150
  199DOPC  H14B24635   6.272   1.408   7.879  1.5412 -0.1747  0.5798
  199DOPC  H14C24636   6.233   1.571   7.912 -0.5135  0.4886  2.6524
  199DOPC   C1524637   6.101   1.386   8.070 -0.1502  0.9177  0.0782
  199DOPC  H15A24638   6.109   1.314   7.989  1.1882 -1.4671  2.1732
  199DOPC  H15B24639   6.022   1.457   8.054  1.2161  2.0874 -2.0033
  199DOPC  H15C24640   6.078   1.328   8.158  1.6922 -2.1050 -1.2588
  199DOPC   C1124641   6.174   1.560   8.324 -0.4851 -0.8976  0.0159
  199DOPC  H11A24642   6.150   1.661   8.364 -1.4488 -1.0793 -0.0724
  199DOPC  H11B24643   6.073   1.513   8.320 -2.2550  2.3139  2.0947
  199DOPC     P24644   6.369   1.547   8.499 -0.3205  0.1992 -0.1127
  199DOPC   O1324645   6.323   1.682   8.541  0.5119 -0.1188  0.3412
  199DOPC   O1424646   6.496   1.552   8.428  0.3320  0.1253 -0.3020
  199DOPC   O1224647   6.264   1.483   8.399 -0.0195 -0.2333  0.1629
  199DOPC   O1124648   6.377   1.453   8.629  0.4584 -0.3230 -0.0661
  199DOPC    C124649   6.267   1.362   8.664  0.1685  0.4609  0.7524
  199DOPC    HA24650   6.292   1.257   8.642  1.4421  1.3415 -2.5130
  199DOPC    HB24651   6.177   1.381   8.602  1.1129  1.5189 -0.3383
  199DOPC    C224652   6.221   1.384   8.814 -0.4779  0.4382  0.4634
  199DOPC    HS24653   6.310   1.348   8.869  1.2098  1.4460 -1.4690
  199DOPC   O2124654   6.094   1.310   8.839  0.3307  0.6937  0.2803
  199DOPC   C2124655   6.111   1.178   8.866  0.3589  0.5721 -0.3696
  199DOPC   O2224656   6.221   1.128   8.880 -0.0725 -0.4225 -0.2409
  199DOPC   C2224657   5.975   1.122   8.905  0.0014  0.1106  0.4029
  199DOPC   H2R24658   5.992   1.012   8.903  1.4566  0.3075 -2.4198
  199DOPC   H2S24659   5.895   1.150   8.832 -0.0001  2.1616  1.1358
  199DOPC    C324660   6.212   1.535   8.843  0.2898 -0.2857 -0.7626
  199DOPC    HX24661   6.137   1.594   8.787  0.6073 -0.7797 -1.7183
  199DOPC    HY24662   6.307   1.588   8.819  0.4044  1.2299  2.4906
  199DOPC   O3124663   6.186   1.549   8.991 -0.2821 -0.1192  0.4360
  199DOPC   C3124664   6.066   1.580   9.036 -0.0883 -0.5499 -0.6764
  199DOPC   O3224665   5.958   1.578   8.977 -0.4313  0.9372 -0.4672
  199DOPC   C3224666   6.074   1.616   9.189  0.2512 -0.5709  0.3925
  199DOPC   H2X24667   6.181   1.617   9.217 -0.0353 -1.7025  1.6487
  199DOPC   H2Y24668   6.044   1.723   9.200 -0.6038 -0.9148  1.7232
  199DOPC   C2324669   5.919   1.168   9.037 -0.7552 -0.0236  0.1025
  199DOPC   H3R24670   5.821   1.118   9.055  1.3501 -5.5499 -1.6348
  199DOPC   H3S24671   5.910   1.279   9.046 -2.9586  0.0352 -1.7704
  199DOPC   C2424672   6.009   1.134   9.154 -0.0645 -0.5228 -0.0950
  199DOPC   H4R24673   6.098   1.200   9.162 -0.1611 -0.3159 -0.7198
  199DOPC   H4S24674   6.065   1.039   9.143 -0.6891 -0.9051  0.0154
  199DOPC   C2524675   5.939   1.134   9.293  0.6258 -0.1816 -0.2461
  199DOPC   H5R24676   5.869   1.048   9.296  0.2404  0.1123 -0.7733
  199DOPC   H5S24677   5.886   1.228   9.317 -1.3512 -1.4511  0.6415
  199DOPC   C2624678   6.040   1.101   9.403  0.1988  0.0424  0.4964
  199DOPC   H6R24679   6.108   1.189   9.414  0.6609 -0.4386  1.6927
  199DOPC   H6S24680   6.115   1.023   9.376 -0.9954 -0.5339 -1.3546
  199DOPC   C2724681   5.984   1.073   9.545 -0.4806 -0.4575 -0.4859
  199DOPC   H7R24682   5.926   0.978   9.540 -1.4721 -0.0064  1.3570
  199DOPC   H7S24683   5.924   1.161   9.576  1.0361  0.0704  1.1201
  199DOPC   C2824684   6.092   1.047   9.652  0.2280  1.2450  0.4748
  199DOPC   H8R24685   6.149   0.957   9.621 -0.2008  0.5686  1.5821
  199DOPC   H8S24686   6.041   1.017   9.747 -2.0059  0.8150 -0.7963
  199DOPC   C2924687   6.177   1.169   9.683  0.0829 -0.3011  0.2943
  199DOPC   H9R24688   6.239   1.208   9.600 -0.6158 -0.9905 -0.5788
  199DOPC  C21024689   6.182   1.233   9.803 -0.2914 -1.0651  0.3845
  199DOPC  H10R24690   6.246   1.321   9.813 -3.0792  1.0355  1.0883
  199DOPC  C21124691   6.105   1.210   9.932 -0.1671  0.0792 -0.7809
  199DOPC  H11R24692   6.087   1.102   9.953 -1.1905  0.3612 -0.1447
  199DOPC  H11S24693   6.003   1.252   9.929 -0.9270 -1.6909 -0.8875
  199DOPC  C21224694   6.152   1.291  10.065  0.6164 -0.0745  0.3852
  199DOPC  H12R24695   6.183   1.396  10.046 -2.0171  0.5516 -1.0459
  199DOPC  H12S24696   6.236   1.232  10.107  0.5430  2.0331  3.8544
  199DOPC  C21324697   6.040   1.282  10.168 -0.3857  0.2588 -0.2174
  199DOPC  H13R24698   6.024   1.176  10.196  0.8893  0.4681  1.4322
  199DOPC  H13S24699   5.949   1.336  10.135 -0.4439  0.7607  0.7450
  199DOPC  C21424700   6.082   1.359  10.292 -0.1404  0.1729 -0.6103
  199DOPC  H14R24701   6.069   1.467  10.269 -0.0513 -0.0685 -1.8992
  199DOPC  H14S24702   6.184   1.328  10.325 -0.9688 -1.8573  0.2517
  199DOPC  C21524703   5.993   1.320  10.413  0.0286 -0.5686  0.5219
  199DOPC  H15R24704   5.986   1.210  10.422  2.3901 -0.6363  2.3800
  199DOPC  H15S24705   5.889   1.356  10.400  0.5984  0.3548 -2.1616
  199DOPC  C21624706   6.050   1.370  10.544 -0.0885 -0.2693  0.4361
  199DOPC  H16R24707   6.068   1.479  10.550  2.3997 -0.3984 -2.4685
  199DOPC  H16S24708   6.153   1.329  10.544 -0.3052 -0.8774 -1.3631
  199DOPC  C21724709   5.964   1.334  10.670  0.9263  0.1510 -0.3538
  199DOPC  H17R24710   5.980   1.228  10.703  2.5851  1.2224  2.7080
  199DOPC  H17S24711   5.857   1.354  10.650  0.2610 -2.2366  0.4466
  199DOPC  C21824712   6.009   1.415  10.788 -1.0249  0.2206  0.7187
  199DOPC  H18R24713   5.948   1.401  10.880 -2.0593  0.1032  0.0336
  199DOPC  H18S24714   6.000   1.521  10.757 -2.2367  0.5396  2.0240
  199DOPC  H18T24715   6.114   1.389  10.813 -0.2467  0.0669 -2.3276
  199DOPC   C3324716   5.993   1.524   9.274 -0.2723 -0.3703 -0.1977
  199DOPC   H3X24717   6.000   1.415   9.251  1.2576 -0.5332  0.9027
  199DOPC   H3Y24718   5.886   1.548   9.255 -0.3488 -0.1106  0.5178
  199DOPC   C3424719   6.024   1.536   9.427 -0.0040  0.6183  0.4239
  199DOPC   H4X24720   5.996   1.640   9.455 -1.0622  0.7999 -1.1904
  199DOPC   H4Y24721   6.133   1.516   9.438  0.3843  1.5453 -1.3019
  199DOPC   C3524722   5.955   1.436   9.520  0.2134 -0.2261  0.0326
  199DOPC   H5X24723   6.005   1.337   9.507 -0.4090 -0.4515 -0.6933
  199DOPC   H5Y24724   5.850   1.417   9.492 -0.3113 -0.7705  2.1900
  199DOPC   C3624725   5.972   1.452   9.671  0.2300 -0.0529  0.5228
  199DOPC   H6X24726   5.957   1.354   9.722  2.0658 -0.9949 -0.6430
  199DOPC   H6Y24727   6.073   1.484   9.703 -0.1038  1.7473 -0.1026
  199DOPC   C3724728   5.884   1.570   9.715  0.2563 -0.5191  0.5664
  199DOPC   H7X24729   5.909   1.671   9.676  1.2138 -1.2966 -0.9028
  199DOPC   H7Y24730   5.786   1.546   9.668  0.3909 -1.2317  0.6408
  199DOPC   C3824731   5.867   1.576   9.868  0.1060 -1.1654  0.1302
  199DOPC   H8X24732   5.845   1.478   9.914 -0.3707 -0.3188  1.7650
  199DOPC   H8Y24733   5.784   1.649   9.876 -0.9385 -2.1516 -1.1695
  199DOPC   C3924734   5.995   1.623   9.930  0.1297 -0.0403 -0.0419
  199DOPC   H9X24735   6.080   1.557   9.905  1.4842  0.8245  1.9928
  199DOPC  C31024736   6.014   1.723  10.017  0.0048 -0.0782 -0.4253
  199DOPC  H10X24737   6.117   1.757  10.036  0.3172 -0.5817 -1.1634
  199DOPC  C31124738   5.905   1.799  10.092  0.3134 -0.5314  0.5477
  199DOPC  H11X24739   5.800   1.779  10.064  0.4092  1.2208 -1.2966
  199DOPC  H11Y24740   5.914   1.907  10.067  0.5606 -0.3205  1.5024
  199DOPC  C31224741   5.913   1.800  10.242  0.7787 -0.7759 -0.6036
  199DOPC  H12X24742   5.870   1.707  10.287 -1.4290 -0.0416 -1.0671
  199DOPC  H12Y24743   5.843   1.879  10.276 -1.7928 -2.3273 -1.9453
  199DOPC  C31324744   6.051   1.833  10.307  0.9924 -0.4540 -0.1163
  199DOPC  H13X24745   6.121   1.747  10.305  0.3309 -1.0031 -0.0840
  199DOPC  H13Y24746   6.096   1.910  10.241  2.4184 -0.6083  0.6398
  199DOPC  C31424747   6.041   1.907  10.443  0.1520  0.0164 -0.7792
  199DOPC  H14X24748   6.138   1.929  10.490 -0.7736  0.3502  1.0571
  199DOPC  H14Y24749   5.993   2.005  10.422 -0.5906  0.1166  1.1956
  199DOPC  C31524750   5.962   1.823  10.553 -0.6806 -0.2833  0.2107
  199DOPC  H15X24751   6.014   1.730  10.585  0.1993  0.2114  0.2495
  199DOPC  H15Y24752   5.859   1.801  10.518 -0.4898 -1.4323  0.3442
  199DOPC  C31624753   5.949   1.911  10.680 -0.1059 -0.1047  0.4754
  199DOPC  H16X24754   6.042   1.931  10.736  1.0223 -1.4282 -0.8315
  199DOPC  H16Y24755   5.933   2.012  10.637  1.1548  0.0207  0.2723
  199DOPC  C31724756   5.842   1.864  10.776 -0.2436 -0.2649 -0.1352
  199DOPC  H17X24757   5.744   1.856  10.725  0.5566  1.5617 -2.0906
  199DOPC  H17Y24758   5.880   1.765  10.809  0.2794 -0.3714 -1.0422
  199DOPC  C31824759   5.829   1.957  10.891  0.1699  0.1686 -0.1640
  199DOPC  H18X24760   5.742   1.934  10.956  2.4396 -2.0902  2.3460
  199DOPC  H18Y24761   5.926   1.955  10.946  0.4604 -0.5725 -0.6884
  199DOPC  H18Z24762   5.809   2.058  10.850  1.5266  0.9026  0.8781
  200DOPC     N24763   1.347   2.709   8.884  0.6154  0.2240  0.2646
  200DOPC   C1224764   1.216   2.640   8.892 -0.5866  0.3763 -0.1788
  200DOPC  H12A24765   1.228   2.534   8.873  1.3578  0.1824  1.7208
  200DOPC  H12B24766   1.149   2.688   8.822 -2.3096 -0.4486  0.8269
  200DOPC   C1324767   1.355   2.818   8.988  0.0054  0.5482 -0.3704
  200DOPC  H13A24768   1.342   2.770   9.084  1.8163 -2.8478 -1.6439
  200DOPC  H13B24769   1.449   2.871   8.993 -0.9226  2.1625  1.0390
  200DOPC  H13C24770   1.275   2.889   8.976  0.7128  2.0343  2.7909
  200DOPC   C1424771   1.373   2.771   8.753  0.1077  0.4584  0.2064
  200DOPC  H14A24772   1.373   2.694   8.677 -1.4262  0.5926  0.0412
  200DOPC  H14B24773   1.292   2.836   8.722 -1.2877  0.1175  2.8987
  200DOPC  H14C24774   1.461   2.833   8.744 -0.9451  1.7826 -1.6327
  200DOPC   C1524775   1.458   2.611   8.920 -0.2816  0.4077 -0.0165
  200DOPC  H15A24776   1.436   2.580   9.021 -1.4632  3.3006  0.6955
  200DOPC  H15B24777   1.553   2.662   8.919  0.5882 -1.1555  0.0514
  200DOPC  H15C24778   1.472   2.523   8.858 -3.0492 -0.1634  0.0473
  200DOPC   C1124779   1.152   2.638   9.028  0.3014  0.1741 -0.3740
  200DOPC  H11A24780   1.119   2.741   9.054 -3.1023 -0.7407 -0.5300
  200DOPC  H11B24781   1.058   2.581   9.012  1.7149 -1.9494 -1.5590
  200DOPC     P24782   1.252   2.422   9.119  0.4711  0.3469  0.2018
  200DOPC   O1324783   1.392   2.394   9.156  0.1575 -0.4417 -0.5824
  200DOPC   O1424784   1.206   2.367   8.986 -0.3036 -0.3171  0.3135
  200DOPC   O1224785   1.242   2.575   9.119  0.5388  0.3666 -0.2629
  200DOPC   O1124786   1.164   2.370   9.235 -0.4416  0.5954 -0.4074
  200DOPC    C124787   1.131   2.449   9.348  0.1876 -0.3868 -0.2233
  200DOPC    HA24788   1.024   2.441   9.378  0.3082 -0.2920  0.2505
  200DOPC    HB24789   1.139   2.559   9.334  1.5474 -0.2686  1.2453
  200DOPC    C224790   1.207   2.415   9.482  0.1291 -0.2964 -0.1414
  200DOPC    HS24791   1.311   2.447   9.463  1.5870 -3.9720  0.7666
  200DOPC   O2124792   1.200   2.282   9.536  0.1237  0.0875  0.6548
  200DOPC   C2124793   1.310   2.212   9.529 -0.0827 -0.2554 -0.1854
  200DOPC   O2224794   1.423   2.256   9.506 -0.0794  0.5905  0.3135
  200DOPC   C2224795   1.274   2.075   9.582  0.0017 -0.2554 -0.3127
  200DOPC   H2R24796   1.359   2.012   9.549  1.9733  1.2837  1.5538
  200DOPC   H2S24797   1.185   2.042   9.523  1.2394 -2.2368 -1.1483
  200DOPC    C324798   1.164   2.516   9.593 -0.8070  0.2032  0.6425
  200DOPC    HX24799   1.061   2.483   9.620 -0.5753  0.9928  2.6482
  200DOPC    HY24800   1.147   2.623   9.568 -1.1692 -0.2462 -1.1950
  200DOPC   O3124801   1.245   2.500   9.708 -0.2895  0.1230 -0.2467
  200DOPC   C3124802   1.255   2.597   9.797 -0.4675 -0.2432 -0.3391
  200DOPC   O3224803   1.195   2.703   9.788 -0.0387 -0.6023 -0.1196
  200DOPC   C3224804   1.349   2.565   9.917  0.1978 -0.4637  0.4128
  200DOPC   H2X24805   1.337   2.456   9.933  0.6292 -0.6217 -0.2685
  200DOPC   H2Y24806   1.452   2.592   9.885 -0.4672 -0.2835 -1.7696
  200DOPC   C2324807   1.240   2.059   9.736 -0.0749  0.5495 -0.4116
  200DOPC   H3R24808   1.191   1.959   9.737 -2.1915  1.5372 -0.5705
  200DOPC   H3S24809   1.165   2.137   9.761  0.0409  0.6579 -0.4051
  200DOPC   C2424810   1.355   2.069   9.836  0.0194 -0.2647  0.7431
  200DOPC   H4R24811   1.403   2.168   9.821 -2.2657  0.7029 -0.7534
  200DOPC   H4S24812   1.430   1.989   9.815 -0.7042 -0.4136 -1.6321
  200DOPC   C2524813   1.320   2.051   9.982  0.7420 -0.2903  1.0432
  200DOPC   H5R24814   1.415   2.067  10.038  0.0682  0.1512  2.0999
  200DOPC   H5S24815   1.274   1.950   9.994 -0.1069 -0.2721 -1.4950
  200DOPC   C2624816   1.218   2.151  10.033  0.0014  0.3978  0.3822
  200DOPC   H6R24817   1.126   2.143   9.972 -0.0172  0.0291  0.4553
  200DOPC   H6S24818   1.254   2.256  10.022  0.7745  0.0971  0.0049
  200DOPC   C2724819   1.184   2.128  10.179  0.1766  0.4068 -0.9036
  200DOPC   H7R24820   1.273   2.127  10.245 -0.0564 -1.0001 -0.5643
  200DOPC   H7S24821   1.113   2.043  10.194 -1.8499  2.3228  1.1382
  200DOPC   C2824822   1.099   2.251  10.233 -0.0183 -0.5335 -0.3602
  200DOPC   H8R24823   1.021   2.282  10.160  1.8370 -0.5837 -2.4345
  200DOPC   H8S24824   1.164   2.341  10.236  0.5908 -0.8917 -2.1138
  200DOPC   C2924825   1.035   2.238  10.374 -0.1727  0.2160  0.2547
  200DOPC   H9R24826   1.100   2.270  10.456  0.6479  0.6027 -0.5294
  200DOPC  C21024827   0.909   2.205  10.400 -0.5378  0.6722 -0.3630
  200DOPC  H10R24828   0.872   2.210  10.504  1.5602  1.6777  0.3833
  200DOPC  C21124829   0.797   2.167  10.302  0.4578  0.4254  0.1973
  200DOPC  H11R24830   0.832   2.174  10.197 -1.0064  0.7580 -0.2839
  200DOPC  H11S24831   0.722   2.249  10.296 -2.0112 -1.7028  0.1436
  200DOPC  C21224832   0.739   2.022  10.322 -0.2810 -0.2434  0.1880
  200DOPC  H12R24833   0.818   1.948  10.297  2.7675  0.4053  6.0494
  200DOPC  H12S24834   0.648   2.016  10.258 -0.4089  0.8554  0.2408
  200DOPC  C21324835   0.681   1.990  10.457  0.2865  0.8822  0.2705
  200DOPC  H13R24836   0.750   2.012  10.541  0.9945 -0.8834  0.1809
  200DOPC  H13S24837   0.663   1.880  10.453  1.1116  0.7599 -0.2938
  200DOPC  C21424838   0.539   2.073  10.475  0.1990 -0.1043 -0.2363
  200DOPC  H14R24839   0.481   2.069  10.380 -0.4549  2.8063 -0.0366
  200DOPC  H14S24840   0.565   2.178  10.497 -0.1791  0.8439 -3.6472
  200DOPC  C21524841   0.443   2.015  10.577  0.6302  0.3754 -0.2776
  200DOPC  H15R24842   0.485   2.012  10.680 -0.8744  0.6112  0.3657
  200DOPC  H15S24843   0.438   1.906  10.555  0.8280 -0.1713  2.0939
  200DOPC  C21624844   0.296   2.073  10.580  0.3787  0.3184  0.7513
  200DOPC  H16R24845   0.264   2.059  10.475  2.4698 -1.6408  0.2905
  200DOPC  H16S24846   0.285   2.181  10.603  1.4431  0.9073 -1.2398
  200DOPC  C21724847   0.200   1.995  10.670  0.7585  0.6871  0.7229
  200DOPC  H17R24848   0.241   1.892  10.677  0.3543  0.5404  1.0023
  200DOPC  H17S24849   0.105   1.997  10.612  1.0723  1.2795  0.2207
  200DOPC  C21824850   0.176   2.051  10.812  0.2617 -0.5011 -0.2547
  200DOPC  H18R24851   0.277   2.055  10.858  1.1018 -0.4392 -1.9960
  200DOPC  H18S24852   0.111   1.996  10.883 -2.4883  0.6539 -1.7381
  200DOPC  H18T24853   0.127   2.150  10.806 -0.5111 -0.9165 -1.1101
  200DOPC   C3324854   1.315   2.643  10.049  0.2537  0.4141 -0.1845
  200DOPC   H3X24855   1.208   2.640  10.076 -0.2725  0.3106 -2.1977
  200DOPC   H3Y24856   1.364   2.743  10.046  2.3410 -0.5383  0.0320
  200DOPC   C3424857   1.406   2.587  10.156  0.4031 -0.2122 -0.0969
  200DOPC   H4X24858   1.506   2.629  10.133 -0.4322  1.3611 -1.0306
  200DOPC   H4Y24859   1.405   2.477  10.169 -0.1372 -0.1226  0.7215
  200DOPC   C3524860   1.361   2.643  10.290  0.2182 -0.4515  0.1659
  200DOPC   H5X24861   1.259   2.603  10.309  0.2833 -1.5241 -1.5054
  200DOPC   H5Y24862   1.341   2.752  10.276  2.5025  0.1362  1.1165
  200DOPC   C3624863   1.439   2.611  10.416  0.3394  0.3644 -0.3780
  200DOPC   H6X24864   1.477   2.506  10.417 -0.5665  0.0244  1.0255
  200DOPC   H6Y24865   1.533   2.670  10.408  1.2928 -1.0727 -0.2039
  200DOPC   C3724866   1.372   2.655  10.550 -0.3963 -0.6477 -0.2209
  200DOPC   H7X24867   1.360   2.765  10.557  3.4052 -0.1059 -0.1223
  200DOPC   H7Y24868   1.273   2.604  10.544 -0.6726 -1.1035  4.3419
  200DOPC   C3824869   1.440   2.599  10.679  0.3047  0.3955 -0.4081
  200DOPC   H8X24870   1.461   2.494  10.651 -0.7406 -0.4024  1.6389
  200DOPC   H8Y24871   1.362   2.592  10.758 -0.7552 -1.1103 -1.5310
  200DOPC   C3924872   1.561   2.686  10.712 -0.7597  1.0627  0.2971
  200DOPC   H9X24873   1.623   2.716  10.626 -0.0664 -2.7584 -0.6950
  200DOPC  C31024874   1.606   2.716  10.838  0.3032  0.5062 -0.3882
  200DOPC  H10X24875   1.684   2.793  10.848  1.5338 -0.5226 -1.5854
  200DOPC  C31124876   1.557   2.654  10.965 -0.1985  0.4751 -0.0797
  200DOPC  H11X24877   1.469   2.587  10.951 -1.0556  1.3410  0.9518
  200DOPC  H11Y24878   1.528   2.727  11.043 -0.5125  0.7708 -0.4713
  200DOPC  C31224879   1.662   2.566  11.022  0.0520 -0.7109  0.6041
  200DOPC  H12X24880   1.752   2.627  11.043 -0.3510  0.1055  0.0259
  200DOPC  H12Y24881   1.688   2.486  10.949  1.5272 -0.0186  0.3433
  200DOPC  C31324882   1.625   2.509  11.151 -0.2149  0.1288 -0.1406
  200DOPC  H13X24883   1.607   2.596  11.219  3.4271  0.5699  0.4189
  200DOPC  H13Y24884   1.532   2.448  11.157  0.5432 -1.0243  0.1860
  200DOPC  C31424885   1.729   2.416  11.215 -0.3320  0.0370  0.4404
  200DOPC  H14X24886   1.757   2.348  11.131  0.7279  0.3875  0.4998
  200DOPC  H14Y24887   1.819   2.477  11.237  0.9031 -2.3485  2.6201
  200DOPC  C31524888   1.681   2.356  11.351  0.0120 -0.3854  0.4630
  200DOPC  H15X24889   1.642   2.253  11.342  1.7179 -1.0724  0.6557
  200DOPC  H15Y24890   1.606   2.429  11.388 -0.0004  0.3826 -1.0223
  200DOPC  C31624891   1.790   2.348  11.459  0.3785  0.1197 -0.5140
  200DOPC  H16X24892   1.802   2.451  11.501  1.7831  0.1012 -0.8176
  200DOPC  H16Y24893   1.744   2.284  11.537 -1.9590 -0.1710 -2.0271
  200DOPC  C31724894   1.918   2.292  11.401  0.2985 -0.2011  0.8654
  200DOPC  H17X24895   1.979   2.352  11.331 -0.5084  0.5370  0.7753
  200DOPC  H17Y24896   1.984   2.274  11.488  0.2055 -0.5396  0.8667
  200DOPC  C31824897   1.909   2.161  11.326  0.5166  0.1965 -0.0502
  200DOPC  H18X24898   1.884   2.076  11.393 -1.1466  1.1685  0.6186
  200DOPC  H18Y24899   1.844   2.157  11.236  0.3741  1.7681 -0.0434
  200DOPC  H18Z24900   2.013   2.130  11.301  0.7258 -0.0007  1.0249
  201SOD    SOD24901   6.300   2.303  15.816 -0.1231  0.2813 -0.1798
  202SOD    SOD24902   1.164   2.832   8.035  0.6399  0.3449 -0.2982
  203SOD    SOD24903   5.272   6.567  16.620 -0.5827 -0.3746  0.1681
  204SOD    SOD24904   3.436   1.482   7.320  0.3244 -0.1640  0.1671
  205SOD    SOD24905   5.884   2.721  14.988  0.0815 -0.3676 -0.2262
  206SOD    SOD24906   2.613   5.784   6.553  0.7965  0.1994  0.3099
  207SOD    SOD24907   5.980   0.201   7.857  0.1567 -0.1875  0.1688
  208SOD    SOD24908   1.489   2.979  14.993  0.0682  0.3930  0.6106
  209SOD    SOD24909   5.418   5.910   8.843 -0.0370  0.0345  0.4530
  210SOD    SOD24910   4.568   0.388  14.302  0.5165  0.2376 -0.1354
  211SOD    SOD24911   3.196   5.366  13.536  0.5338 -0.0600 -0.0788
  212SOD    SOD24912   3.371   0.162  13.300  0.4616 -0.4799 -0.2980
  213SOD    SOD24913   6.435   5.927   8.154 -0.3983  0.2857  0.2032
  214SOD    SOD24914   1.321   2.023  13.861 -0.9110  0.1691  0.1004
  215SOD    SOD24915   3.012   1.232  15.539  0.3822 -0.2480  0.2396
  216SOD    SOD24916   3.588   3.505  14.567  0.5509 -0.4205  0.0710
  217SOD    SOD24917   6.253   5.909   6.673  0.2199 -0.5892 -0.5205
  218SOD    SOD24918   4.177   6.621  16.026  0.2514  0.3866 -0.3368
  219SOD    SOD24919   5.028   5.927  14.177  0.0268 -0.1205 -0.3242
  220SOD    SOD24920   2.034   3.540   7.912  0.0456  0.0790  0.2551
  221SOD    SOD24921   4.536   4.851   5.306 -0.3751 -0.4526 -0.2126
  222SOD    SOD24922   3.592   5.110  13.233  0.3620  0.5456 -0.1099
  223SOD    SOD24923   5.862   4.529   5.801  0.5280  0.1326  0.1327
  224SOD    SOD24924   1.644   3.739   7.582 -0.0078  0.2353  0.0339
  225SOD    SOD24925   4.945   5.188   8.122 -0.6606 -0.2094  0.0991
  226SOD    SOD24926   2.566   4.677  15.054 -0.1124  0.3607  0.2424
  227CLA    CLA24927   0.160   2.828   8.609  0.2868  0.0014  0.2879
  228CLA    CLA24928   1.891   4.934   8.119  0.6227  0.4277 -0.0626
  229CLA    CLA24929   0.135   5.228   6.522  0.2178  0.4525  0.2621
  230CLA    CLA24930   4.959   0.011  14.904 -0.1621  0.0922 -0.0939
  231CLA    CLA24931   3.906   1.735  16.209  0.3377 -0.1969  0.1198
  232CLA    CLA24932   4.117   2.028  15.807  0.1099 -0.0137  0.4169
  233CLA    CLA24933   5.679   6.436  16.391 -0.1363  0.2509  0.1067
  234CLA    CLA24934   2.237   5.181  16.077 -0.2318 -0.3107 -0.6425
  235CLA    CLA24935   3.486   5.484   6.611  0.1376 -0.1383 -0.1954
  236CLA    CLA24936   5.584   6.541  14.672 -0.3653  0.4790  0.1894
  237CLA    CLA24937   1.680   0.778  15.592 -0.3187 -0.0491 -0.3736
  238CLA    CLA24938   6.194   5.639   7.093  0.1853  0.2146 -0.0696
  239CLA    CLA24939   2.842   2.220   6.135  0.5786  0.0693 -0.0050
  240CLA    CLA24940   6.249   1.355  14.969 -0.2172 -0.2023 -0.1882
  241CLA    CLA24941   2.905   5.286   7.298  0.2233  0.1334 -0.1074
  242CLA    CLA24942   6.555   4.180  14.687  0.1619 -0.0030 -0.1802
  243CLA    CLA24943   1.593   3.930   8.281 -0.2864  0.3349 -0.0804
  244CLA    CLA24944   3.382   2.691   6.426  0.0537  0.1494  0.0718
  245CLA    CLA24945   2.423   3.559   7.052  0.4024 -0.1832  0.2006
  246CLA    CLA24946   3.015   5.442  14.510 -0.3204  0.2348  0.4744
  247CLA    CLA24947   4.087   5.890   6.410  0.2876 -0.1449 -0.1096
  248CLA    CLA24948   4.398   5.336   5.696  0.1678  0.1065 -0.1178
  249CLA    CLA24949   4.462   0.677   7.662 -0.2543  0.1342  0.2789
  250CLA    CLA24950   0.374   2.720  15.437  0.1833  0.0389  0.2851
  251CLA    CLA24951   4.406   6.092  14.191  0.4833  0.4096 -0.2971
  252CLA    CLA24952   4.684   6.114   7.603  0.6561 -0.2546 -0.4572
  253TIP3   OH224953   0.996   3.032  16.473  0.0242  0.0638 -0.0607
  253TIP3    H124954   0.982   3.094  16.544  1.5625  1.6747 -1.0881
  253TIP3    H224955   0.988   3.083  16.393 -1.0818 -1.5861 -1.0737
  254TIP3   OH224956   5.696   1.284  14.594 -0.1018 -0.4224 -0.9253
  254TIP3    H124957   5.632   1.354  14.579 -0.6108 -1.0207 -1.6711
  254TIP3    H224958   5.642   1.205  14.606  0.4225 -0.5399  0.9320
  255TIP3   OH224959   3.813   3.110  15.900 -0.2051  0.1819  0.1860
  255TIP3    H124960   3.737   3.168  15.890 -0.1693  0.4188  1.1361
  255TIP3    H224961   3.887   3.170  15.913  0.0424 -0.0587 -0.1060
  256TIP3   OH224962   4.304   1.594  16.322 -0.4735  0.3710 -0.0521
  256TIP3    H124963   4.276   1.530  16.256 -1.3273  1.9059 -1.2314
  256TIP3    H224964   4.326   1.672  16.272  4.7915 -0.1846  0.8786
  257TIP3   OH224965   1.307   5.664  16.523 -0.6093 -0.7059 -0.6067
  257TIP3    H124966   1.356   5.744  16.538  0.1624 -1.0234 -1.3926
  257TIP3    H224967   1.277   5.638  16.611  0.1260 -0.1969 -0.1956
  258TIP3   OH224968   3.832   4.221  14.179 -0.1618 -0.0271  0.0523
  258TIP3    H124969   3.770   4.167  14.130 -0.8172  0.9039 -0.1686
  258TIP3    H224970   3.918   4.183  14.159 -0.6048 -0.9909 -0.0759
  259TIP3   OH224971   2.673   3.165  16.460 -0.5882 -0.4239 -0.0116
  259TIP3    H124972   2.700   3.075  16.474  0.9625 -0.3694 -2.1205
  259TIP3    H224973   2.741   3.218  16.502  0.3284 -0.2853 -1.5921
  260TIP3   OH224974   5.004   2.353  15.762  0.5090  0.0358 -0.6237
  260TIP3    H124975   5.037   2.411  15.831  1.0834  0.4743 -1.2442
  260TIP3    H224976   5.033   2.266  15.788 -0.5350 -0.0205  0.4214
  261TIP3   OH224977   6.585   1.939  15.365  0.8404 -0.5530 -0.0588
  261TIP3    H124978   6.557   1.968  15.278  1.2753  1.8238  0.5004
  261TIP3    H224979   6.655   1.876  15.348 -0.8111 -2.1186 -1.4104
  262TIP3   OH224980   3.655   0.113  13.564  0.5382  0.0242 -0.0733
  262TIP3    H124981   3.646   0.184  13.499 -0.6055  0.1483  0.1907
  262TIP3    H224982   3.716   0.051  13.523  1.6695  1.2127 -0.2510
  263TIP3   OH224983   2.909   0.459  15.668  0.3192  0.2403 -0.9095
  263TIP3    H124984   2.895   0.391  15.601 -0.1873 -1.1393  0.5293
  263TIP3    H224985   2.934   0.536  15.618 -0.2183 -0.6795 -2.7145
  264TIP3   OH224986   6.213   1.406  17.069  0.3717  0.0931 -0.3463
  264TIP3    H124987   6.244   1.474  17.129  2.0892 -0.6463 -0.3416
  264TIP3    H224988   6.191   1.453  16.989  2.0137  0.6437 -0.5133
  265TIP3   OH224989   1.414   4.902  15.711  0.4165 -0.0880 -0.5038
  265TIP3    H124990   1.335   4.849  15.695 -0.0020  0.6220 -0.8739
  265TIP3    H224991   1.484   4.838  15.724 -0.2725 -0.7404  0.1232
  266TIP3   OH224992   3.219   6.691  17.287 -0.8692  0.9783 -0.4295
  266TIP3    H124993   3.228   6.635  17.209 -0.3466  0.9002 -0.3167
  266TIP3    H224994   3.283   6.760  17.274  0.5403 -0.0506  0.7960
  267TIP3   OH224995   3.844   0.957  16.498 -0.1648  0.1320  0.0630
  267TIP3    H124996   3.793   0.929  16.422  0.3807 -2.6608  0.6300
  267TIP3    H224997   3.780   0.997  16.557 -0.8742  0.7792 -1.1131
  268TIP3   OH224998   0.867   2.673  14.337  0.0249  0.0251  0.3633
  268TIP3    H124999   0.813   2.692  14.261  0.8948  1.3439  0.0406
  268TIP3    H225000   0.817   2.608  14.387 -1.8014  1.0992  0.0190
  269TIP3   OH225001   2.237   4.770  16.744  0.2052  0.2654 -0.5746
  269TIP3    H125002   2.242   4.745  16.836 -1.2186 -0.7404 -0.7452
  269TIP3    H225003   2.329   4.784  16.718  0.9322 -2.5578  0.1677
  270TIP3   OH225004   6.085   0.394  16.571  0.5934 -0.1333 -0.6108
  270TIP3    H125005   6.103   0.470  16.516 -1.8086  1.1980  0.2908
  270TIP3    H225006   6.044   0.331  16.512  0.4194  0.2360 -0.8887
  271TIP3   OH225007   5.329   4.368  13.964 -0.3461 -0.1534 -0.3026
  271TIP3    H125008   5.361   4.441  13.912  1.0213  0.0016  0.7013
  271TIP3    H225009   5.313   4.298  13.900 -0.9543  0.7561 -1.1749
  272TIP3   OH225010   3.115   5.207  14.304 -0.3687 -0.4243  0.1462
  272TIP3    H125011   3.098   5.295  14.339 -0.3582 -0.3917  0.0708
  272TIP3    H225012   3.033   5.182  14.262  0.0948  0.1923 -1.1929
  273TIP3   OH225013   5.100   4.773  15.522 -0.5758  0.0992 -0.5464
  273TIP3    H125014   5.194   4.787  15.520 -0.4843  0.0660  1.5417
  273TIP3    H225015   5.071   4.792  15.432  1.4388 -0.2888 -1.3208
  274TIP3   OH225016   5.171   0.058  16.618  0.2311 -0.0465  0.1261
  274TIP3    H125017   5.090   0.058  16.670 -1.0314  1.3896 -1.7412
  274TIP3    H225018   5.155   0.119  16.547  2.9198  0.1221 -0.4477
  275TIP3   OH225019   6.434   6.278  14.678  0.1693 -0.2045 -0.3021
  275TIP3    H125020   6.350   6.290  14.723 -0.7687 -2.0684 -1.4278
  275TIP3    H225021   6.495   6.251  14.747 -0.7087 -0.9444  0.2041
  276TIP3   OH225022   6.186   4.266  14.215  0.0506 -0.4032 -0.1844
  276TIP3    H125023   6.227   4.327  14.154 -0.0356  0.0986  0.2514
  276TIP3    H225024   6.236   4.275  14.296  0.0203 -0.8927 -0.1063
  277TIP3   OH225025   1.580   6.702  14.856  0.2218  0.1066  0.0321
  277TIP3    H125026   1.667   6.739  14.873  0.4431 -0.1556 -0.4989
  277TIP3    H225027   1.551   6.671  14.942  0.3501  0.8204  0.3461
  278TIP3   OH225028   5.302   0.104  13.881 -0.4206 -0.5456  0.0089
  278TIP3    H125029   5.260   0.144  13.958  1.0943 -0.3137  0.7607
  278TIP3    H225030   5.361   0.038  13.918  1.6194  0.7432 -0.7895
  279TIP3   OH225031   3.419   1.099  16.345 -0.1481  0.0265 -0.5260
  279TIP3    H125032   3.401   1.007  16.325 -0.3554 -0.2197  0.7065
  279TIP3    H225033   3.505   1.115  16.307  0.3659 -0.9894  0.1787
  280TIP3   OH225034   4.443   6.686  14.459 -1.1308  0.1346 -0.1610
  280TIP3    H125035   4.418   6.644  14.542  0.0888  1.0320  0.7071
  280TIP3    H225036   4.528   6.648  14.438 -0.7769  0.9470 -0.2380
  281TIP3   OH225037   3.105   2.826  15.484 -0.2174  0.0659 -0.0380
  281TIP3    H125038   3.178   2.841  15.543  2.1305 -1.3175 -2.3989
  281TIP3    H225039   3.087   2.912  15.446  2.2337  0.0038 -1.5553
  282TIP3   OH225040   3.101   3.945  14.507 -0.0149  0.1962  0.0161
  282TIP3    H125041   3.046   3.928  14.584  1.1859 -0.5263  0.7611
  282TIP3    H225042   3.093   4.039  14.492 -1.2196  0.1494  0.2682
  283TIP3   OH225043   6.161   2.456  15.686  0.5418  0.1136  0.3350
  283TIP3    H125044   6.091   2.496  15.738  0.8494  0.0577  0.7995
  283TIP3    H225045   6.205   2.529  15.644  0.1849  0.1473  0.0152
  284TIP3   OH225046   1.314   0.657   7.914 -0.1178 -0.1918  0.2454
  284TIP3    H125047   1.336   0.566   7.936 -0.3356 -0.5861 -1.0829
  284TIP3    H225048   1.349   0.708   7.987 -0.3210 -1.3679  1.2083
  285TIP3   OH225049   0.920   5.907   6.528  0.4381 -0.2748  0.0997
  285TIP3    H125050   0.980   5.981   6.543 -0.0997  0.4401 -1.1070
  285TIP3    H225051   0.834   5.948   6.517  0.4404 -0.7996 -2.7391
  286TIP3   OH225052   4.211   4.417   6.834  0.0926 -0.1307 -0.8690
  286TIP3    H125053   4.274   4.352   6.801 -0.3292 -0.5084 -0.9431
  286TIP3    H225054   4.128   4.370   6.836  0.3340 -0.6833  2.2806
  287TIP3   OH225055   5.630   6.085   6.955 -0.0324 -0.7884 -0.0863
  287TIP3    H125056   5.665   6.030   7.025 -4.3505 -1.3425  1.9560
  287TIP3    H225057   5.591   6.022   6.894  2.0191 -0.1993 -2.1405
  288TIP3   OH225058   4.837   4.941   7.661 -0.9558  0.0155 -0.1942
  288TIP3    H125059   4.832   4.965   7.754  1.8407 -1.0723  0.3207
  288TIP3    H225060   4.849   4.846   7.661 -0.4525  0.0590 -1.6545
  289TIP3   OH225061   1.015   1.834   6.455  0.4413 -0.6508 -0.4440
  289TIP3    H125062   1.047   1.890   6.526  2.8714 -2.0114 -0.3760
  289TIP3    H225063   0.975   1.894   6.393  2.6735  1.1416 -0.2294
  290TIP3   OH225064   6.401   4.443   6.983 -0.2911 -0.3655 -0.0521
  290TIP3    H125065   6.382   4.520   6.930  2.1793  1.7742  1.8500
  290TIP3    H225066   6.380   4.470   7.073  0.8302 -1.7998  0.6916
  291TIP3   OH225067   5.138   1.266   6.769  0.2922  0.0156  0.3099
  291TIP3    H125068   5.045   1.246   6.774  0.4526 -0.5713  1.4099
  291TIP3    H225069   5.143   1.357   6.740 -0.6942  0.7046  2.1833
  292TIP3   OH225070   0.468   4.085   8.581 -0.2152 -0.1229 -0.2119
  292TIP3    H125071   0.433   4.170   8.609 -2.1352 -1.3559  1.4236
  292TIP3    H225072   0.437   4.076   8.490 -1.7123  0.0995  0.2528
  293TIP3   OH225073   5.305   2.486   6.673 -0.2604  0.1608 -0.2317
  293TIP3    H125074   5.302   2.430   6.595 -0.6709 -2.7172  1.6990
  293TIP3    H225075   5.386   2.461   6.718 -1.0866  0.1755  1.3332
  294TIP3   OH225076   5.101   6.032   6.204  0.8523  0.0318  0.0247
  294TIP3    H125077   5.121   6.124   6.217 -1.3376  0.6944 -0.7648
  294TIP3    H225078   5.140   6.011   6.119  2.4838 -0.1941  0.7824
  295TIP3   OH225079   1.717   5.558   6.387 -0.1537  0.2925 -0.0643
  295TIP3    H125080   1.646   5.500   6.361  0.1402  0.4616 -1.2928
  295TIP3    H225081   1.674   5.642   6.404 -0.3839  0.1104  0.2568
  296TIP3   OH225082   3.122   0.641   7.818 -0.2900 -0.4130 -0.0746
  296TIP3    H125083   3.152   0.686   7.739 -0.3190  0.8014  0.5776
  296TIP3    H225084   3.194   0.582   7.841  1.0994  1.4662  0.6998
  297TIP3   OH225085   5.120   6.490   7.756 -0.1563  0.7108 -0.8224
  297TIP3    H125086   5.089   6.575   7.788 -0.8008  0.4864 -0.8420
  297TIP3    H225087   5.078   6.479   7.671  1.7053  1.3914 -1.8916
  298TIP3   OH225088   1.801   1.615   6.027 -0.2139  0.5630  0.1186
  298TIP3    H125089   1.715   1.572   6.027 -0.1252  0.2365  2.3377
  298TIP3    H225090   1.800   1.670   6.105  0.7500  2.4214 -1.1164
  299TIP3   OH225091   2.063   5.885   8.017 -0.4267 -0.2425  0.2409
  299TIP3    H125092   2.056   5.970   8.060  2.8118  0.1059  0.3794
  299TIP3    H225093   2.081   5.905   7.925 -0.8587 -0.8305  0.0156
  300TIP3   OH225094   4.647   1.605   6.751 -0.2125  0.0777  0.0112
  300TIP3    H125095   4.668   1.551   6.674  0.9700 -0.6930  0.8207
  300TIP3    H225096   4.557   1.633   6.738  0.2655  0.7521 -2.1023
  301TIP3   OH225097   3.246   1.423   5.996  0.3182 -0.4231 -0.9717
  301TIP3    H125098   3.326   1.371   5.987  1.0917  0.2314  1.4437
  301TIP3    H225099   3.241   1.444   6.089 -2.3418  0.1290 -1.1521
  302TIP3   OH225100   1.279   5.230   6.177  0.3381 -0.3742  0.2439
  302TIP3    H125101   1.281   5.299   6.111  0.9968 -1.3687 -0.8301
  302TIP3    H225102   1.187   5.225   6.204 -0.1325 -0.5653 -1.3000
  303TIP3   OH225103   4.307   0.944   6.365 -0.1385 -0.2227  0.7897
  303TIP3    H125104   4.305   1.021   6.421 -0.8571  1.2349 -1.1287
  303TIP3    H225105   4.220   0.905   6.374 -0.7365  0.7889 -0.2603
  304TIP3   OH225106   1.577   6.302   5.748  1.0466 -0.0927 -0.1805
  304TIP3    H125107   1.544   6.227   5.798 -1.1332  1.0993  0.3350
  304TIP3    H225108   1.659   6.325   5.790  1.8506 -2.2228 -0.4430
  305TIP3   OH225109   6.054   6.226   8.433 -0.1588 -0.0616 -0.7157
  305TIP3    H125110   6.058   6.255   8.341 -1.8251 -0.3627 -0.9064
  305TIP3    H225111   5.995   6.289   8.475 -0.7759 -0.9380 -0.2541
  306TIP3   OH225112   5.349   1.072   8.911  0.0286  0.1464  0.5726
  306TIP3    H125113   5.284   1.100   8.976  0.4684  0.8966  0.6995
  306TIP3    H225114   5.396   1.152   8.889 -0.1818 -0.0841 -0.7508
  307TIP3   OH225115   3.929   3.000   8.012 -0.1579 -0.7421  0.6924
  307TIP3    H125116   4.019   2.988   8.042  0.0997 -0.8355 -0.0886
  307TIP3    H225117   3.921   2.941   7.937 -0.4677  0.2120 -0.0483
  308TIP3   OH225118   0.554   1.734   5.481 -0.3928 -0.2757 -0.1467
  308TIP3    H125119   0.648   1.744   5.490 -0.4584 -0.6571  1.2840
  308TIP3    H225120   0.520   1.824   5.481 -0.0785 -0.1561 -0.0233
  309TIP3   OH225121   0.634   3.009   5.698 -0.4338 -0.0125  0.0072
  309TIP3    H125122   0.718   3.051   5.714 -0.5187  0.1617  0.0084
  309TIP3    H225123   0.603   2.982   5.785  0.2330 -1.2855 -0.1339
  310TIP3   OH225124   4.883   0.330   7.173 -0.6073 -0.5136  0.0106
  310TIP3    H125125   4.970   0.371   7.180 -1.1036  0.7337 -0.7780
  310TIP3    H225126   4.844   0.343   7.260 -0.8938  1.0613 -0.3254
  311TIP3   OH225127   2.886   4.784   5.241  0.0277  0.0374 -0.2291
  311TIP3    H125128   2.802   4.742   5.222 -0.5622  1.3961 -0.7305
  311TIP3    H225129   2.930   4.789   5.156 -0.6412  1.9353 -0.5038
  312TIP3   OH225130   1.304   2.265   7.144  0.0263 -0.4275 -0.5049
  312TIP3    H125131   1.250   2.210   7.088  1.1891 -1.7618 -0.3777
  312TIP3    H225132   1.319   2.211   7.222  1.1241  0.1035 -0.3360
  313TIP3   OH225133   1.114   1.636   6.292 -0.1499 -0.3836 -0.0845
  313TIP3    H125134   1.084   1.678   6.372  0.4729  1.7914 -0.9290
  313TIP3    H225135   1.086   1.694   6.222  1.0303 -1.2266 -1.3151
  314TIP3   OH225136   5.451   3.054   6.868 -0.1528 -0.1503  0.3055
  314TIP3    H125137   5.547   3.050   6.863 -0.2356 -0.5259 -1.9952
  314TIP3    H225138   5.431   3.030   6.958  1.7993 -3.0075  0.1045
  315TIP3   OH225139   4.230   4.903   7.897  0.3659  0.0281 -0.2651
  315TIP3    H125140   4.150   4.862   7.929  0.2629  0.5503  0.1509
  315TIP3    H225141   4.227   4.889   7.802  0.3869 -1.0092 -0.1282
  316TIP3   OH225142   1.962   1.316   7.200  0.0720  0.0670 -0.1352
  316TIP3    H125143   2.027   1.316   7.129  0.4927  1.8016  0.2196
  316TIP3    H225144   1.964   1.226   7.234  1.9418 -0.0465 -0.4495
  317TIP3   OH225145   4.626   6.327   7.302 -0.5695  0.0441  0.1473
  317TIP3    H125146   4.700   6.277   7.337 -1.0648 -1.3720 -0.7672
  317TIP3    H225147   4.661   6.369   7.223 -0.7706 -0.7587 -0.3769
  318TIP3   OH225148   0.562   1.277   6.134 -0.0940  0.0667 -0.4172
  318TIP3    H125149   0.514   1.256   6.055 -1.1364 -0.1743  0.2668
  318TIP3    H225150   0.596   1.193   6.165  0.4136  0.1761 -0.6557
  319TIP3   OH225151   1.939   2.150   7.718 -0.1219 -0.1723 -0.9024
  319TIP3    H125152   2.005   2.217   7.737  0.2898 -0.2359 -2.0271
  319TIP3    H225153   1.903   2.175   7.632  1.3111 -2.3288 -2.2364
  320TIP3   OH225154   1.636   6.590   9.112  0.0243  0.2508  0.5513
  320TIP3    H125155   1.695   6.597   9.187  0.5400 -0.1013  0.1829
  320TIP3    H225156   1.650   6.502   9.078 -0.8965  0.0828  0.6063
  321TIP3   OH225157   2.316   1.674   8.056  0.2223  0.1029  0.0264
  321TIP3    H125158   2.334   1.709   8.144  1.2212 -0.6164  0.1358
  321TIP3    H225159   2.280   1.588   8.072  2.6975 -1.0789 -0.2246
  322TIP3   OH225160   0.822   5.340   9.277  0.2758  0.3925 -0.3042
  322TIP3    H125161   0.818   5.287   9.357  2.9699 -0.0927 -0.4068
  322TIP3    H225162   0.761   5.297   9.217  0.0039 -0.6634  0.6883
  323TIP3   OH225163   5.974   4.588  14.964  0.0765 -0.2249  0.5449
  323TIP3    H125164   5.924   4.540  14.899  0.2819 -0.3358  0.4687
  323TIP3    H225165   5.917   4.592  15.041 -0.2791  0.1559  0.2650
  324TIP3   OH225166   5.697   0.884  16.357  0.3256 -0.1631 -0.9293
  324TIP3    H125167   5.777   0.891  16.306  0.6875  0.4806 -0.2917
  324TIP3    H225168   5.718   0.924  16.442 -0.4714 -0.5627 -0.5252
  325TIP3   OH225169   0.938   6.523  15.960  0.7643  0.3748 -0.2786
  325TIP3    H125170   1.010   6.586  15.954  0.1092  1.0593 -1.2729
  325TIP3    H225171   0.905   6.533  16.049  1.2500  0.7948 -0.1377
  326TIP3   OH225172   2.367   3.679  15.767  0.0418 -0.1230  0.4131
  326TIP3    H125173   2.283   3.636  15.749  0.4766 -0.7159 -0.2443
  326TIP3    H225174   2.343   3.761  15.811 -0.8796 -0.2729  0.2098
  327TIP3   OH225175   6.649   4.003  16.327 -0.5302  0.3105  0.0430
  327TIP3    H125176   6.574   3.953  16.357  0.3090 -0.2238  1.3412
  327TIP3    H225177   6.612   4.073  16.272 -1.7851 -1.2250 -1.1494
  328TIP3   OH225178   4.141   6.403  14.660  0.0881  0.2943  0.2010
  328TIP3    H125179   4.059   6.356  14.679 -0.0311  0.8839  1.2652
  328TIP3    H225180   4.202   6.372  14.727  0.9713 -0.6635 -1.0168
  329TIP3   OH225181   1.789   3.948  15.608  0.0534  0.4033 -0.2442
  329TIP3    H125182   1.698   3.979  15.612 -0.8932 -2.0212 -0.8771
  329TIP3    H225183   1.797   3.887  15.682  0.9114  0.0107 -0.6459
  330TIP3   OH225184   3.402   0.654  15.847  0.2019 -0.6772  0.1577
  330TIP3    H125185   3.416   0.749  15.843  0.1977 -0.7017 -0.6606
  330TIP3    H225186   3.486   0.617  15.820 -0.5785 -0.8594 -2.1882
  331TIP3   OH225187   6.625   6.647  17.069 -0.6326 -0.3402 -0.1354
  331TIP3    H125188   6.705   6.659  17.120 -0.5572 -0.1113 -0.3042
  331TIP3    H225189   6.567   6.719  17.096 -1.5824 -1.6472  1.4603
  332TIP3   OH225190   1.805   2.578  14.802 -0.3813  0.8000  0.0800
  332TIP3    H125191   1.750   2.546  14.873  0.1432 -1.2864 -0.3790
  332TIP3    H225192   1.771   2.534  14.724 -1.3238  3.4901 -1.1279
  333TIP3   OH225193   4.573   1.645  16.897  0.0156  0.5241 -0.1220
  333TIP3    H125194   4.609   1.670  16.812 -1.0789  0.4693 -0.6114
  333TIP3    H225195   4.479   1.657  16.889 -0.0024  2.1217  1.6351
  334TIP3   OH225196   2.935   0.692  15.501  0.4480 -0.2994 -0.2097
  334TIP3    H125197   2.921   0.711  15.408  1.4184  0.5303 -0.1954
  334TIP3    H225198   2.890   0.764  15.547  1.1301  0.0500 -0.0766
  335TIP3   OH225199   3.932   4.655  15.850  0.2818 -0.0982 -0.3994
  335TIP3    H125200   3.850   4.610  15.831  1.5766 -2.0109 -1.9725
  335TIP3    H225201   3.959   4.621  15.935  0.2171 -0.7238 -0.6234
  336TIP3   OH225202   3.190   1.189  15.094  0.2670  0.3152  0.6914
  336TIP3    H125203   3.145   1.205  15.011  0.5819  0.9231  0.6373
  336TIP3    H225204   3.265   1.134  15.070  1.1634  1.6509  0.3488
  337TIP3   OH225205   2.335   1.013  14.800 -0.4734  0.2626  0.0101
  337TIP3    H125206   2.426   1.029  14.773 -0.0822 -1.1234  0.4092
  337TIP3    H225207   2.343   0.951  14.872 -1.8559 -2.5700 -2.0961
  338TIP3   OH225208   0.807   4.554  15.426 -0.8206 -0.4181 -0.2590
  338TIP3    H125209   0.814   4.649  15.419 -0.3981 -0.5172 -1.6909
  338TIP3    H225210   0.868   4.530  15.496  2.4474  0.0768 -2.6668
  339TIP3   OH225211   1.824   6.023  14.182  0.0545 -0.0591  0.3412
  339TIP3    H125212   1.832   6.064  14.096 -1.7615  2.0892  1.0944
  339TIP3    H225213   1.909   6.035  14.223 -0.3404  3.0243  0.4648
  340TIP3   OH225214   1.143   2.330  13.907  0.3558  0.5596  0.4115
  340TIP3    H125215   1.072   2.383  13.943 -0.4367 -0.9373  1.2054
  340TIP3    H225216   1.150   2.357  13.816 -0.0600  1.9351  0.7632
  341TIP3   OH225217   4.431   2.903  15.010 -0.6075  0.1649 -0.0267
  341TIP3    H125218   4.519   2.941  15.010 -0.7839  0.6391 -1.3868
  341TIP3    H225219   4.445   2.809  15.008 -0.1109  0.2452 -0.6777
  342TIP3   OH225220   3.714   0.268  17.016  0.1090 -0.6367 -0.3962
  342TIP3    H125221   3.795   0.315  17.034 -0.4102 -0.1060  0.6783
  342TIP3    H225222   3.658   0.333  16.973  0.4833 -1.2054 -1.7939
  343TIP3   OH225223   6.363   1.147  15.444  0.1624  0.2353 -0.4649
  343TIP3    H125224   6.379   1.150  15.539  1.7949 -0.0212 -0.6945
  343TIP3    H225225   6.376   1.237  15.415 -0.4495  0.3358 -0.4493
  344TIP3   OH225226   1.260   6.526  17.076  0.4141 -0.3579  0.1340
  344TIP3    H125227   1.342   6.565  17.107 -0.0735  1.8847 -1.2161
  344TIP3    H225228   1.192   6.570  17.126 -0.1024 -0.2764 -0.6312
  345TIP3   OH225229   3.767   6.587  14.418 -0.9481 -0.0300  0.2893
  345TIP3    H125230   3.848   6.637  14.408 -0.2555 -0.8284  1.6949
  345TIP3    H225231   3.744   6.562  14.328 -0.1619  0.9900 -0.2211
  346TIP3   OH225232   5.584   1.836  15.058 -0.0139  0.4604 -0.1167
  346TIP3    H125233   5.586   1.823  15.153 -0.2283  0.0064 -0.1723
  346TIP3    H225234   5.675   1.822  15.031 -0.5937 -4.2216 -0.5740
  347TIP3   OH225235   2.123   0.442  14.782  0.2157  0.1261  0.2925
  347TIP3    H125236   2.106   0.450  14.876  1.7024 -1.1488  0.7107
  347TIP3    H225237   2.108   0.530  14.747 -0.4162  0.6029  1.7070
  348TIP3   OH225238   2.723   5.871  15.537  0.2167 -0.4153 -0.4655
  348TIP3    H125239   2.786   5.841  15.602  1.0140 -0.8659 -1.4134
  348TIP3    H225240   2.667   5.794  15.521  0.5630 -0.5787 -0.9238
  349TIP3   OH225241   4.590   5.690  16.641 -0.3414 -0.2746  0.6581
  349TIP3    H125242   4.516   5.749  16.626 -0.1159  0.4308  2.1953
  349TIP3    H225243   4.550   5.604  16.650 -1.4100  0.4208  4.2913
  350TIP3   OH225244   5.894   3.155  14.157 -0.6927 -0.1271  0.3773
  350TIP3    H125245   5.807   3.192  14.172  0.0848  0.9624  2.6935
  350TIP3    H225246   5.946   3.184  14.232  1.2621 -2.0674 -0.1130
  351TIP3   OH225247   6.436   5.318  14.071 -0.8486 -0.4539  0.5197
  351TIP3    H125248   6.416   5.256  14.141 -0.2133 -0.0323  1.0878
  351TIP3    H225249   6.358   5.374  14.066 -1.3230 -1.1396  0.1700
  352TIP3   OH225250   4.024   3.979  13.423  0.6231 -1.1367  0.2927
  352TIP3    H125251   3.947   3.925  13.441 -0.2531 -1.6400 -3.8430
  352TIP3    H225252   4.085   3.919  13.379  0.4899  0.5898 -2.5272
  353TIP3   OH225253   1.253   2.844  16.095  0.0482  0.1076  0.6113
  353TIP3    H125254   1.337   2.872  16.132  0.2962 -0.1343  0.2412
  353TIP3    H225255   1.243   2.897  16.016 -0.5047  0.6589  1.0433
  354TIP3   OH225256   2.352   1.622  15.636 -0.2947 -0.2329  0.3732
  354TIP3    H125257   2.423   1.667  15.681 -0.0302 -2.0053  1.8779
  354TIP3    H225258   2.273   1.648  15.684 -0.1328 -1.3194  1.2944
  355TIP3   OH225259   5.999   2.299  14.063 -0.4848  0.1610  0.1273
  355TIP3    H125260   5.925   2.290  14.002 -2.1034  1.1502  1.8569
  355TIP3    H225261   6.038   2.383  14.040 -0.0327 -0.2239 -0.5867
  356TIP3   OH225262   3.071   0.468  14.230  0.2464  0.4260  0.0954
  356TIP3    H125263   3.119   0.399  14.186  1.6130  1.3012  0.1435
  356TIP3    H225264   3.113   0.475  14.316 -0.9233  0.2365  0.6921
  357TIP3   OH225265   1.092   5.660  14.230 -0.3881  0.2645 -0.0485
  357TIP3    H125266   1.120   5.568  14.234 -1.8313 -0.2321 -0.7076
  357TIP3    H225267   1.119   5.689  14.143 -3.3910 -0.7951 -1.4809
  358TIP3   OH225268   1.312   2.025  15.674 -0.5543  0.3603  0.2750
  358TIP3    H125269   1.306   1.943  15.723 -1.7578  1.3613  1.9033
  358TIP3    H225270   1.225   2.064  15.682 -0.3632  1.2413 -1.5098
  359TIP3   OH225271   5.698   3.234  15.866 -0.0529  0.1067 -0.4265
  359TIP3    H125272   5.635   3.221  15.794 -0.5440  2.3718 -0.4714
  359TIP3    H225273   5.646   3.269  15.937  1.1148  1.9354 -0.4279
  360TIP3   OH225274   6.510   5.940  16.441 -0.3414 -0.0265 -0.2261
  360TIP3    H125275   6.515   5.909  16.531  0.7174  0.8046  0.0207
  360TIP3    H225276   6.596   5.918  16.404 -1.0699 -1.1776 -1.3199
  361TIP3   OH225277   5.886   3.217  16.492  0.0828  0.1552 -0.0033
  361TIP3    H125278   5.958   3.272  16.462 -0.5026  1.3715  0.7272
  361TIP3    H225279   5.825   3.215  16.418  0.3533  0.0389 -0.2246
  362TIP3   OH225280   4.319   0.063  13.671 -0.0707  0.1829 -0.4232
  362TIP3    H125281   4.298   0.112  13.750  0.4652  0.9088 -0.7243
  362TIP3    H225282   4.235   0.028  13.641 -0.8556  2.6556 -1.3676
  363TIP3   OH225283   0.440   1.052  15.000  0.0802  0.7718 -0.3386
  363TIP3    H125284   0.410   1.140  15.025 -1.6674  0.3345 -0.7820
  363TIP3    H225285   0.384   1.028  14.926  0.7833 -0.5730 -0.4557
  364TIP3   OH225286   1.505   1.290  15.542  0.2982 -0.5014  0.2122
  364TIP3    H125287   1.483   1.199  15.559 -0.3453 -0.5457 -0.7998
  364TIP3    H225288   1.519   1.328  15.629 -1.9710 -0.9306  0.8085
  365TIP3   OH225289   5.861   6.687  16.299 -0.1400  0.2213  0.3655
  365TIP3    H125290   5.945   6.653  16.328  0.4021  1.2800  0.0890
  365TIP3    H225291   5.809   6.609  16.279  0.2103 -0.4882  2.0494
  366TIP3   OH225292   6.275   5.194  14.545  0.2412 -0.1952  0.3449
  366TIP3    H125293   6.366   5.208  14.570 -0.0930  0.2284  1.3882
  366TIP3    H225294   6.278   5.171  14.452  1.5214 -1.5067  0.6793
  367TIP3   OH225295   2.868   6.353  16.663 -0.0762 -0.2934 -0.6938
  367TIP3    H125296   2.952   6.326  16.626  0.4373  2.1284 -1.4499
  367TIP3    H225297   2.804   6.326  16.596  0.3546 -0.0564 -1.2115
  368TIP3   OH225298   0.954   2.375  14.957  0.0124  0.4418 -0.1611
  368TIP3    H125299   1.035   2.416  14.987  1.5194 -0.5956 -2.5120
  368TIP3    H225300   0.925   2.431  14.885  0.2566 -0.7345 -1.2032
  369TIP3   OH225301   3.244   4.044  15.574  0.3500  0.8843 -0.1796
  369TIP3    H125302   3.309   3.994  15.622 -2.8601 -1.1454  2.5069
  369TIP3    H225303   3.250   4.132  15.609  0.2200  0.1806  1.7156
  370TIP3   OH225304   4.499   1.968  14.199  0.1372  0.1173 -0.0735
  370TIP3    H125305   4.469   2.052  14.233 -1.0929 -0.0306 -0.7487
  370TIP3    H225306   4.541   1.989  14.116  0.8234  0.1807  0.2826
  371TIP3   OH225307   5.486   2.110  15.303  0.2882  0.0330  0.1590
  371TIP3    H125308   5.544   2.068  15.366  0.5497 -0.0763 -0.1503
  371TIP3    H225309   5.423   2.158  15.356 -0.2313 -1.0273  0.5347
  372TIP3   OH225310   3.575   1.821  16.755 -0.2053  0.7693  0.2933
  372TIP3    H125311   3.569   1.883  16.827  0.6766 -0.4343  1.4580
  372TIP3    H225312   3.534   1.865  16.681  1.2452  3.1215  0.8052
  373TIP3   OH225313   5.871   3.438  16.709  0.8172 -0.1209  0.1723
  373TIP3    H125314   5.900   3.508  16.649  1.1958 -0.0768  0.3973
  373TIP3    H225315   5.898   3.357  16.666  0.0201 -0.1505 -0.2796
  374TIP3   OH225316   2.732   6.404  15.457  0.2338  0.6693 -0.3466
  374TIP3    H125317   2.791   6.476  15.478  1.5746 -0.9182  1.8010
  374TIP3    H225318   2.759   6.375  15.370  2.5292  0.1238  0.5033
  375TIP3   OH225319   6.651   0.338  14.115 -0.3738  0.2058 -0.1740
  375TIP3    H125320   6.641   0.424  14.155 -1.5693 -0.9152  2.1268
  375TIP3    H225321   6.565   0.318  14.078 -0.5970 -0.6327  0.7404
  376TIP3   OH225322   3.701   4.691  16.839  0.3352 -0.3050 -0.3352
  376TIP3    H125323   3.739   4.654  16.760 -1.2063 -1.1169 -0.7368
  376TIP3    H225324   3.771   4.686  16.904  0.9981 -1.5068 -1.1059
  377TIP3   OH225325   0.377   4.045  14.881  0.1197 -0.3294  0.2145
  377TIP3    H125326   0.438   4.087  14.942 -1.8540  0.7648  1.5520
  377TIP3    H225327   0.352   3.963  14.925  0.3088 -0.5729 -0.1323
  378TIP3   OH225328   5.728   6.697  14.360 -0.4717 -0.4147  0.1507
  378TIP3    H125329   5.723   6.761  14.432 -0.7022 -0.4958  0.2088
  378TIP3    H225330   5.807   6.646  14.379 -0.5209 -0.4242  0.3403
  379TIP3   OH225331   5.620   6.234  15.100 -0.5476  0.0046 -0.1445
  379TIP3    H125332   5.529   6.259  15.116  0.1061  0.8985  2.8523
  379TIP3    H225333   5.668   6.265  15.177  2.1211 -1.4946 -1.0370
  380TIP3   OH225334   3.825   5.975  14.308 -0.1469  0.0412 -0.2678
  380TIP3    H125335   3.915   6.009  14.305 -0.0914  0.3542  2.4099
  380TIP3    H225336   3.770   6.052  14.288  0.1303  0.2114 -0.3815
  381TIP3   OH225337   1.801   5.192  15.310 -0.1633  0.1096  0.3153
  381TIP3    H125338   1.805   5.278  15.352  0.3644  0.6729 -0.8437
  381TIP3    H225339   1.890   5.158  15.317 -0.3776 -0.3526  0.7885
  382TIP3   OH225340   5.236   3.436  14.928  0.1396  0.2206 -0.6921
  382TIP3    H125341   5.182   3.439  15.007 -0.3964 -1.5493 -0.9449
  382TIP3    H225342   5.286   3.355  14.936  0.1500  0.0598 -2.0977
  383TIP3   OH225343   5.812   0.343  16.107  0.3979 -0.6422  0.2903
  383TIP3    H125344   5.795   0.262  16.059  0.1202 -0.6295  0.3660
  383TIP3    H225345   5.767   0.331  16.191 -1.1365  0.2866 -0.3630
  384TIP3   OH225346   4.721   1.546  14.155 -0.2846 -0.1131  0.3201
  384TIP3    H125347   4.783   1.490  14.201 -1.4792 -1.0719  0.8217
  384TIP3    H225348   4.691   1.494  14.081 -0.5481  0.3151  0.1187
  385TIP3   OH225349   1.274   0.468  15.789 -0.3893 -1.1461  0.1286
  385TIP3    H125350   1.217   0.517  15.731  0.7802 -1.6722 -1.5279
  385TIP3    H225351   1.363   0.495  15.765  0.1474 -0.9287  2.0981
  386TIP3   OH225352   3.867   3.457  14.111  0.0994 -0.1552  0.1979
  386TIP3    H125353   3.957   3.480  14.090  0.3614  0.5402  1.9670
  386TIP3    H225354   3.841   3.518  14.180 -1.4269 -0.9343  0.3710
  387TIP3   OH225355   5.516   5.451  14.498  0.2564 -0.1437 -0.3260
  387TIP3    H125356   5.528   5.546  14.495 -1.0934  0.0273 -1.2376
  387TIP3    H225357   5.598   5.416  14.465  0.0897  0.7837 -1.8294
  388TIP3   OH225358   5.763   6.078  14.901 -1.0258 -0.6423  0.0427
  388TIP3    H125359   5.748   5.991  14.939 -0.5121  0.0566  1.9735
  388TIP3    H225360   5.704   6.135  14.950 -1.3547  0.1095 -1.2079
  389TIP3   OH225361   1.927   5.122  14.078  0.1988 -0.0212 -0.2831
  389TIP3    H125362   1.939   5.180  14.003 -1.9535 -0.9874 -1.4777
  389TIP3    H225363   1.912   5.181  14.152 -0.8546  1.0033 -1.2666
  390TIP3   OH225364   3.650   3.088  14.708 -0.7028  0.8371  0.0092
  390TIP3    H125365   3.667   2.994  14.722  0.6434  1.1275  0.5063
  390TIP3    H225366   3.650   3.125  14.796 -2.2434  1.1737 -0.1087
  391TIP3   OH225367   1.443   3.737  14.581  0.3026 -0.6674  0.2736
  391TIP3    H125368   1.515   3.752  14.643  1.3074 -2.3030 -0.4329
  391TIP3    H225369   1.441   3.817  14.527  1.4389 -0.4908  0.4657
  392TIP3   OH225370   2.494   0.717  16.026  0.5161  0.6935 -0.1119
  392TIP3    H125371   2.468   0.671  15.947  1.9663 -0.4139  0.0023
  392TIP3    H225372   2.414   0.723  16.078 -0.5863  1.9355 -1.8491
  393TIP3   OH225373   2.626   6.357  16.069  0.1945 -0.0027  0.0776
  393TIP3    H125374   2.536   6.325  16.059  0.1839  0.2631 -0.7194
  393TIP3    H225375   2.637   6.368  16.163 -0.2453 -1.0861  0.2688
  394TIP3   OH225376   4.057   0.530  14.480 -0.1718  0.5553 -0.4442
  394TIP3    H125377   4.117   0.455  14.474  1.4580  1.6747  0.7211
  394TIP3    H225378   4.053   0.564  14.390 -1.1856 -1.0672 -1.0516
  395TIP3   OH225379   5.230   5.647  14.638  0.3397  0.5730 -0.0195
  395TIP3    H125380   5.260   5.728  14.597 -1.1761  1.8686  1.3017
  395TIP3    H225381   5.309   5.609  14.677  1.2613  0.8211 -1.5393
  396TIP3   OH225382   2.959   1.247  14.266  0.1706  0.2063  0.1312
  396TIP3    H125383   3.001   1.184  14.325  3.6905  2.3133  0.1605
  396TIP3    H225384   2.883   1.279  14.315  0.6825 -1.0050  1.7984
  397TIP3   OH225385   6.443   1.119  15.123  0.0989  0.3339  0.0657
  397TIP3    H125386   6.396   1.172  15.059  0.4759 -0.2322 -0.6918
  397TIP3    H225387   6.483   1.184  15.182 -1.8646  0.8197  0.9427
  398TIP3   OH225388   3.708   4.904  16.093  0.2997  0.3747 -0.7693
  398TIP3    H125389   3.641   4.842  16.064  1.4122 -0.9937 -0.5432
  398TIP3    H225390   3.693   4.982  16.040 -0.0753 -0.7078 -2.3293
  399TIP3   OH225391   5.088   3.800  16.109  0.1587  0.0898  0.2042
  399TIP3    H125392   5.132   3.766  16.032 -1.1570 -1.5975  0.1394
  399TIP3    H225393   5.000   3.822  16.080  0.3080  1.6072  0.7549
  400TIP3   OH225394   5.319   2.279  15.476  1.2335  0.2381  0.0921
  400TIP3    H125395   5.231   2.302  15.448  0.9960 -0.7729 -0.0548
  400TIP3    H225396   5.325   2.311  15.566  0.1881 -0.8994  0.6073
  401TIP3   OH225397   4.240   1.890  14.216 -0.2744  0.3611 -0.1080
  401TIP3    H125398   4.215   1.955  14.150  0.4516  0.2601 -0.4970
  401TIP3    H225399   4.335   1.900  14.224 -0.3096  0.1343  0.6763
  402TIP3   OH225400   0.488   4.219  15.815  0.1601  0.0105 -0.5869
  402TIP3    H125401   0.460   4.139  15.770 -2.8313  1.0048 -0.6838
  402TIP3    H225402   0.469   4.201  15.908  0.7590  0.1252 -0.4402
  403TIP3   OH225403   2.284   2.493  15.396 -0.4581 -0.3827 -0.3090
  403TIP3    H125404   2.193   2.487  15.366 -1.2309 -1.0912  1.9624
  403TIP3    H225405   2.313   2.402  15.404 -0.5095 -0.2757  1.5503
  404TIP3   OH225406   3.509   0.622  16.213  0.1725 -0.0958  0.1194
  404TIP3    H125407   3.432   0.678  16.225  0.4813  0.0475  1.6503
  404TIP3    H225408   3.565   0.670  16.152 -0.8585 -0.1212 -0.8776
  405TIP3   OH225409   2.316   4.759  15.544 -0.1199  0.1245 -0.1889
  405TIP3    H125410   2.312   4.695  15.472 -2.7811  0.7600 -0.7378
  405TIP3    H225411   2.236   4.742  15.595  0.0243  1.8436  0.6755
  406TIP3   OH225412   4.767   2.874  14.780 -0.3342  0.3809  0.1329
  406TIP3    H125413   4.759   2.947  14.718  1.7741  1.2439  0.7938
  406TIP3    H225414   4.684   2.826  14.771 -1.0214  1.7776 -1.6671
  407TIP3   OH225415   2.509   4.144  16.511  0.0179  0.3419 -0.3165
  407TIP3    H125416   2.436   4.192  16.549  0.0158  0.2530 -0.2086
  407TIP3    H225417   2.469   4.085  16.447  0.1387  1.5232 -1.5346
  408TIP3   OH225418   3.398   1.325  16.169  0.1171  0.6570 -0.0976
  408TIP3    H125419   3.387   1.293  16.259  1.0481  0.2781 -0.1109
  408TIP3    H225420   3.313   1.309  16.127 -0.4657  1.2075  0.8159
  409TIP3   OH225421   5.701   3.692  14.737  0.0617  0.1633 -0.2335
  409TIP3    H125422   5.653   3.610  14.750  0.5904 -0.2414 -0.7576
  409TIP3    H225423   5.772   3.669  14.677  0.4219  0.9338 -0.1183
  410TIP3   OH225424   1.647   3.471  16.497  0.5211  0.4656 -0.0837
  410TIP3    H125425   1.665   3.470  16.591 -0.9365  0.2697  0.2308
  410TIP3    H225426   1.628   3.563  16.477 -0.3836  0.3334  0.0992
  411TIP3   OH225427   3.138   4.694  16.552  0.3715  0.0608  0.0904
  411TIP3    H125428   3.216   4.732  16.511  0.4681  1.1481  1.2132
  411TIP3    H225429   3.160   4.602  16.564  2.2776  0.6777  2.0402
  412TIP3   OH225430   2.532   1.212  14.918 -0.3490  0.3868  1.0271
  412TIP3    H125431   2.454   1.265  14.933 -0.4580  0.4514  0.2626
  412TIP3    H225432   2.593   1.239  14.987 -0.0280  2.2475  0.0666
  413TIP3   OH225433   5.347   2.201  16.854 -0.0902 -0.2401 -0.1345
  413TIP3    H125434   5.427   2.250  16.835  1.2891 -2.3741 -0.1468
  413TIP3    H225435   5.337   2.207  16.949  0.5701 -0.6728 -0.0351
  414TIP3   OH225436   1.332   0.393  15.453 -0.5363 -0.0556  0.7265
  414TIP3    H125437   1.244   0.358  15.468 -0.2206 -0.6449  1.2389
  414TIP3    H225438   1.387   0.346  15.514  0.3444 -0.5446 -0.4163
  415TIP3   OH225439   5.833   4.493  14.114 -0.2958  0.0386  0.4976
  415TIP3    H125440   5.843   4.498  14.209 -0.9933 -2.2159  0.7452
  415TIP3    H225441   5.740   4.481  14.100 -0.3565  1.4725 -0.5875
  416TIP3   OH225442   2.485   3.318  16.170  0.0509  0.0899 -0.1816
  416TIP3    H125443   2.466   3.369  16.091 -0.0924  0.6480  0.1974
  416TIP3    H225444   2.547   3.373  16.219 -0.2339 -0.0254  0.3141
  417TIP3   OH225445   2.818   4.053  13.461  0.3086 -0.0532  0.1134
  417TIP3    H125446   2.742   4.043  13.404 -0.4806  2.4536  0.6077
  417TIP3    H225447   2.792   4.012  13.543 -0.5514  0.7794  0.2750
  418TIP3   OH225448   3.865   3.904  14.631 -0.1492 -0.3771  0.0898
  418TIP3    H125449   3.885   3.986  14.677  0.3049 -0.2187 -0.3717
  418TIP3    H225450   3.795   3.927  14.569 -0.3196 -0.4388  0.2604
  419TIP3   OH225451   1.470   2.677  16.505  0.7156  0.4288 -0.7127
  419TIP3    H125452   1.389   2.711  16.469 -0.3745  0.9401  1.9677
  419TIP3    H225453   1.496   2.740  16.572  1.7920 -1.1027  0.4064
  420TIP3   OH225454   3.373   2.607  15.893  0.1578  0.2365  0.3881
  420TIP3    H125455   3.372   2.524  15.941 -2.3096  0.4613  0.8846
  420TIP3    H225456   3.299   2.655  15.929  1.4764  2.6531  0.0502
  421TIP3   OH225457   5.387   4.986  14.960  0.2909  0.1763 -0.2776
  421TIP3    H125458   5.328   4.913  14.941 -0.9364  0.6962  1.2793
  421TIP3    H225459   5.357   5.056  14.901  0.5661 -0.1231 -0.7841
  422TIP3   OH225460   6.401   2.236  14.949  0.5116 -0.4837 -0.1676
  422TIP3    H125461   6.451   2.165  14.989  4.5224  0.7173 -2.4396
  422TIP3    H225462   6.386   2.207  14.859  0.2939  0.6448 -0.5195
  423TIP3   OH225463   0.609   4.719  15.283  0.2171 -0.2589  0.0571
  423TIP3    H125464   0.560   4.760  15.355 -0.2357  1.8747 -1.3838
  423TIP3    H225465   0.562   4.744  15.204  1.3626 -1.5740 -1.0948
  424TIP3   OH225466   4.092   6.047  14.315  0.0167 -0.0590 -0.1297
  424TIP3    H125467   4.083   6.139  14.339 -0.8205 -0.0132 -0.5613
  424TIP3    H225468   4.175   6.042  14.268  0.9332  0.1277  1.4341
  425TIP3   OH225469   0.948   2.099  16.435  0.2000  0.1019 -0.5853
  425TIP3    H125470   1.027   2.091  16.383 -0.0170  1.3275 -1.1635
  425TIP3    H225471   0.974   2.151  16.511  0.5768 -1.9092  0.7136
  426TIP3   OH225472   0.551   1.111  15.926  0.3982  0.0142  1.0300
  426TIP3    H125473   0.561   1.056  15.848 -0.4800  0.2729  0.7113
  426TIP3    H225474   0.636   1.153  15.937  0.1766  1.0427 -0.6477
  427TIP3   OH225475   5.651   2.355  14.669 -0.1271 -0.2281 -0.1572
  427TIP3    H125476   5.605   2.307  14.600  0.1090 -1.4918  0.5117
  427TIP3    H225477   5.677   2.286  14.731 -2.2988  1.0225  2.3602
  428TIP3   OH225478   3.012   1.684  15.534 -0.7606  0.5524  0.2491
  428TIP3    H125479   2.982   1.715  15.448 -0.3051  2.1119  0.6059
  428TIP3    H225480   3.104   1.710  15.537 -0.3465 -0.8620  0.6222
  429TIP3   OH225481   0.726   1.559  14.329 -0.2615 -0.1891 -0.4770
  429TIP3    H125482   0.652   1.540  14.272 -0.2534  0.0478 -0.5665
  429TIP3    H225483   0.695   1.539  14.417  0.0499 -1.5449 -0.6536
  430TIP3   OH225484   4.282   1.385  15.752 -0.3125 -0.2058 -0.3421
  430TIP3    H125485   4.209   1.353  15.805 -0.2847 -1.7365 -1.1828
  430TIP3    H225486   4.241   1.428  15.677 -0.3524  0.1365 -0.1236
  431TIP3   OH225487   2.175   2.023  15.776  0.0938 -0.2697  0.8058
  431TIP3    H125488   2.220   2.105  15.756 -0.0985 -0.2996  0.2301
  431TIP3    H225489   2.209   1.961  15.711 -0.9640 -0.2243  0.1892
  432TIP3   OH225490   6.190   6.080  15.592 -0.4956 -0.5296  0.1360
  432TIP3    H125491   6.128   6.145  15.558 -1.7650 -0.1005  2.9703
  432TIP3    H225492   6.138   6.000  15.601  0.3160 -1.1643 -0.6829
  433TIP3   OH225493   5.508   1.794  16.439  0.2372 -0.1042 -0.3773
  433TIP3    H125494   5.576   1.748  16.390  0.8882 -0.3689  0.7434
  433TIP3    H225495   5.456   1.724  16.478  1.6800  0.0148  1.9556
  434TIP3   OH225496   5.304   1.274  13.363  0.8526 -0.0913  0.2303
  434TIP3    H125497   5.290   1.187  13.326  1.9619 -0.5155  0.7719
  434TIP3    H225498   5.382   1.265  13.419 -0.5555  0.5884  2.4375
  435TIP3   OH225499   5.340   3.553  15.802  0.0443 -0.9489 -0.2050
  435TIP3    H125500   5.314   3.470  15.842 -1.4062 -0.3957  0.0672
  435TIP3    H225501   5.264   3.609  15.813 -0.0949 -0.4832 -3.0004
  436TIP3   OH225502   2.834   3.226  16.808  0.3204 -0.2410  0.0952
  436TIP3    H125503   2.857   3.248  16.718  1.0376  0.4330  0.4333
  436TIP3    H225504   2.882   3.146  16.827 -0.3573 -0.7586 -0.3325
  437TIP3   OH225505   1.060   0.168  14.521 -0.1040 -0.2444  0.0647
  437TIP3    H125506   1.117   0.224  14.467  0.1711 -0.1843  0.4145
  437TIP3    H225507   0.979   0.219  14.530 -0.4869 -0.6263 -1.0162
  438TIP3   OH225508   0.618   1.536  14.755 -0.0667  0.0800  0.3704
  438TIP3    H125509   0.678   1.491  14.814  0.5465  0.6133  0.1581
  438TIP3    H225510   0.584   1.610  14.805 -0.7481 -0.3557  0.5732
  439TIP3   OH225511   1.703   6.391  14.059 -0.2532 -0.2306 -0.3865
  439TIP3    H125512   1.671   6.383  14.149  0.4494 -1.3282 -0.2085
  439TIP3    H225513   1.648   6.330  14.009  0.1658 -0.5507 -0.4623
  440TIP3   OH225514   5.970   2.983  13.581  0.2383  0.0634 -0.1511
  440TIP3    H125515   6.061   2.956  13.573  0.1362 -0.8793  1.4222
  440TIP3    H225516   5.972   3.058  13.640 -0.1883 -1.7182  2.2860
  441TIP3   OH225517   5.223   4.522  15.535 -0.2616 -0.2541 -0.1192
  441TIP3    H125518   5.185   4.435  15.522  1.1123 -0.9697  0.3906
  441TIP3    H225519   5.193   4.572  15.459 -0.7133 -1.3150 -0.6710
  442TIP3   OH225520   4.043   3.869  15.560  0.4675  0.0755 -0.1813
  442TIP3    H125521   4.050   3.880  15.655 -0.5485  2.3586 -0.2859
  442TIP3    H225522   3.970   3.927  15.536 -0.0520 -1.3531 -2.2223
  443TIP3   OH225523   1.572   4.201  16.532  0.7475  0.4465  0.0530
  443TIP3    H125524   1.623   4.280  16.514  0.3254  0.3686 -1.6502
  443TIP3    H225525   1.525   4.184  16.451  2.6196 -2.9028 -0.4938
  444TIP3   OH225526   6.436   3.543  16.415  0.3054 -0.1295 -0.3398
  444TIP3    H125527   6.460   3.484  16.343 -0.8649 -0.8058 -0.1926
  444TIP3    H225528   6.518   3.555  16.464  0.7281 -1.0191 -0.8030
  445TIP3   OH225529   4.903   6.299  15.091 -0.4716 -0.2199 -0.5201
  445TIP3    H125530   4.989   6.317  15.128  0.1505 -1.1234 -1.4395
  445TIP3    H225531   4.849   6.375  15.114 -0.1358 -0.6922  2.1125
  446TIP3   OH225532   6.684   5.884  13.549 -0.3189  0.2635  0.6879
  446TIP3    H125533   6.700   5.828  13.625 -0.9024  0.9538  1.3347
  446TIP3    H225534   6.660   5.823  13.479  1.4176 -0.4923  0.6985
  447TIP3   OH225535   4.475   1.309  13.788  0.6883  0.3632 -0.1772
  447TIP3    H125536   4.496   1.301  13.695  0.2372 -0.6917 -0.1995
  447TIP3    H225537   4.380   1.294  13.792  0.8559 -0.5884  0.5488
  448TIP3   OH225538   1.803   1.385  15.618 -0.2065 -0.2042  0.7916
  448TIP3    H125539   1.889   1.385  15.577 -0.6444 -0.6782 -0.1541
  448TIP3    H225540   1.769   1.297  15.603 -1.1827  0.2118  0.4393
  449TIP3   OH225541   4.062   5.587  16.690 -0.4420  0.5061  0.5784
  449TIP3    H125542   3.984   5.551  16.732  0.1330 -0.4829  0.8273
  449TIP3    H225543   4.068   5.541  16.606 -0.4368  0.9864  0.3100
  450TIP3   OH225544   6.638   6.551  15.174 -0.2923 -0.2321  0.3124
  450TIP3    H125545   6.691   6.474  15.194  0.1588  0.2002  0.7903
  450TIP3    H225546   6.627   6.596  15.258 -3.8649 -1.8020  0.8779
  451TIP3   OH225547   2.160   5.268  13.786  0.4847 -0.4079  0.4209
  451TIP3    H125548   2.189   5.357  13.768  1.5735 -1.0560 -1.2796
  451TIP3    H225549   2.071   5.278  13.820  0.3151  1.2935 -0.4247
  452TIP3   OH225550   3.266   2.554  14.529 -0.4755 -0.6440 -0.6573
  452TIP3    H125551   3.337   2.561  14.464  1.5619 -0.5086  1.4317
  452TIP3    H225552   3.191   2.594  14.487  0.4855 -1.3723 -3.2528
  453TIP3   OH225553   5.140   1.383  14.031 -0.5695 -0.4678 -0.1045
  453TIP3    H125554   5.118   1.309  14.088 -1.8361 -1.1748 -1.4515
  453TIP3    H225555   5.180   1.343  13.955  3.0668  0.5962  1.0339
  454TIP3   OH225556   6.222   3.701  15.993  0.6945  0.3745  0.2133
  454TIP3    H125557   6.310   3.676  16.022  0.5775 -0.2324  0.0490
  454TIP3    H225558   6.235   3.736  15.905  0.5696 -1.2370 -0.4714
  455TIP3   OH225559   3.233   0.428  14.486 -0.6295 -0.1277  0.4268
  455TIP3    H125560   3.219   0.426  14.581  1.3045 -1.3818  0.7493
  455TIP3    H225561   3.290   0.353  14.469  1.2968  1.6122 -1.3387
  456TIP3   OH225562   3.370   1.237  13.500  0.0282  0.6649 -0.1855
  456TIP3    H125563   3.286   1.264  13.464 -0.1721 -1.2185 -1.2613
  456TIP3    H225564   3.384   1.149  13.465  2.1229  0.6566  0.5426
  457TIP3   OH225565   2.948   3.616  16.983  0.4774  0.1270  0.1593
  457TIP3    H125566   2.906   3.545  17.031  0.9080 -1.1134 -1.2380
  457TIP3    H225567   2.999   3.663  17.048  1.1825 -1.6068  0.9033
  458TIP3   OH225568   1.985   0.584  14.442  0.2663  0.2248  0.0962
  458TIP3    H125569   2.012   0.615  14.356  0.1678  1.0877  0.3644
  458TIP3    H225570   1.922   0.514  14.424  1.4816 -0.7566 -0.5290
  459TIP3   OH225571   0.835   1.729  16.797 -0.1967  0.0433  0.3492
  459TIP3    H125572   0.823   1.767  16.710 -1.7719 -1.3488 -0.0914
  459TIP3    H225573   0.796   1.792  16.856 -1.8251 -0.3351 -0.2695
  460TIP3   OH225574   0.389   2.911  16.431 -0.4496  0.2650  0.1488
  460TIP3    H125575   0.333   2.841  16.464 -0.7308  0.4259  0.0159
  460TIP3    H225576   0.403   2.888  16.339 -1.9208  1.2596 -0.3555
  461TIP3   OH225577   4.734   1.540  16.340  0.0980 -0.0826 -0.2045
  461TIP3    H125578   4.674   1.554  16.267 -0.7825 -0.3241  0.4575
  461TIP3    H225579   4.818   1.522  16.298 -0.1472  0.8139 -1.1431
  462TIP3   OH225580   3.622   0.643  14.522  0.1288  0.1535  0.2196
  462TIP3    H125581   3.624   0.728  14.565 -2.1571 -0.4210  1.6061
  462TIP3    H225582   3.536   0.638  14.481 -1.0623 -2.5446  2.6378
  463TIP3   OH225583   4.499   0.714  15.792 -0.4000 -0.0785 -0.9439
  463TIP3    H125584   4.503   0.788  15.731  0.6257  0.8674  0.1920
  463TIP3    H225585   4.591   0.696  15.813 -0.6202 -1.8863 -1.3975
  464TIP3   OH225586   1.560   0.810  13.907  0.1009 -0.0622 -0.2404
  464TIP3    H125587   1.491   0.751  13.879 -0.1117  0.0902 -0.0346
  464TIP3    H225588   1.541   0.893  13.862 -0.1289  0.1239  0.1956
  465TIP3   OH225589   1.074   4.943  16.396  0.2991 -0.0709 -0.2400
  465TIP3    H125590   1.003   4.914  16.338  0.0832  1.7000 -0.9446
  465TIP3    H225591   1.029   4.988  16.468  0.6014 -1.6744  1.0141
  466TIP3   OH225592   2.189   5.433  16.787  0.2771 -0.0359  0.0280
  466TIP3    H125593   2.196   5.469  16.876 -0.4873 -2.1511  1.0212
  466TIP3    H225594   2.278   5.439  16.752  0.5205  1.1575  0.7749
  467TIP3   OH225595   0.553   0.430  14.336 -0.0356 -0.7886 -0.5476
  467TIP3    H125596   0.527   0.409  14.247  0.4576 -0.0444 -0.8809
  467TIP3    H225597   0.505   0.511  14.357  1.7148  0.4364 -1.0674
  468TIP3   OH225598   6.138   3.486  14.838  0.5463 -0.0010  0.8768
  468TIP3    H125599   6.187   3.501  14.918 -0.7065  1.6230  1.3925
  468TIP3    H225600   6.057   3.443  14.867  0.2962  0.1607  0.4324
  469TIP3   OH225601   4.382   2.028  14.771 -0.0280 -0.2325  0.1435
  469TIP3    H125602   4.410   2.117  14.750  2.5389 -1.2093 -1.1029
  469TIP3    H225603   4.342   2.035  14.857  0.3342  2.0841  0.1831
  470TIP3   OH225604   0.271   6.500  16.337  0.6367  0.0175 -0.1509
  470TIP3    H125605   0.233   6.533  16.419 -0.1150 -0.7270 -0.1828
  470TIP3    H225606   0.223   6.419  16.320 -0.6879  1.1816 -2.4322
  471TIP3   OH225607   4.784   1.755  15.959 -0.2749 -0.3350  0.7642
  471TIP3    H125608   4.693   1.728  15.976  0.0862 -2.4865 -0.3380
  471TIP3    H225609   4.823   1.679  15.916  1.5565  1.2260 -0.4573
  472TIP3   OH225610   3.637   0.570  13.494 -0.4186  0.3283 -0.0695
  472TIP3    H125611   3.642   0.665  13.487 -0.0144  0.1948 -2.5027
  472TIP3    H225612   3.729   0.541  13.491 -0.4499 -0.1525  1.7839
  473TIP3   OH225613   0.313   0.887  14.773  0.9023  0.5872 -0.5472
  473TIP3    H125614   0.297   0.822  14.842 -1.5270  0.7434 -0.8966
  473TIP3    H225615   0.409   0.896  14.771  1.1789 -1.3109  1.0280
  474TIP3   OH225616   0.093   2.821  13.676  0.5296  0.2712 -0.0276
  474TIP3    H125617   0.034   2.830  13.601  0.5325 -1.6646 -0.3146
  474TIP3    H225618   0.129   2.909  13.689  0.1679  0.7605 -2.0124
  475TIP3   OH225619   5.249   1.346  13.766  0.1575  0.1873  0.7893
  475TIP3    H125620   5.201   1.314  13.690  0.8569  1.5377 -0.2571
  475TIP3    H225621   5.306   1.273  13.791 -0.7145 -0.5837  0.6048
  476TIP3   OH225622   0.775   2.993  15.522  0.0099  0.4911 -1.1828
  476TIP3    H125623   0.718   3.014  15.596  0.9440  0.6927 -0.4949
  476TIP3    H225624   0.735   3.037  15.448 -1.0603  0.1189 -0.8435
  477TIP3   OH225625   0.341   2.363  14.749 -0.2947 -0.8965  0.2496
  477TIP3    H125626   0.280   2.339  14.819  0.6136 -0.5049  1.1973
  477TIP3    H225627   0.294   2.429  14.698  0.1503  1.2268  2.3805
  478TIP3   OH225628   3.539   4.922  16.844 -0.2254 -0.0153 -0.6781
  478TIP3    H125629   3.603   4.855  16.819  0.3599  0.4386 -0.4316
  478TIP3    H225630   3.484   4.933  16.767  1.0339  0.7669 -1.5191
  479TIP3   OH225631   6.050   5.890  16.661 -0.7675  0.5894  0.3040
  479TIP3    H125632   6.052   5.897  16.565  2.2753 -2.0244  0.0202
  479TIP3    H225633   5.990   5.817  16.678  0.7632 -0.7825  0.0955
  480TIP3   OH225634   3.432   4.302  13.494 -0.0309  0.3497 -0.1698
  480TIP3    H125635   3.388   4.243  13.433  0.6542  0.1802 -0.5153
  480TIP3    H225636   3.418   4.263  13.580 -0.8690  0.5025 -0.2249
  481TIP3   OH225637   0.324   5.913  16.229 -0.2962 -0.2814 -0.0605
  481TIP3    H125638   0.264   5.873  16.165 -0.8432  0.3150  0.0656
  481TIP3    H225639   0.357   5.840  16.280 -0.7402 -0.6481 -0.2896
  482TIP3   OH225640   4.860   2.967  16.809  0.1305  0.4643 -0.0124
  482TIP3    H125641   4.894   2.895  16.756  1.7037  0.6015  0.7621
  482TIP3    H225642   4.902   3.045  16.774 -1.2656  0.9794 -0.5882
  483TIP3   OH225643   5.534   1.508  14.555  0.6638 -0.2507  0.0899
  483TIP3    H125644   5.562   1.559  14.479 -1.6206 -0.8674 -1.2529
  483TIP3    H225645   5.538   1.569  14.628  3.0191  0.3361 -0.4464
  484TIP3   OH225646   2.748   1.584  16.160 -0.3174  0.1633 -0.7053
  484TIP3    H125647   2.800   1.656  16.124 -0.3513  0.1451 -0.7904
  484TIP3    H225648   2.685   1.627  16.218  0.3086  0.1285  0.0331
  485TIP3   OH225649   1.217   0.222  13.716 -0.4660  0.7032  0.1499
  485TIP3    H125650   1.312   0.215  13.712 -0.4364  1.6542 -1.5806
  485TIP3    H225651   1.185   0.143  13.672 -0.4864  0.7162  0.1417
  486TIP3   OH225652   1.895   5.743  14.262 -0.4597  0.3953 -0.2416
  486TIP3    H125653   1.906   5.815  14.199  2.4872 -0.5326 -0.9382
  486TIP3    H225654   1.933   5.777  14.344 -0.6204  0.2243 -0.0950
  487TIP3   OH225655   0.375   1.830  14.704 -0.2123  0.3201  0.1714
  487TIP3    H125656   0.364   1.759  14.641  0.7363  0.3036  0.0009
  487TIP3    H225657   0.332   1.905  14.664 -1.8490 -0.3167  0.6726
  488TIP3   OH225658   4.383   3.354  17.125 -0.5757 -0.1244 -0.1367
  488TIP3    H125659   4.312   3.335  17.063 -2.0335 -2.6379  2.0967
  488TIP3    H225660   4.445   3.282  17.114 -0.2624  0.0380  0.5513
  489TIP3   OH225661   0.598   2.099  16.446  0.2428 -0.1791 -0.0302
  489TIP3    H125662   0.642   2.166  16.499 -0.7124  0.2334  0.2612
  489TIP3    H225663   0.572   2.145  16.366  0.6879 -0.5259 -0.3875
  490TIP3   OH225664   4.511   1.636  15.228 -0.2463  0.1659  0.0111
  490TIP3    H125665   4.538   1.584  15.303  2.7720  1.5575  0.0581
  490TIP3    H225666   4.540   1.585  15.152 -1.9233 -0.5249 -0.2108
  491TIP3   OH225667   5.258   5.450  15.474 -0.6245  0.2410  0.0793
  491TIP3    H125668   5.232   5.501  15.397  0.5137  1.3524  0.3909
  491TIP3    H225669   5.342   5.410  15.449 -1.2962 -1.1987 -0.0089
  492TIP3   OH225670   1.650   1.653  15.129  1.3121 -0.7603  0.2832
  492TIP3    H125671   1.709   1.602  15.184  0.8254  1.1621  2.7290
  492TIP3    H225672   1.704   1.725  15.095  0.8958 -0.2003  0.7918
  493TIP3   OH225673   3.965   1.447  13.317  0.3433 -0.5967 -0.0254
  493TIP3    H125674   3.894   1.400  13.274 -0.3600  0.4924 -0.0692
  493TIP3    H225675   3.941   1.447  13.410 -0.3091  0.7231 -0.1649
  494TIP3   OH225676   0.987   5.921  14.011  0.2591 -0.2332 -0.0803
  494TIP3    H125677   1.054   5.853  14.011  0.6930  0.1771  1.2250
  494TIP3    H225678   1.026   5.993  14.060 -0.3871  0.7822 -1.0087
  495TIP3   OH225679   0.471   1.810  16.086  1.1276 -0.1656  0.1163
  495TIP3    H125680   0.501   1.720  16.077 -1.2470 -1.3235  2.4872
  495TIP3    H225681   0.421   1.827  16.006  0.8743 -1.2896  0.0210
  496TIP3   OH225682   2.179   1.286  16.470  0.0642 -0.1388  0.5476
  496TIP3    H125683   2.103   1.314  16.521 -0.3614  1.0968 -0.6822
  496TIP3    H225684   2.222   1.367  16.444  0.3823 -0.7088 -0.8333
  497TIP3   OH225685   5.568   1.160  15.220 -0.0580  0.0666 -0.3674
  497TIP3    H125686   5.649   1.127  15.259  1.0877  0.0229 -2.6314
  497TIP3    H225687   5.595   1.196  15.135 -2.1703  1.5545 -0.4873
  498TIP3   OH225688   6.335   3.597  14.633 -0.0944  0.2820 -0.0605
  498TIP3    H125689   6.321   3.684  14.670  0.4102  0.0043  0.8161
  498TIP3    H225690   6.270   3.541  14.676  0.7735 -0.1279  0.7458
  499TIP3   OH225691   4.128   1.956  14.689 -0.2098  0.8010 -0.2176
  499TIP3    H125692   4.103   2.046  14.669  2.5332  2.3754  2.5270
  499TIP3    H225693   4.223   1.960  14.704 -0.2049 -2.2504  1.3833
  500TIP3   OH225694   0.385   0.838  16.793  0.4563 -0.4530  0.3778
  500TIP3    H125695   0.393   0.801  16.881  0.2710 -1.6425 -0.0973
  500TIP3    H225696   0.376   0.763  16.735 -0.2288  0.3414 -0.5901
  501TIP3   OH225697   0.175   4.022  16.490  0.1950 -0.1103 -0.4417
  501TIP3    H125698   0.098   4.030  16.434 -0.0722  1.7690  0.1427
  501TIP3    H225699   0.166   4.093  16.554  1.6255 -0.8263  0.5981
  502TIP3   OH225700   4.129   0.198  14.749  0.3979  0.3030  0.3753
  502TIP3    H125701   4.105   0.267  14.811 -0.2525  0.4013  0.0248
  502TIP3    H225702   4.058   0.134  14.756 -0.3840  0.9524 -1.2179
  503TIP3   OH225703   0.678   2.471  14.469 -0.7903 -0.2898 -0.0824
  503TIP3    H125704   0.613   2.401  14.458 -1.6502  0.5375 -0.3565
  503TIP3    H225705   0.646   2.522  14.543 -1.4710  1.2055 -1.3497
  504TIP3   OH225706   0.039   3.569  15.636  0.5985  0.1569  0.4331
  504TIP3    H125707   0.034   3.561  15.731 -2.1215 -1.3268  0.2573
  504TIP3    H225708   0.092   3.494  15.609 -1.0097 -1.1142  0.6582
  505TIP3   OH225709   3.744   4.340  14.854 -0.1441  0.0958 -0.4969
  505TIP3    H125710   3.709   4.416  14.900 -2.5011 -0.6992 -0.8356
  505TIP3    H225711   3.678   4.320  14.787  0.6881 -1.8679 -0.8137
  506TIP3   OH225712   0.204   6.172  16.549 -0.5172 -0.0085 -0.4511
  506TIP3    H125713   0.135   6.141  16.607 -0.9893  2.5769  0.5478
  506TIP3    H225714   0.234   6.254  16.590  2.2863 -0.3935 -1.5209
  507TIP3   OH225715   2.218   6.182  14.100 -0.4641  0.0610  0.5642
  507TIP3    H125716   2.151   6.247  14.080  0.1634  0.4705 -0.2418
  507TIP3    H225717   2.169   6.105  14.129 -1.3076  0.1974 -0.4678
  508TIP3   OH225718   0.054   1.872  14.512 -0.2707 -0.0948 -0.5621
  508TIP3    H125719   0.060   1.922  14.431 -1.4803  1.6136  0.3335
  508TIP3    H225720  -0.003   1.924  14.568 -2.3867 -2.9260  0.1456
  509TIP3   OH225721   3.821   1.397  15.012 -0.0640 -0.0616  0.1090
  509TIP3    H125722   3.802   1.489  15.030 -0.1770  0.0531 -0.5445
  509TIP3    H225723   3.864   1.365  15.091  1.1048  0.8887 -0.1191
  510TIP3   OH225724   3.600   6.067  15.186  0.1102  0.4754 -0.0342
  510TIP3    H125725   3.550   6.099  15.261 -0.3691  1.1778 -0.6391
  510TIP3    H225726   3.640   5.985  15.216 -0.4843  0.4914  0.8150
  511TIP3   OH225727   5.964   2.950  15.617  0.1931  0.2978 -0.0287
  511TIP3    H125728   5.888   2.988  15.572  0.8042  1.4536 -0.1116
  511TIP3    H225729   5.956   2.982  15.707  0.1056 -0.3212  0.1913
  512TIP3   OH225730   3.834   5.143  13.271 -0.0051  0.2504 -0.2509
  512TIP3    H125731   3.870   5.132  13.359  0.3909 -0.6623 -0.5179
  512TIP3    H225732   3.871   5.226  13.240 -0.3584  0.7116  0.5284
  513TIP3   OH225733   1.001   2.008  15.972  0.1262  0.0732  0.3915
  513TIP3    H125734   1.071   2.064  15.938 -0.3210 -0.2700 -1.1957
  513TIP3    H225735   0.940   2.069  16.014 -1.0463  1.0881 -2.4777
  514TIP3   OH225736   2.501   6.669  14.392  0.0385 -0.1553  0.0396
  514TIP3    H125737   2.458   6.641  14.311 -0.7498 -2.6554  1.2271
  514TIP3    H225738   2.459   6.618  14.461  2.3295  0.0886  1.7573
  515TIP3   OH225739   4.471   1.557  13.134 -0.1285  0.0397  0.3027
  515TIP3    H125740   4.382   1.543  13.100  0.3919  0.3983 -1.3180
  515TIP3    H225741   4.505   1.469  13.150 -0.2452 -0.1743 -0.5674
  516TIP3   OH225742   0.970   4.084  16.096 -0.3769  0.2064  0.0909
  516TIP3    H125743   0.933   4.165  16.063 -1.6051  0.0004  0.8862
  516TIP3    H225744   1.005   4.107  16.182  1.6426  0.4549 -0.7539
  517TIP3   OH225745   1.663   3.843  14.123  0.5392 -0.0981  0.2708
  517TIP3    H125746   1.617   3.866  14.204 -1.6586 -0.4037 -0.8013
  517TIP3    H225747   1.713   3.921  14.100 -0.5740  0.7908  0.7887
  518TIP3   OH225748   0.255   0.555  13.908  0.1494 -0.3197 -0.0437
  518TIP3    H125749   0.201   0.634  13.910 -0.0022 -0.4341  0.6545
  518TIP3    H225750   0.221   0.504  13.834  1.3330  1.0063 -1.5772
  519TIP3   OH225751   5.751   4.617  16.122  0.2236 -0.1047 -0.6133
  519TIP3    H125752   5.833   4.605  16.073 -0.8747 -0.1359 -2.5344
  519TIP3    H225753   5.689   4.651  16.058 -0.8081  1.7137  1.2118
  520TIP3   OH225754   3.851   6.468  15.186  0.3453 -0.0944 -0.8656
  520TIP3    H125755   3.781   6.412  15.221  0.8637 -0.6940 -0.7704
  520TIP3    H225756   3.930   6.435  15.228  0.7591  0.2165 -1.4039
  521TIP3   OH225757   2.729   4.321  16.474  0.3415 -0.1533  0.5634
  521TIP3    H125758   2.762   4.300  16.387  1.5694  0.0744  0.9545
  521TIP3    H225759   2.666   4.251  16.493 -0.2660  0.0348 -0.6576
  522TIP3   OH225760   2.913   1.026  14.975 -0.1898  0.0023  0.8177
  522TIP3    H125761   2.945   0.940  15.001  0.4713  0.4377  1.4693
  522TIP3    H225762   2.889   1.069  15.057  1.8773  1.3666  0.7606
  523TIP3   OH225763   6.635   0.740  16.879  0.3309  0.0134  0.1170
  523TIP3    H125764   6.603   0.655  16.849  2.3573  0.3210 -3.4670
  523TIP3    H225765   6.715   0.720  16.928  0.5669 -0.1762 -0.3415
  524TIP3   OH225766   0.677   0.099  14.570 -0.1399  0.5689  0.0142
  524TIP3    H125767   0.587   0.124  14.551  0.6396  3.1979 -0.7095
  524TIP3    H225768   0.728   0.177  14.547  2.1992 -0.4476  1.4247
  525TIP3   OH225769   1.462   0.667  14.159 -0.1918  0.3646  0.3046
  525TIP3    H125770   1.511   0.723  14.099  1.2390  0.5171  1.5589
  525TIP3    H225771   1.384   0.641  14.109 -0.5158  2.7884 -0.5935
  526TIP3   OH225772   3.873   4.914  16.381 -0.1310  0.3093  0.3033
  526TIP3    H125773   3.845   5.004  16.363  0.6187  0.2613 -1.2700
  526TIP3    H225774   3.799   4.860  16.355  0.6467  0.2965 -2.1866
  527TIP3   OH225775   4.288   2.385  16.399 -0.7224 -0.5469  0.3119
  527TIP3    H125776   4.270   2.293  16.378 -0.7733 -0.2382 -1.1261
  527TIP3    H225777   4.219   2.433  16.353 -1.0527  0.2015  1.5393
  528TIP3   OH225778   1.099   5.644  16.721 -1.4213  0.1614 -0.4536
  528TIP3    H125779   1.066   5.618  16.808 -1.4185 -0.3562 -0.6019
  528TIP3    H225780   1.039   5.601  16.660  1.4686 -3.8335 -0.8601
  529TIP3   OH225781   2.723   0.239  15.905  0.1419  0.3273 -0.5389
  529TIP3    H125782   2.722   0.319  15.853 -0.3966  1.9452  1.8058
  529TIP3    H225783   2.683   0.263  15.989 -0.4794 -2.5277  0.1125
  530TIP3   OH225784   3.775   3.732  16.360  0.2251  0.4046  0.5044
  530TIP3    H125785   3.712   3.660  16.355 -1.1633  1.4711  1.8100
  530TIP3    H225786   3.836   3.715  16.288 -0.8756 -1.2905 -0.0970
  531TIP3   OH225787   1.300   5.392  16.151  0.0199  0.3504 -0.4112
  531TIP3    H125788   1.241   5.339  16.098 -0.4127 -1.0783  1.4250
  531TIP3    H225789   1.387   5.357  16.132 -0.0734  0.1733 -0.5181
  532TIP3   OH225790   3.282   2.757  15.058 -0.2029 -0.3217 -0.2629
  532TIP3    H125791   3.267   2.706  15.137  0.0578 -0.4862 -0.3186
  532TIP3    H225792   3.296   2.692  14.989 -1.7784 -0.2076 -0.7299
  533TIP3   OH225793   4.920   5.418  15.103  0.0002  0.0062 -0.4694
  533TIP3    H125794   4.925   5.325  15.124 -1.5956  0.0453  0.2235
  533TIP3    H225795   4.972   5.428  15.024 -0.6035 -1.6581 -1.1121
  534TIP3   OH225796   2.431   4.029  17.212 -0.3897 -0.1101 -0.1085
  534TIP3    H125797   2.390   4.077  17.284 -0.2767 -0.5662  0.2653
  534TIP3    H225798   2.383   3.947  17.208 -0.1207 -0.2601 -0.2760
  535TIP3   OH225799   4.814   3.411  15.663  0.3745 -0.5397 -0.0894
  535TIP3    H125800   4.778   3.392  15.750 -1.3695  0.2349 -0.5952
  535TIP3    H225801   4.764   3.487  15.633 -0.3542 -1.8725 -2.5119
  536TIP3   OH225802   4.070   4.258  15.092 -0.4523 -0.0841  0.3506
  536TIP3    H125803   4.115   4.231  15.012  0.8859  0.8212  0.7587
  536TIP3    H225804   4.032   4.343  15.069 -0.4009 -0.0068  0.5522
  537TIP3   OH225805   1.888   4.828  16.377  0.2651 -0.8287 -0.5274
  537TIP3    H125806   1.971   4.787  16.400  0.1963 -0.6403  0.0624
  537TIP3    H225807   1.912   4.898  16.316  0.5144 -0.9133 -0.5284
  538TIP3   OH225808   0.400   2.448  15.740  0.0566 -0.1171  0.0534
  538TIP3    H125809   0.455   2.526  15.752 -1.5471  1.1773 -0.6319
  538TIP3    H225810   0.310   2.482  15.739 -0.7408 -2.0805  0.4767
  539TIP3   OH225811   2.629   3.494  16.317  0.3100  0.4017  0.0702
  539TIP3    H125812   2.717   3.526  16.299  1.1003 -1.5676  0.1344
  539TIP3    H225813   2.626   3.481  16.411 -0.3691  1.2479  0.1830
  540TIP3   OH225814   4.472   6.392  15.437 -0.3974  0.8645 -0.3226
  540TIP3    H125815   4.559   6.381  15.475 -0.4008 -1.1154 -0.7579
  540TIP3    H225816   4.460   6.487  15.431  1.5658  1.1858  0.0926
  541TIP3   OH225817   3.377   5.404  15.331 -0.1657  0.6536  0.1269
  541TIP3    H125818   3.303   5.388  15.390  0.6099 -0.7163  0.7988
  541TIP3    H225819   3.336   5.425  15.247 -1.3157  0.4191  0.5987
  542TIP3   OH225820   6.235   1.732  14.814  0.4112  0.3500 -0.0219
  542TIP3    H125821   6.184   1.781  14.879  2.3975  0.0233  1.9250
  542TIP3    H225822   6.316   1.709  14.860  0.5546 -2.7916 -1.5692
  543TIP3   OH225823   0.710   5.192  14.013  0.0526 -0.0390  0.0871
  543TIP3    H125824   0.689   5.099  14.015 -0.4787  0.0868  1.4964
  543TIP3    H225825   0.652   5.231  14.078  0.6589  1.1923 -0.0815
  544TIP3   OH225826   1.080   2.843  15.383  0.0131 -0.6099 -0.4542
  544TIP3    H125827   1.064   2.844  15.289 -1.4926  1.5588 -0.2378
  544TIP3    H225828   1.115   2.930  15.402  0.4137 -1.0640  0.9907
  545TIP3   OH225829   2.676   2.180  15.989 -0.0596 -0.5697  0.2718
  545TIP3    H125830   2.681   2.266  16.031 -0.1866 -1.5927  2.5556
  545TIP3    H225831   2.592   2.180  15.944 -0.2770  0.3406  0.6485
  546TIP3   OH225832   5.855   1.852  13.676 -0.6426 -0.3676  0.3254
  546TIP3    H125833   5.767   1.821  13.698 -1.1221  0.7345  0.0733
  546TIP3    H225834   5.897   1.778  13.632 -1.5834 -0.7915  0.1171
  547TIP3   OH225835   0.998   0.494  16.483  0.5609 -0.2030 -0.2493
  547TIP3    H125836   1.058   0.480  16.410  1.5117  0.6452  0.3360
  547TIP3    H225837   1.026   0.578  16.521  0.7816 -1.1286  1.7361
  548TIP3   OH225838   5.201   4.633  14.642 -0.4576 -0.1591  0.0357
  548TIP3    H125839   5.278   4.582  14.617 -0.2644  1.3784 -2.8806
  548TIP3    H225840   5.129   4.570  14.642  0.4762 -1.2841  1.1789
  549TIP3   OH225841   3.328   5.688  17.220  0.2455  0.3183  0.5631
  549TIP3    H125842   3.279   5.765  17.248 -0.3206  0.2008 -0.0731
  549TIP3    H225843   3.274   5.614  17.248 -0.9369  0.1936 -1.7492
  550TIP3   OH225844   3.787   5.306  15.161 -0.1662 -0.2910 -0.5167
  550TIP3    H125845   3.794   5.401  15.161 -0.6757 -0.2467 -0.1878
  550TIP3    H225846   3.843   5.277  15.233 -0.8544 -0.1605  0.0845
  551TIP3   OH225847   2.629   0.216  16.470  0.4325  0.1264 -0.8135
  551TIP3    H125848   2.608   0.309  16.481  0.9934  0.1318  0.3770
  551TIP3    H225849   2.640   0.184  16.559 -1.4264 -1.4894 -1.0809
  552TIP3   OH225850   3.017   0.972  14.715 -0.2247  0.0300  0.1932
  552TIP3    H125851   2.932   0.994  14.754 -0.8216  0.2177 -1.1616
  552TIP3    H225852   2.998   0.902  14.653  0.5225  0.3752 -0.4446
  553TIP3   OH225853   3.509   6.364  17.051 -0.4849 -0.0505 -0.0469
  553TIP3    H125854   3.474   6.378  16.964  0.7323  2.0723 -0.2455
  553TIP3    H225855   3.558   6.443  17.071  0.9553 -1.3014  1.7585
  554TIP3   OH225856   1.628   0.807  15.286 -0.2198  0.2447  0.1360
  554TIP3    H125857   1.547   0.766  15.255 -0.2083 -0.4564  0.9909
  554TIP3    H225858   1.628   0.790  15.380  0.9511  0.1976  0.1356
  555TIP3   OH225859   6.249   6.358  14.390 -0.0138  0.1899  0.3334
  555TIP3    H125860   6.327   6.389  14.345 -0.3399 -2.0775 -2.0386
  555TIP3    H225861   6.177   6.404  14.347 -0.1637  0.5060  0.9022
  556TIP3   OH225862   0.452   6.563  15.415  0.4422 -0.2176  0.0487
  556TIP3    H125863   0.462   6.615  15.335 -3.1592 -1.0694 -1.1305
  556TIP3    H225864   0.528   6.587  15.469  2.3468  1.3416 -3.0558
  557TIP3   OH225865   0.764   3.356  16.616  0.1163  0.3230  1.0098
  557TIP3    H125866   0.839   3.412  16.638  0.2418  1.1139 -1.1909
  557TIP3    H225867   0.802   3.284  16.565 -0.5635  0.7077 -0.0872
  558TIP3   OH225868   2.174   0.944  15.255  0.4113 -0.6472  0.5923
  558TIP3    H125869   2.129   0.866  15.289  0.0496  0.2229  2.2383
  558TIP3    H225870   2.151   1.013  15.317  1.4710  0.5639 -0.3187
  559TIP3   OH225871   5.140   6.233  14.823 -1.0876 -0.5554  0.2767
  559TIP3    H125872   5.092   6.233  14.740 -0.9970 -0.5993  0.2241
  559TIP3    H225873   5.213   6.293  14.808 -1.7000  0.3177  0.6901
  560TIP3   OH225874   5.545   6.407  13.765  0.2897 -0.0680 -0.7098
  560TIP3    H125875   5.608   6.456  13.712  1.5806 -0.1485  0.6901
  560TIP3    H225876   5.518   6.335  13.708  1.2019  0.1597 -1.4699
  561TIP3   OH225877   6.555   1.461  16.221 -0.2139  0.3206 -0.4322
  561TIP3    H125878   6.620   1.504  16.166 -0.1678  0.7832 -0.0217
  561TIP3    H225879   6.605   1.404  16.279 -0.2179  0.2692 -0.4792
  562TIP3   OH225880   6.094   0.154  13.420  0.2351  0.2817 -0.2467
  562TIP3    H125881   6.161   0.094  13.387 -1.5747 -2.4987  0.6965
  562TIP3    H225882   6.074   0.210  13.345  0.1314 -2.1847 -2.2310
  563TIP3   OH225883   6.652   4.577  16.072  0.4334 -0.1424  0.0431
  563TIP3    H125884   6.690   4.539  16.151  0.3398  1.2543  0.7741
  563TIP3    H225885   6.719   4.637  16.039 -0.2725  0.7261  0.1491
  564TIP3   OH225886   3.436   0.688  14.293  0.1562  0.0921 -0.6916
  564TIP3    H125887   3.374   0.676  14.364 -0.0161  0.5995 -0.7581
  564TIP3    H225888   3.455   0.782  14.292 -1.6323  0.4967 -2.8084
  565TIP3   OH225889   0.451   1.408  16.870 -0.4182 -0.2283  0.2947
  565TIP3    H125890   0.385   1.355  16.826 -0.3389 -0.5469  0.5579
  565TIP3    H225891   0.462   1.367  16.956 -1.0971  0.7956  0.9037
  566TIP3   OH225892   5.792   3.525  14.299 -0.3129  0.1122 -0.4078
  566TIP3    H125893   5.728   3.535  14.370 -0.0469  1.0022 -0.2848
  566TIP3    H225894   5.740   3.497  14.224 -0.9265  1.2644 -0.4319
  567TIP3   OH225895   1.570   5.226  15.639  0.4658  0.2406  0.2947
  567TIP3    H125896   1.664   5.213  15.639  0.6074  1.1766  0.7488
  567TIP3    H225897   1.559   5.319  15.619 -0.4340 -0.2699 -1.8668
  568TIP3   OH225898   4.974   4.472  14.693 -0.0004  0.0317 -0.2750
  568TIP3    H125899   4.942   4.492  14.781  1.6328 -2.0417  0.8796
  568TIP3    H225900   4.914   4.405  14.660  2.1715 -3.0256  1.4453
  569TIP3   OH225901   0.715   6.708  16.969 -0.0292 -0.3068 -0.3913
  569TIP3    H125902   0.808   6.696  16.952  0.0361 -1.2281  0.5560
  569TIP3    H225903   0.679   6.620  16.975 -0.4582 -0.0307  1.8560
  570TIP3   OH225904   3.062   6.370  16.356  0.8266 -0.1345 -0.4182
  570TIP3    H125905   3.116   6.429  16.409  1.5195 -0.8378 -0.3115
  570TIP3    H225906   3.107   6.367  16.271  0.8918 -0.6315 -0.3692
  571TIP3   OH225907   2.773   2.168  13.973 -0.3949 -0.4522 -0.0855
  571TIP3    H125908   2.690   2.215  13.962  0.6077  1.5536  0.3183
  571TIP3    H225909   2.776   2.107  13.900 -1.9937 -0.1949 -0.4005
  572TIP3   OH225910   5.528   3.705  14.114 -0.0761 -0.3011 -0.5429
  572TIP3    H125911   5.506   3.772  14.049  1.5043  0.9785  0.1757
  572TIP3    H225912   5.508   3.745  14.198 -0.3192 -1.2405 -0.1305
  573TIP3   OH225913   0.341   1.963  16.457  0.2373 -0.3575 -0.3830
  573TIP3    H125914   0.410   2.028  16.468 -0.3324  0.1272  0.4913
  573TIP3    H225915   0.387   1.881  16.441  0.9968  0.0576 -0.3543
  574TIP3   OH225916   5.934   0.982  14.093  0.5796  0.0046  1.0180
  574TIP3    H125917   5.928   1.029  14.176  1.6387  0.9030  0.6056
  574TIP3    H225918   5.967   0.896  14.117  2.0715  0.6607  1.4267
  575TIP3   OH225919   4.757   0.305  16.413 -0.2518 -0.1654  0.1042
  575TIP3    H125920   4.689   0.299  16.480 -1.6123 -1.0383 -1.2896
  575TIP3    H225921   4.739   0.233  16.353  0.5430  0.9287 -1.5404
  576TIP3   OH225922   6.172   1.463  16.791  0.2982  0.7085  0.2368
  576TIP3    H125923   6.119   1.523  16.739  0.5119  0.4349 -0.3017
  576TIP3    H225924   6.262   1.493  16.779  0.4695 -0.0850 -0.5340
  577TIP3   OH225925   5.828   4.310  14.844 -0.1776 -0.0840  0.3531
  577TIP3    H125926   5.861   4.222  14.824 -0.7476 -0.7658  2.1876
  577TIP3    H225927   5.846   4.361  14.765  0.6536 -1.7060 -0.5601
  578TIP3   OH225928   4.498   1.509  14.951 -0.2608  0.8754  0.0608
  578TIP3    H125929   4.576   1.548  14.913 -0.2004  1.0816  0.3964
  578TIP3    H225930   4.428   1.529  14.889  0.5321 -2.4180 -2.2080
  579TIP3   OH225931   3.117   3.351  16.233 -0.0664 -0.8506 -0.1342
  579TIP3    H125932   3.063   3.426  16.259 -0.7344 -1.1967 -0.4941
  579TIP3    H225933   3.158   3.378  16.151  0.0473 -0.7103 -0.0313
  580TIP3   OH225934   2.739   3.825  17.196 -0.3936 -0.0386  0.3561
  580TIP3    H125935   2.670   3.765  17.167  0.9877 -0.9099 -1.2796
  580TIP3    H225936   2.691   3.896  17.240 -2.4415 -0.1713 -1.4282
  581TIP3   OH225937   2.040   5.427  15.905  0.3340  0.3928  0.1609
  581TIP3    H125938   2.099   5.502  15.898  0.6997  0.0638 -0.4575
  581TIP3    H225939   2.089   5.363  15.956  0.5268  0.1179 -0.3553
  582TIP3   OH225940   5.842   6.524  15.763 -0.2026 -0.6512  0.5494
  582TIP3    H125941   5.793   6.542  15.843  0.0428  2.3814  0.1377
  582TIP3    H225942   5.817   6.595  15.703  1.1534 -1.6787 -1.3393
  583TIP3   OH225943   2.573   2.711  14.944  0.1487 -0.2965  0.3806
  583TIP3    H125944   2.593   2.689  15.035  1.6186  0.9291  0.4020
  583TIP3    H225945   2.479   2.699  14.937  0.0313 -0.5967  2.0212
  584TIP3   OH225946   1.730   4.276  15.632  0.6602  0.1690  0.0864
  584TIP3    H125947   1.667   4.216  15.594  0.6306 -0.1213  0.5731
  584TIP3    H225948   1.807   4.270  15.575  0.8649 -0.7631  0.4256
  585TIP3   OH225949   6.297   0.152  16.322  0.1621  0.0984  0.3207
  585TIP3    H125950   6.331   0.069  16.288 -0.4007 -0.1891  0.4568
  585TIP3    H225951   6.243   0.127  16.396  1.3946  0.7239  1.4727
  586TIP3   OH225952   4.461   2.277  14.648  0.4930 -0.6760 -0.1213
  586TIP3    H125953   4.477   2.350  14.708 -0.0536 -0.5587 -0.1178
  586TIP3    H225954   4.537   2.278  14.590 -0.7573  1.6432 -1.8776
  587TIP3   OH225955   0.600   3.225  14.945  0.3552 -0.3324 -0.3168
  587TIP3    H125956   0.505   3.228  14.936  0.4657  0.3938 -1.6426
  587TIP3    H225957   0.619   3.278  15.023 -0.2760  0.5055 -0.7111
  588TIP3   OH225958   1.788   1.535  14.819  0.0707 -0.0793  0.1511
  588TIP3    H125959   1.714   1.490  14.858  0.0766  0.8789  1.3337
  588TIP3    H225960   1.761   1.627  14.814  1.4527  0.4580  1.4396
  589TIP3   OH225961   0.990   5.909  16.165  0.3551  0.4004 -0.0645
  589TIP3    H125962   1.049   5.860  16.222  0.8401  0.3761 -0.5870
  589TIP3    H225963   1.033   5.994  16.154 -0.5246  1.0027  0.9185
  590TIP3   OH225964   2.969   0.049  15.379  0.2297 -0.6789  0.5747
  590TIP3    H125965   3.063   0.061  15.372  0.0738 -0.1043 -0.9455
  590TIP3    H225966   2.941   0.026  15.290 -0.7669 -3.1541  1.4397
  591TIP3   OH225967   4.841   4.338  15.180 -0.1138  0.5601  0.3009
  591TIP3    H125968   4.917   4.285  15.201 -1.5189 -1.5465  0.4377
  591TIP3    H225969   4.820   4.384  15.261  0.7577  0.8454  0.3690
  592TIP3   OH225970   1.401   2.478  16.725 -0.1585  0.0619  0.1012
  592TIP3    H125971   1.383   2.550  16.664  1.1049 -0.3902 -0.8444
  592TIP3    H225972   1.492   2.491  16.749  0.5314 -2.0052 -1.1891
  593TIP3   OH225973   1.239   3.843  15.045  0.1567 -0.0750  0.5867
  593TIP3    H125974   1.215   3.753  15.022  0.8333 -0.3761  1.0351
  593TIP3    H225975   1.230   3.892  14.963  0.5074 -0.7028  0.1679
  594TIP3   OH225976   4.309   4.340  15.948 -0.1788  0.1043  0.4937
  594TIP3    H125977   4.300   4.245  15.951 -0.8070  0.1529  0.1411
  594TIP3    H225978   4.380   4.355  15.885  0.0743 -0.1384  0.7201
  595TIP3   OH225979   4.522   6.124  15.574 -0.7729 -0.1954 -0.0544
  595TIP3    H125980   4.499   6.075  15.495 -0.4026  0.9147 -0.8577
  595TIP3    H225981   4.542   6.212  15.544  2.1031 -0.4282  0.9068
  596TIP3   OH225982   5.299   0.708  14.441  0.2150  0.0835 -0.0364
  596TIP3    H125983   5.302   0.624  14.487 -1.7615 -0.4590 -0.8236
  596TIP3    H225984   5.361   0.698  14.369  0.9245 -0.2219  0.6015
  597TIP3   OH225985   6.037   3.503  15.432  0.3673  0.0190 -0.0522
  597TIP3    H125986   5.999   3.589  15.448  2.0697  0.4430  2.1360
  597TIP3    H225987   6.131   3.518  15.432  0.6765 -1.7222 -0.5867
  598TIP3   OH225988   4.792   3.568  16.570  0.2502 -0.4059  0.2700
  598TIP3    H125989   4.775   3.644  16.626  1.4590 -0.3546  0.6033
  598TIP3    H225990   4.780   3.601  16.481 -0.1096 -0.0615  0.4446
  599TIP3   OH225991   1.941   5.852  14.558  0.4071 -0.0255 -0.2637
  599TIP3    H125992   2.036   5.856  14.569  0.4978  1.2959 -1.2199
  599TIP3    H225993   1.914   5.944  14.556 -0.6080 -0.3101 -2.0926
  600TIP3   OH225994   5.936   1.983  15.365  0.1840  0.2994  0.1694
  600TIP3    H125995   6.010   2.005  15.421 -0.2935  1.0809  0.5077
  600TIP3    H225996   5.943   1.888  15.352  1.0582  0.3151  0.4486
  601TIP3   OH225997   4.787   2.526  14.648 -0.5902 -0.4122 -0.2713
  601TIP3    H125998   4.845   2.474  14.703 -1.6565 -1.9807 -0.5642
  601TIP3    H225999   4.843   2.560  14.579  0.6156  0.9256  1.2663
  602TIP3   OH226000   6.504   2.833  14.996 -0.3050 -0.1165  0.5642
  602TIP3    H126001   6.516   2.740  14.979 -1.3903 -0.1315 -0.3106
  602TIP3    H226002   6.411   2.841  15.019 -0.5531  0.8774 -0.6244
  603TIP3   OH226003   5.601   4.626  14.627  0.6600 -0.0563  0.2811
  603TIP3    H126004   5.563   4.685  14.692  0.5447 -1.8154  1.8871
  603TIP3    H226005   5.529   4.569  14.601  1.1869 -0.6772  0.1567
  604TIP3   OH226006   1.058   1.157  15.822  0.2478 -0.2654 -1.0123
  604TIP3    H126007   1.099   1.104  15.754  1.4696 -0.2246 -0.3368
  604TIP3    H226008   1.112   1.142  15.900 -0.8247  0.0697 -0.1758
  605TIP3   OH226009   4.366   1.753  14.484  0.0884  0.6854  0.3688
  605TIP3    H126010   4.327   1.796  14.408 -0.1585  0.9268  0.6265
  605TIP3    H226011   4.374   1.661  14.459  1.0603  0.9585 -0.3661
  606TIP3   OH226012   2.273   2.080  14.281 -0.1584 -0.0465 -0.3025
  606TIP3    H126013   2.283   1.985  14.268 -4.4987 -0.8621  0.7390
  606TIP3    H226014   2.300   2.094  14.372  1.3585 -0.0524 -0.7273
  607TIP3   OH226015   2.473   2.989  15.753  0.1428 -0.4532 -0.5013
  607TIP3    H126016   2.530   2.984  15.829 -0.0289  0.7782 -0.2762
  607TIP3    H226017   2.529   2.963  15.679  0.0767 -2.5078  0.1194
  608TIP3   OH226018   5.639   6.675  15.953  0.1778 -0.4422 -0.6074
  608TIP3    H126019   5.549   6.697  15.926  0.3516 -1.2993 -1.9748
  608TIP3    H226020   5.627   6.618  16.029 -0.2911  3.3865  2.4534
  609TIP3   OH226021   4.483   6.625  14.746  0.3043  0.0441 -0.3799
  609TIP3    H126022   4.567   6.668  14.731 -0.0470  0.5406 -0.9679
  609TIP3    H226023   4.504   6.551  14.803  0.7947  1.4752  1.3904
  610TIP3   OH226024   2.867   6.083  15.339  0.0984 -0.6580 -0.2306
  610TIP3    H126025   2.922   6.010  15.311  1.1296 -0.6590  1.6338
  610TIP3    H226026   2.919   6.161  15.320 -0.5113 -0.4663 -1.1534
  611TIP3   OH226027   5.711   0.684  14.660 -0.4819 -0.3072  0.0836
  611TIP3    H126028   5.645   0.711  14.597 -0.4134  0.9818  0.5463
  611TIP3    H226029   5.792   0.677  14.609 -0.7269 -0.7346 -0.2522
  612TIP3   OH226030   3.729   6.303  15.586 -0.0846  0.0853  0.2723
  612TIP3    H126031   3.809   6.356  15.589  0.6202 -0.9692  1.6551
  612TIP3    H226032   3.708   6.295  15.493  1.3547  0.5015 -0.1121
  613TIP3   OH226033   1.750   1.415  13.595 -0.1080  0.0280 -0.0111
  613TIP3    H126034   1.751   1.456  13.508  1.6695  0.0398 -0.0110
  613TIP3    H226035   1.786   1.482  13.653 -0.4531 -0.3066  0.6003
  614TIP3   OH226036   4.970   1.481  15.572  0.1325  0.3886 -0.3620
  614TIP3    H126037   4.936   1.425  15.502  1.6295 -0.0780 -0.7502
  614TIP3    H226038   5.053   1.514  15.538 -0.6123  2.7247 -0.0627
  615TIP3   OH226039   2.773   2.610  16.597 -0.1017 -0.1087 -0.5044
  615TIP3    H126040   2.861   2.612  16.558  0.1738 -1.3494  0.0411
  615TIP3    H226041   2.742   2.701  16.588  0.2399 -0.1645 -2.9244
  616TIP3   OH226042   2.532   6.516  17.324 -0.3946  0.0036  0.6474
  616TIP3    H126043   2.453   6.477  17.361  0.4975 -1.7704  0.7928
  616TIP3    H226044   2.603   6.478  17.376  0.7628 -0.9543 -1.5237
  617TIP3   OH226045   0.036   0.642  14.153  0.1209 -0.3538 -0.3230
  617TIP3    H126046   0.062   0.730  14.180 -0.3028  0.4178 -2.2829
  617TIP3    H226047  -0.005   0.654  14.067  0.9992 -2.5765 -1.1316
  618TIP3   OH226048   6.184   1.809  16.244  0.3905 -0.5399 -0.7737
  618TIP3    H126049   6.278   1.825  16.255  0.3873 -0.6067 -0.6447
  618TIP3    H226050   6.180   1.738  16.180  0.4394 -0.7739 -0.5202
  619TIP3   OH226051   5.089   3.148  15.343  0.1441  0.1863  0.6660
  619TIP3    H126052   5.010   3.183  15.385 -0.0150 -1.3757  1.7188
  619TIP3    H226053   5.110   3.070  15.393  0.9850 -0.7618 -1.0945
  620TIP3   OH226054   4.592   4.304  15.453  0.0472 -0.0399 -0.6646
  620TIP3    H126055   4.582   4.251  15.374  0.9284 -0.5026 -0.4723
  620TIP3    H226056   4.648   4.377  15.427  0.6891 -0.4188 -0.3736
  621TIP3   OH226057   4.689   5.497  15.844  0.2170 -0.3179  0.1142
  621TIP3    H126058   4.733   5.568  15.798 -0.2450  0.1836  0.4442
  621TIP3    H226059   4.756   5.428  15.851  1.4317  0.9447  1.8403
  622TIP3   OH226060   5.329   5.268  17.061  0.5705  0.2591  0.5140
  622TIP3    H126061   5.263   5.266  16.992 -1.2097  1.8648  2.0348
  622TIP3    H226062   5.363   5.179  17.066 -1.9727 -0.7935  0.0949
  623TIP3   OH226063   3.624   5.033  13.626  0.9005 -0.2308 -0.1104
  623TIP3    H126064   3.672   5.016  13.707  0.2316  1.1497  0.6144
  623TIP3    H226065   3.534   5.005  13.645  0.8615 -0.4423 -0.5849
  624TIP3   OH226066   0.698   3.561  16.162 -0.0500 -0.5540 -0.6200
  624TIP3    H126067   0.779   3.612  16.158  0.4314 -1.2349  0.1256
  624TIP3    H226068   0.648   3.590  16.086  0.9890 -0.2856 -1.2296
  625TIP3   OH226069   5.598   0.327  15.298  0.1375 -0.3868  0.3556
  625TIP3    H126070   5.561   0.298  15.214 -0.7785 -1.3525  1.0549
  625TIP3    H226071   5.656   0.256  15.324 -1.1426 -1.0802  1.4772
  626TIP3   OH226072   4.143   0.569  15.134  0.2607  0.0785 -0.8389
  626TIP3    H126073   4.230   0.608  15.144  0.0264  0.1631  1.2793
  626TIP3    H226074   4.083   0.637  15.164 -0.4347 -0.5088 -0.8919
  627TIP3   OH226075   2.545   4.687  16.955 -0.2049  0.0841  0.2579
  627TIP3    H126076   2.582   4.768  16.920 -0.7737  0.0218 -0.5069
  627TIP3    H226077   2.579   4.619  16.896 -1.8369  0.0673 -0.7162
  628TIP3   OH226078   1.876   0.326  15.914 -0.3697 -0.4500 -0.6169
  628TIP3    H126079   1.812   0.261  15.942  1.3359 -2.0195 -0.1604
  628TIP3    H226080   1.839   0.364  15.834 -2.6993  0.0704  0.6421
  629TIP3   OH226081   3.066   2.377  17.147 -0.0866 -0.7509 -0.2945
  629TIP3    H126082   3.120   2.357  17.224  0.2967  1.6279  0.1421
  629TIP3    H226083   3.017   2.297  17.131  1.8861 -2.2527  0.7017
  630TIP3   OH226084   1.482   6.155  15.651 -0.0646  0.2732 -0.3096
  630TIP3    H126085   1.431   6.075  15.642 -0.8828  0.4074  2.2787
  630TIP3    H226086   1.570   6.132  15.619 -0.2454 -1.6909  0.4811
  631TIP3   OH226087   4.163   4.649  14.585 -0.4582 -0.3176 -0.4162
  631TIP3    H126088   4.142   4.566  14.628  1.1821 -0.9346 -0.7382
  631TIP3    H226089   4.254   4.640  14.558 -0.3580  1.4477 -0.8127
  632TIP3   OH226090   3.381   5.236  16.403  0.4810  0.5838  0.2586
  632TIP3    H126091   3.466   5.192  16.413  0.1248 -0.9280 -2.4463
  632TIP3    H226092   3.403   5.324  16.373  1.1693 -0.4707 -2.6124
  633TIP3   OH226093   4.463   3.568  16.602  0.4523  0.1149 -0.6284
  633TIP3    H126094   4.528   3.503  16.627  1.0036  0.9073  0.0261
  633TIP3    H226095   4.381   3.537  16.641  0.8671  0.2108  0.3315
  634TIP3   OH226096   0.073   5.305  14.458  0.2572  0.2899  0.2628
  634TIP3    H126097   0.067   5.389  14.413  1.8880  0.6451  0.6504
  634TIP3    H226098   0.146   5.315  14.519 -0.5938 -0.8561  1.5439
  635TIP3   OH226099   1.618   0.459  14.825  0.2688  0.2015 -0.1686
  635TIP3    H126100   1.662   0.376  14.843 -1.3369 -0.7247 -0.2529
  635TIP3    H226101   1.687   0.517  14.793  1.4708 -1.0290  0.0918
  636TIP3   OH226102   0.587   0.629  15.914  0.2821  0.4142  0.3188
  636TIP3    H126103   0.682   0.632  15.906  0.1694  2.4296 -0.9067
  636TIP3    H226104   0.558   0.569  15.845  0.5879  1.0266 -0.3489
  637TIP3   OH226105   1.988   5.457  13.548 -0.3236 -0.4579  0.1141
  637TIP3    H126106   2.051   5.487  13.613  0.9783 -1.1728 -0.7836
  637TIP3    H226107   1.991   5.524  13.479 -2.2096  0.6654  1.0387
  638TIP3   OH226108   2.086   4.776  15.922 -0.2012  0.3771  0.7429
  638TIP3    H126109   1.992   4.762  15.912  0.1043 -1.8807  0.4113
  638TIP3    H226110   2.101   4.864  15.889 -2.1280  0.6307  0.4243
  639TIP3   OH226111   1.192   6.656  13.700 -0.0376 -0.2356  0.4614
  639TIP3    H126112   1.215   6.649  13.793  2.1434  1.2085  0.1206
  639TIP3    H226113   1.235   6.582  13.658  0.3711  0.0285  0.4055
  640TIP3   OH226114   1.276   4.915  15.144  0.1537  0.3735  0.4540
  640TIP3    H126115   1.196   4.877  15.109 -0.0750  1.6912 -0.5323
  640TIP3    H226116   1.307   4.851  15.208 -0.8294 -0.8952 -0.2831
  641TIP3   OH226117   6.509   3.994  15.174 -0.3605  0.6596 -0.4139
  641TIP3    H126118   6.421   3.989  15.213 -0.3692 -0.5046 -0.5283
  641TIP3    H226119   6.499   4.051  15.098 -1.4392 -0.8241 -1.4346
  642TIP3   OH226120   3.714   1.387  15.524 -0.3365 -0.2892  0.1394
  642TIP3    H126121   3.794   1.389  15.576  0.9053 -2.0400 -1.5598
  642TIP3    H226122   3.644   1.372  15.587  0.6483  1.1668  1.6551
  643TIP3   OH226123   2.984   3.007  16.897  0.5969 -0.1843 -0.3011
  643TIP3    H126124   2.937   2.956  16.962 -1.2320  1.4239 -0.2782
  643TIP3    H226125   3.018   2.941  16.835 -1.6014 -1.4493 -0.2502
  644TIP3   OH226126   4.045   0.672  15.971  0.7910  0.6028 -0.3281
  644TIP3    H126127   4.108   0.616  16.017  0.2726 -0.2772 -0.6658
  644TIP3    H226128   4.097   0.747  15.942  1.4083  0.5145  0.5024
  645TIP3   OH226129   4.010   3.072  15.181 -0.5632 -0.2051  0.1953
  645TIP3    H126130   4.019   3.126  15.259  0.6532 -0.4364  0.2434
  645TIP3    H226131   4.098   3.073  15.141 -0.2942 -2.7018  0.5791
  646TIP3   OH226132   1.676   1.898  13.933  0.2674  0.4561  0.1022
  646TIP3    H126133   1.630   1.935  13.857  0.6027  0.4326 -0.1144
  646TIP3    H226134   1.692   1.973  13.989 -2.7040  0.1033  1.6519
  647TIP3   OH226135   5.955   0.996  17.088 -0.1557 -0.0704 -0.4796
  647TIP3    H126136   6.026   0.954  17.137 -0.0264  0.7592  0.0503
  647TIP3    H226137   5.959   1.088  17.114 -0.3269  0.3184 -1.7558
  648TIP3   OH226138   2.946   1.829  16.581 -0.2529 -0.3001 -0.7105
  648TIP3    H126139   2.887   1.842  16.507  0.7281  1.8622 -1.2089
  648TIP3    H226140   2.912   1.886  16.650  0.8471  0.4602 -0.7757
  649TIP3   OH226141   5.671   6.660  16.637  0.0669  0.4231 -0.3313
  649TIP3    H126142   5.612   6.634  16.708  2.0653 -0.7900  0.9982
  649TIP3    H226143   5.687   6.579  16.588  0.3671  0.8025 -0.8708
  650TIP3   OH226144   3.372   4.364  15.843  0.2350  0.1972 -0.0753
  650TIP3    H126145   3.298   4.337  15.789 -2.4135  2.0920  2.3183
  650TIP3    H226146   3.399   4.449  15.807  0.7629 -0.1325 -0.4713
  651TIP3   OH226147   3.612   2.536  14.432  0.3086 -0.4770 -0.2119
  651TIP3    H126148   3.606   2.549  14.527 -0.0630 -1.0727 -0.1477
  651TIP3    H226149   3.703   2.507  14.418 -0.2187 -2.5200  0.2564
  652TIP3   OH226150   2.791   0.469  16.494  0.9037  0.3778  0.2388
  652TIP3    H126151   2.756   0.536  16.552  0.0730  0.0402  0.1396
  652TIP3    H226152   2.776   0.502  16.405 -0.0157 -0.1691  0.1753
  653TIP3   OH226153   0.681   0.915  16.507  0.1029 -0.4507 -0.2050
  653TIP3    H126154   0.761   0.928  16.557 -0.1703  1.9094 -0.2570
  653TIP3    H226155   0.611   0.924  16.571 -0.1889  0.7584 -0.6659
  654TIP3   OH226156   1.005   5.834  13.658 -0.3626 -0.2237  1.1249
  654TIP3    H126157   0.957   5.812  13.578 -0.9480  1.2337  1.0324
  654TIP3    H226158   1.055   5.755  13.679 -1.1204 -1.0417 -0.0062
  655TIP3   OH226159   5.824   6.154  14.652 -0.1323  0.0128 -0.2811
  655TIP3    H126160   5.860   6.075  14.613 -4.5458 -1.7315 -1.4675
  655TIP3    H226161   5.794   6.127  14.739 -1.7359  0.2399 -0.7179
  656TIP3   OH226162   1.090   5.582  16.036  0.5628  0.0423  0.4182
  656TIP3    H126163   1.153   5.555  15.969  0.7664 -0.7414  0.9171
  656TIP3    H226164   1.056   5.500  16.072 -1.2992  0.4228 -0.3413
  657TIP3   OH226165   1.984   6.324  14.685  0.0860  0.2261 -0.2128
  657TIP3    H126166   1.933   6.343  14.607 -0.8124  1.7029  0.6750
  657TIP3    H226167   2.053   6.265  14.655 -0.5684  0.3009 -1.9886
  658TIP3   OH226168   3.343   4.085  14.691 -0.1677 -0.1238 -0.7485
  658TIP3    H126169   3.278   4.044  14.748  0.5811  0.1607  0.3360
  658TIP3    H226170   3.299   4.163  14.657  0.3889  1.5399  2.0347
  659TIP3   OH226171   4.745   3.665  15.506 -0.3103  0.4783  0.3846
  659TIP3    H126172   4.664   3.617  15.524  0.3618 -1.2135 -0.8533
  659TIP3    H226173   4.753   3.666  15.411  1.5452 -0.1559  0.4882
  660TIP3   OH226174   2.036   4.164  14.657 -0.5293  0.3656  0.4754
  660TIP3    H126175   2.032   4.148  14.751 -0.1485  2.5156  0.9042
  660TIP3    H226176   2.006   4.254  14.646  1.1205  0.7835 -1.2442
  661TIP3   OH226177   3.077   0.148  17.041 -0.4678 -0.3033  0.0983
  661TIP3    H126178   3.032   0.148  17.125  0.8068  1.4117  0.8480
  661TIP3    H226179   3.170   0.138  17.063 -0.1157  0.0520 -1.1002
  662TIP3   OH226180   5.787   2.687  14.079  0.2868  0.0158  0.4463
  662TIP3    H126181   5.783   2.696  14.175 -1.6677  0.0018  0.3980
  662TIP3    H226182   5.711   2.634  14.057  1.1694 -0.6935 -1.0735
  663TIP3   OH226183   4.285   0.028  15.876  0.1004  0.5695  0.3499
  663TIP3    H126184   4.279   0.045  15.782 -0.6146 -2.2264 -0.1912
  663TIP3    H226185   4.326   0.107  15.912 -1.0380  2.3943 -2.0605
  664TIP3   OH226186   5.059   4.873  14.517 -0.8950 -0.0686  0.8343
  664TIP3    H126187   5.113   4.816  14.572 -1.0226 -1.6808 -0.6128
  664TIP3    H226188   4.978   4.884  14.567  0.3493  1.6660  2.6366
  665TIP3   OH226189   3.782   1.093  16.128  0.7594  0.2306  0.3867
  665TIP3    H126190   3.868   1.068  16.162 -0.0045 -0.9886  1.5437
  665TIP3    H226191   3.752   1.162  16.188  1.1270  1.0611 -0.3491
  666TIP3   OH226192   1.764   5.634  15.033  0.8715  0.6729  0.1669
  666TIP3    H126193   1.715   5.682  14.967 -1.1434  0.3538  1.3679
  666TIP3    H226194   1.712   5.556  15.051  0.9937  1.0474  2.5591
  667TIP3   OH226195   2.204   6.128  14.600 -0.2562  0.1362 -0.1611
  667TIP3    H126196   2.244   6.209  14.568 -0.4502  0.5283  0.5601
  667TIP3    H226197   2.270   6.061  14.585  0.1961  0.5576 -0.0852
  668TIP3   OH226198   4.959   1.893  13.779  0.0339 -0.1424  0.1607
  668TIP3    H126199   5.001   1.977  13.795 -0.4541 -0.0267  0.9088
  668TIP3    H226200   5.029   1.837  13.745  0.3107  0.6224 -0.5665
  669TIP3   OH226201   2.727   3.761  15.271  0.0854 -0.2604 -0.0894
  669TIP3    H126202   2.645   3.721  15.302 -0.0629 -0.6524 -0.9593
  669TIP3    H226203   2.794   3.694  15.290 -0.0186 -0.5369 -0.6824
  670TIP3   OH226204   2.449   6.275  14.515 -0.0481 -0.2300  0.2645
  670TIP3    H126205   2.445   6.358  14.563  1.4818 -0.2758  0.5122
  670TIP3    H226206   2.467   6.209  14.582 -1.9317 -0.9046  0.1701
  671TIP3   OH226207   6.697   4.576  15.434 -0.0835 -0.0268 -0.1451
  671TIP3    H126208   6.773   4.614  15.390 -0.0535  0.5960  0.4286
  671TIP3    H226209   6.622   4.618  15.393 -0.0986 -0.3203 -0.4153
  672TIP3   OH226210   1.428   2.137  14.297  0.3155 -0.2352 -0.5008
  672TIP3    H126211   1.390   2.052  14.274 -1.3974  0.6275 -1.0140
  672TIP3    H226212   1.431   2.138  14.392  0.6632 -0.9843 -0.4954
  673TIP3   OH226213   2.658   5.094  16.368 -0.3206 -0.4900  0.3034
  673TIP3    H126214   2.730   5.032  16.364  1.4401  1.4567  0.4368
  673TIP3    H226215   2.620   5.093  16.280  1.3865  0.1624 -0.4716
  674TIP3   OH226216   5.147   0.059  15.607 -0.3326  0.0442 -0.0578
  674TIP3    H126217   5.242   0.065  15.600 -0.3108  0.4018  0.4548
  674TIP3    H226218   5.118   0.032  15.520  0.5515 -4.3696  0.7772
  675TIP3   OH226219   0.033   6.497  16.053  0.2903  0.2960  0.4463
  675TIP3    H126220   0.126   6.475  16.059  0.6367  1.8616  1.4682
  675TIP3    H226221   0.022   6.534  15.966  0.6124  0.0493  0.2994
  676TIP3   OH226222   6.226   0.735  13.686  0.1207  0.3360 -0.3686
  676TIP3    H126223   6.297   0.772  13.634  1.8995 -1.6272  0.5061
  676TIP3    H226224   6.155   0.722  13.624  0.5427  2.2175 -1.3071
  677TIP3   OH226225   5.464   2.491  16.537  0.1412  0.3485  0.5058
  677TIP3    H126226   5.489   2.399  16.536 -0.8106  0.0605 -0.7135
  677TIP3    H226227   5.375   2.491  16.573 -0.1609  0.6700 -0.2041
  678TIP3   OH226228   3.074   6.340  16.092 -0.1110  0.7140  0.2803
  678TIP3    H126229   2.993   6.367  16.048 -1.3490  0.5019  2.3366
  678TIP3    H226230   3.140   6.402  16.060 -1.5149  2.1703  0.0639
  679TIP3   OH226231   1.313   6.680  15.468  0.3498 -0.0773 -0.2774
  679TIP3    H126232   1.397   6.635  15.484  0.4732 -0.0458 -0.8317
  679TIP3    H226233   1.252   6.609  15.451  0.5294 -0.0535 -1.0800
  680TIP3   OH226234   3.528   1.812  14.624  0.4840 -0.1963  0.4420
  680TIP3    H126235   3.582   1.743  14.663  0.6592  0.6645  1.7585
  680TIP3    H226236   3.583   1.849  14.555  0.5111 -1.1462 -0.0561
  681TIP3   OH226237   3.632   2.146  16.646 -0.3903 -0.1058  0.2761
  681TIP3    H126238   3.574   2.203  16.595 -1.4252 -0.1258  1.3703
  681TIP3    H226239   3.691   2.206  16.692  0.7508 -0.1031 -1.1430
  682TIP3   OH226240   4.221   0.315  16.799 -0.1000 -0.1420 -0.0056
  682TIP3    H126241   4.214   0.409  16.781 -1.1025 -0.1778  0.1226
  682TIP3    H226242   4.308   0.305  16.838  0.1155  0.6966 -0.2359
  683TIP3   OH226243   3.193   3.241  16.476 -0.3091 -0.0715 -0.5341
  683TIP3    H126244   3.264   3.178  16.461  1.6397  1.6685  0.8579
  683TIP3    H226245   3.197   3.299  16.400 -0.7102 -0.3742 -0.7892
  684TIP3   OH226246   1.502   4.990  15.393  0.3120 -0.4579 -0.2058
  684TIP3    H126247   1.410   4.968  15.409 -0.4240  1.3872 -1.5239
  684TIP3    H226248   1.519   5.064  15.450  0.9233 -0.6738 -0.1068
  685TIP3   OH226249   4.238   1.971  16.735 -0.1303  0.2253  0.8036
  685TIP3    H126250   4.186   2.038  16.690  0.8405 -0.2437 -1.1776
  685TIP3    H226251   4.216   1.889  16.689  0.1749 -0.4657  1.8608
  686TIP3   OH226252   0.766   3.603  14.028 -0.2589 -0.0385 -0.1655
  686TIP3    H126253   0.676   3.634  14.016  0.5054  1.3249 -3.2105
  686TIP3    H226254   0.809   3.674  14.077 -1.0700 -1.3831  2.7642
  687TIP3   OH226255   0.557   5.419  16.198  0.1857 -0.0951  0.1298
  687TIP3    H126256   0.487   5.361  16.229 -0.1652  0.6268  0.7251
  687TIP3    H226257   0.622   5.418  16.269  0.0023  0.5227  0.3162
  688TIP3   OH226258   2.159   4.849  16.460  0.3528 -0.0574 -0.2084
  688TIP3    H126259   2.192   4.924  16.411  1.7664 -0.4301  0.1259
  688TIP3    H226260   2.188   4.865  16.550 -0.6271 -0.2805  0.1629
  689TIP3   OH226261   3.413   2.758  16.916 -0.5125 -0.2637  0.2582
  689TIP3    H126262   3.335   2.724  16.960 -0.9394 -0.4569 -0.6087
  689TIP3    H226263   3.385   2.769  16.825  0.7725 -1.3217 -0.2952
  690TIP3   OH226264   3.550   2.575  16.654  0.0838 -0.3617  0.3144
  690TIP3    H126265   3.599   2.506  16.608  0.7248  0.6919 -0.6134
  690TIP3    H226266   3.617   2.624  16.702 -0.2401  0.2024  0.1973
  691TIP3   OH226267   6.651   2.698  15.338  0.5429  0.3858  0.0526
  691TIP3    H126268   6.582   2.636  15.361  0.7866  0.3165  0.6304
  691TIP3    H226269   6.629   2.727  15.249 -1.1408  1.6102  0.8103
  692TIP3   OH226270   6.295   4.400  15.905  0.3135 -0.1294 -0.0057
  692TIP3    H126271   6.264   4.470  15.962 -0.2229 -0.0662 -0.3651
  692TIP3    H226272   6.390   4.406  15.908  0.2929 -0.2514  1.0331
  693TIP3   OH226273   0.758   4.542  16.493  0.5555  0.2384 -0.0821
  693TIP3    H126274   0.848   4.520  16.468  0.0089 -0.7951 -1.2620
  693TIP3    H226275   0.722   4.460  16.526 -0.1429  0.4933 -0.1930
  694TIP3   OH226276   6.473   1.971  15.116 -0.3824 -0.1593  0.1941
  694TIP3    H126277   6.406   1.904  15.129 -1.3551  0.8250  0.4460
  694TIP3    H226278   6.528   1.937  15.046 -0.5731 -1.4201  0.6284
  695TIP3   OH226279   0.217   1.238  15.426 -0.3869  0.3687 -0.2261
  695TIP3    H126280   0.256   1.188  15.498 -0.1296  0.0356 -0.5897
  695TIP3    H226281   0.235   1.329  15.447 -1.1721  0.3391  0.6288
  696TIP3   OH226282   2.237   4.563  15.845 -0.1662 -0.0905 -0.4739
  696TIP3    H126283   2.208   4.588  15.757  0.4594  1.8547 -0.1804
  696TIP3    H226284   2.194   4.627  15.903  2.9359  1.6384  0.1616
  697TIP3   OH226285   3.647   2.539  16.391 -0.0754 -0.5129 -0.9794
  697TIP3    H126286   3.658   2.495  16.306  0.8050  0.0140 -1.1465
  697TIP3    H226287   3.582   2.607  16.375 -1.0905 -1.4283 -0.8358
  698TIP3   OH226288   6.224   5.784  15.425  0.0823 -0.4500 -0.8564
  698TIP3    H126289   6.200   5.714  15.486 -1.8859  1.3125  0.5201
  698TIP3    H226290   6.319   5.794  15.437 -0.1126 -0.7462  1.2892
  699TIP3   OH226291   5.385   0.030  14.274  0.1520 -0.2797 -0.1727
  699TIP3    H126292   5.419  -0.058  14.291  1.2179 -0.0267 -0.8870
  699TIP3    H226293   5.412   0.081  14.350 -1.2145 -0.7356  0.6620
  700TIP3   OH226294   3.970   0.051  13.769  0.1846 -0.1251 -0.0951
  700TIP3    H126295   3.998   0.129  13.818  0.1572 -0.8017  1.0169
  700TIP3    H226296   4.019   0.056  13.687  1.6563  0.0734  0.7539
  701TIP3   OH226297   1.533   2.439  14.856 -0.4096 -0.0335  0.3294
  701TIP3    H126298   1.579   2.361  14.825  0.9721  0.9474 -0.1676
  701TIP3    H226299   1.466   2.405  14.916  0.7958 -1.5349  0.8964
  702TIP3   OH226300   4.143   5.396  13.612  0.3056 -0.0409 -0.1711
  702TIP3    H126301   4.076   5.343  13.569  0.1196  0.2238 -0.2069
  702TIP3    H226302   4.167   5.345  13.690  0.3154 -0.3008 -0.3426
  703TIP3   OH226303   1.990   5.760  13.746 -0.2342 -0.1264  0.0298
  703TIP3    H126304   1.964   5.852  13.745  0.4556  0.0765  0.2046
  703TIP3    H226305   1.908   5.711  13.746 -0.6186  0.4676 -1.4402
  704TIP3   OH226306   4.253   2.659  14.864 -0.1247  0.0390 -0.2239
  704TIP3    H126307   4.214   2.681  14.948 -1.6417  0.3046 -0.9774
  704TIP3    H226308   4.250   2.740  14.814 -1.8981 -0.7934 -1.5373
  705TIP3   OH226309   5.320   1.277  14.946 -0.4805 -0.3282 -0.1309
  705TIP3    H126310   5.310   1.194  14.901 -0.5198  0.3153 -1.3442
  705TIP3    H226311   5.415   1.288  14.955 -0.4637 -0.3149 -0.3280
  706TIP3   OH226312   5.191   2.760  14.483 -0.1407  0.0822 -0.1398
  706TIP3    H126313   5.267   2.779  14.538 -0.4398  2.2721 -0.4064
  706TIP3    H226314   5.118   2.753  14.544 -0.0434 -0.1582 -0.0485
  707TIP3   OH226315   5.265   0.208  17.248 -0.2881  0.4310 -0.2801
  707TIP3    H126316   5.301   0.176  17.330 -1.7364 -0.7820 -0.0815
  707TIP3    H226317   5.341   0.243  17.201  0.8026 -0.2161  0.9285
  708TIP3   OH226318   5.831   3.654  15.709 -0.2935  0.7070 -0.0108
  708TIP3    H126319   5.901   3.708  15.746  0.7362 -0.4380 -0.2054
  708TIP3    H226320   5.751   3.688  15.748  0.3298  2.3025 -0.0716
  709TIP3   OH226321   4.398   5.529  16.180 -0.7801  0.0561  0.3225
  709TIP3    H126322   4.318   5.481  16.159 -2.3498  1.7317  2.0355
  709TIP3    H226323   4.443   5.474  16.245 -0.3934 -0.9754 -0.7780
  710TIP3   OH226324   5.021   1.081  14.202 -0.4790 -0.5510 -0.4101
  710TIP3    H126325   5.101   1.116  14.241 -1.0224  0.3149 -0.0466
  710TIP3    H226326   5.049   1.001  14.156  1.2658  1.4630 -3.1836
  711TIP3   OH226327   2.772   6.380  15.186  0.0146  0.6198  0.7804
  711TIP3    H126328   2.863   6.352  15.185 -0.6444 -1.6937  0.6705
  711TIP3    H226329   2.753   6.403  15.095 -0.2833 -1.7471  0.1939
  712TIP3   OH226330   6.423   1.192  14.741 -0.0408  0.0145  0.7945
  712TIP3    H126331   6.385   1.248  14.808  1.0442  1.7850 -0.0038
  712TIP3    H226332   6.375   1.215  14.661  1.8798  1.4880  0.0010
  713TIP3   OH226333   4.735   3.799  16.702 -0.1932 -0.7338 -0.2806
  713TIP3    H126334   4.642   3.801  16.722 -0.0102 -0.8517  0.6657
  713TIP3    H226335   4.764   3.889  16.718  0.2427 -1.1497  1.5899
  714TIP3   OH226336   5.427   0.177  14.753  0.2770  0.3093  0.1791
  714TIP3    H126337   5.441   0.238  14.826  2.0663 -0.3444  0.4342
  714TIP3    H226338   5.383   0.102  14.793 -1.5641  1.1972 -0.0592
  715TIP3   OH226339   1.123   0.924  13.137  0.0740  0.3737 -0.2094
  715TIP3    H126340   1.171   0.967  13.067  1.5457  0.3726  0.7716
  715TIP3    H226341   1.064   0.864  13.092  0.2619  1.1038 -1.4687
  716TIP3   OH226342   3.441   1.521  15.839 -0.0055  0.4810  0.2264
  716TIP3    H126343   3.413   1.595  15.785 -0.1463  0.5003  0.3238
  716TIP3    H226344   3.431   1.553  15.929 -0.2532  0.2746  0.2707
  717TIP3   OH226345   0.554   4.621  13.864  0.1094 -0.0735 -0.3349
  717TIP3    H126346   0.649   4.635  13.864  0.0374  0.4332 -0.3326
  717TIP3    H226347   0.517   4.708  13.850 -0.4178  0.2128  2.3098
  718TIP3   OH226348   3.130   6.334  14.969 -0.2711  0.3223 -0.2711
  718TIP3    H126349   3.128   6.378  14.884  0.3350 -1.6404 -1.3696
  718TIP3    H226350   3.191   6.385  15.022  0.3734  0.8360 -1.4712
  719TIP3   OH226351   2.082   3.134  16.096  0.0439  0.2986  0.4665
  719TIP3    H126352   1.991   3.156  16.080  0.7327  1.7624 -2.0270
  719TIP3    H226353   2.132   3.197  16.043  2.4898 -0.8058  1.2844
  720TIP3   OH226354   4.870   4.526  14.969 -0.1870 -0.4829  0.2157
  720TIP3    H126355   4.803   4.574  14.921 -0.2593  0.4572  1.2240
  720TIP3    H226356   4.822   4.464  15.024 -0.1644 -0.6345  0.0667
  721TIP3   OH226357   0.932   2.869  13.948  0.1001  0.7785  1.1283
  721TIP3    H126358   0.998   2.868  13.880  0.6221  3.3894  1.4870
  721TIP3    H226359   0.850   2.848  13.903  0.4694  2.2088 -0.3020
  722TIP3   OH226360   5.129   0.900  13.705 -0.3895  0.2029 -0.1213
  722TIP3    H126361   5.167   0.841  13.639  1.1709  0.7614  0.2470
  722TIP3    H226362   5.052   0.853  13.737 -0.7607 -0.4111 -1.7947
  723TIP3   OH226363   4.649   3.237  14.674 -0.2086 -0.3178 -0.0115
  723TIP3    H126364   4.609   3.293  14.607  1.2736 -1.3383 -1.8462
  723TIP3    H226365   4.654   3.293  14.752  0.0490  1.7002 -1.3914
  724TIP3   OH226366   6.047   5.545  16.018  0.0315 -0.0556 -0.5455
  724TIP3    H126367   6.004   5.591  15.946 -0.7657 -0.2266 -0.1823
  724TIP3    H226368   6.123   5.504  15.977 -0.0359  0.4026 -1.1551
  725TIP3   OH226369   2.622   0.817  13.859  0.1457 -0.5455 -0.2088
  725TIP3    H126370   2.593   0.731  13.829 -1.3701 -0.6618  1.4547
  725TIP3    H226371   2.656   0.860  13.780  0.7903 -2.5741 -1.1076
  726TIP3   OH226372   2.639   2.896  16.924 -0.2525 -0.2857 -0.1561
  726TIP3    H126373   2.555   2.853  16.906 -0.1718  0.2953 -2.1645
  726TIP3    H226374   2.702   2.823  16.928 -0.8117 -0.7136  1.2476
  727TIP3   OH226375   6.394   1.915  14.423 -0.1143  0.3822  0.1442
  727TIP3    H126376   6.363   1.825  14.427 -1.3271  0.7300 -0.8053
  727TIP3    H226377   6.443   1.927  14.504 -0.6026 -0.8849  0.6535
  728TIP3   OH226378   1.329   1.534  13.971  0.0965  0.2868  0.3896
  728TIP3    H126379   1.365   1.552  14.058 -1.1137  2.1270  0.5536
  728TIP3    H226380   1.399   1.558  13.911  1.2877 -1.8469  0.7977
  729TIP3   OH226381   0.696   3.285  15.767 -1.0047  0.2267 -0.7664
  729TIP3    H126382   0.687   3.318  15.678  2.3582  2.3932 -0.4664
  729TIP3    H226383   0.775   3.232  15.766 -1.0192  0.1098  0.8623
  730TIP3   OH226384   2.812   2.888  14.328  0.2451 -0.1570  0.0964
  730TIP3    H126385   2.770   2.804  14.346  0.5152 -0.7589 -1.7779
  730TIP3    H226386   2.760   2.925  14.256  0.2930  1.1758  0.7155
  731TIP3   OH226387   4.141   3.944  14.572  0.1992 -0.0600  0.1936
  731TIP3    H126388   4.058   3.936  14.523  0.8629 -2.0644 -0.7430
  731TIP3    H226389   4.120   3.910  14.659  0.0437 -0.7430 -0.0965
  732TIP3   OH226390   3.460   3.186  16.772  0.3436 -0.5710 -0.0991
  732TIP3    H126391   3.471   3.264  16.717  0.8742  0.8360  1.9133
  732TIP3    H226392   3.379   3.203  16.821  0.4949 -1.2680  0.4047
  733TIP3   OH226393   0.933   6.482  13.617  0.1204 -0.2294  0.1791
  733TIP3    H126394   0.975   6.563  13.587  5.0015 -2.2597  0.5651
  733TIP3    H226395   0.933   6.489  13.713  0.4386 -0.6011  0.2091
  734TIP3   OH226396   6.307   0.222  13.712  0.4832 -0.6113  0.2376
  734TIP3    H126397   6.402   0.230  13.721  0.6210 -0.7795 -0.8388
  734TIP3    H226398   6.287   0.132  13.738  0.6280 -0.5904  0.4183
  735TIP3   OH226399   4.879   3.860  14.388 -0.0669  0.4002 -0.0398
  735TIP3    H126400   4.799   3.910  14.406 -0.8417 -1.1650  1.1884
  735TIP3    H226401   4.859   3.772  14.419  1.2841 -0.6692 -1.9944
  736TIP3   OH226402   0.571   3.581  15.918 -0.1818  0.2572 -0.5860
  736TIP3    H126403   0.515   3.658  15.922  0.0308  0.6160 -2.9460
  736TIP3    H226404   0.514   3.511  15.888 -0.4377 -0.6566  1.8189
  737TIP3   OH226405   1.246   6.337  15.571 -0.0074  0.0289  0.3531
  737TIP3    H126406   1.213   6.289  15.495 -0.9060  1.7859 -0.4348
  737TIP3    H226407   1.312   6.279  15.609  0.4316 -0.9531 -1.7233
  738TIP3   OH226408   1.829   5.011  15.946  0.4320  0.1428  0.0738
  738TIP3    H126409   1.761   5.079  15.951 -1.7726 -1.9948  0.7439
  738TIP3    H226410   1.859   5.001  16.037 -0.2562 -0.7237  0.2127
  739TIP3   OH226411   1.718   6.341  16.349  0.3344  0.9151 -0.3299
  739TIP3    H126412   1.673   6.363  16.268 -0.4147  0.3724 -0.0716
  739TIP3    H226413   1.664   6.379  16.418  0.0485 -0.0488  0.0008
  740TIP3   OH226414   4.319   4.723  16.924  0.3182  0.4078  0.0540
  740TIP3    H126415   4.305   4.669  16.846  0.1289  0.2219  0.2147
  740TIP3    H226416   4.232   4.731  16.964  0.7490 -1.5680  1.5918
  741TIP3   OH226417   1.597   2.254  16.250 -0.7971 -0.0068  0.2877
  741TIP3    H126418   1.538   2.221  16.182  0.3434 -0.4258 -0.5265
  741TIP3    H226419   1.670   2.193  16.251  0.7206  1.7098 -0.2972
  742TIP3   OH226420   5.446   4.543  16.226  0.0583 -0.1222  0.7979
  742TIP3    H126421   5.468   4.450  16.237 -2.3379 -0.6371  1.9727
  742TIP3    H226422   5.350   4.545  16.229 -0.0218  2.2682 -0.5209
  743TIP3   OH226423   6.377   1.178  13.285 -0.0161  0.1375  0.1070
  743TIP3    H126424   6.404   1.266  13.312 -0.2754  1.3444 -3.1238
  743TIP3    H226425   6.451   1.144  13.234 -0.7833 -0.5685 -0.5742
  744TIP3   OH226426   5.191   2.433  14.386 -0.7782  0.0038  0.8019
  744TIP3    H126427   5.138   2.390  14.319  1.1304 -0.7227 -0.3343
  744TIP3    H226428   5.229   2.360  14.435  0.4303  0.4393  0.5391
  745TIP3   OH226429   1.134   5.613  15.654  0.5210  0.0694 -0.2335
  745TIP3    H126430   1.220   5.578  15.632 -0.2831 -0.4090 -3.0028
  745TIP3    H226431   1.082   5.537  15.680  0.0231 -0.2420 -1.9688
  746TIP3   OH226432   4.794   5.468  15.379 -0.8670 -0.2736  0.1016
  746TIP3    H126433   4.753   5.396  15.427 -1.5070 -0.4697 -0.7141
  746TIP3    H226434   4.785   5.443  15.287 -0.7456  0.6642 -0.1729
  747TIP3   OH226435   6.606   1.826  14.237  0.3075 -0.2570  0.0760
  747TIP3    H126436   6.616   1.894  14.171 -0.1485 -0.0134  0.2534
  747TIP3    H226437   6.573   1.872  14.314  0.5962 -0.5798  0.3975
  748TIP3   OH226438   6.674   2.166  15.689 -0.4939  0.0566 -0.4248
  748TIP3    H126439   6.724   2.155  15.607  1.2739  1.4373  0.4010
  748TIP3    H226440   6.741   2.180  15.756 -1.8786 -1.4393  1.3803
  749TIP3   OH226441   4.778   4.774  15.885 -0.2155 -0.0180 -0.0058
  749TIP3    H126442   4.813   4.687  15.902 -0.1917  0.0972  0.5421
  749TIP3    H226443   4.746   4.770  15.795  0.6009 -0.3237 -0.2945
  750TIP3   OH226444   5.226   1.510  16.583  0.2638 -0.5481  0.4476
  750TIP3    H126445   5.210   1.542  16.494 -0.3452 -1.0656  0.3615
  750TIP3    H226446   5.314   1.471  16.579  0.7228  0.4756  0.3781
  751TIP3   OH226447   6.083   6.166  16.380 -0.3493 -0.8853 -0.0326
  751TIP3    H126448   6.179   6.169  16.388 -0.3379 -0.3077 -0.3893
  751TIP3    H226449   6.062   6.072  16.384  0.2956 -1.0671 -0.7333
  752TIP3   OH226450   3.156   5.653  16.429  0.1002  0.4108 -0.2795
  752TIP3    H126451   3.195   5.578  16.472 -0.9602  0.2690  0.4684
  752TIP3    H226452   3.229   5.696  16.384  1.1887  0.3901  1.3950
  753TIP3   OH226453   3.350   6.386  14.525 -0.1362 -0.5521 -0.1363
  753TIP3    H126454   3.298   6.324  14.474 -0.5964 -0.4891  0.2430
  753TIP3    H226455   3.297   6.402  14.603 -0.8155  1.6190 -0.9796
  754TIP3   OH226456   6.216   0.989  15.177  0.3903  0.2919  0.0310
  754TIP3    H126457   6.309   1.000  15.192  0.6738 -0.9602 -0.6305
  754TIP3    H226458   6.205   1.003  15.083 -0.1812  0.9395  0.1841
  755TIP3   OH226459   6.120   2.056  13.795  0.2329  0.4190 -0.3920
  755TIP3    H126460   6.213   2.039  13.779  0.0739  0.7330 -1.8433
  755TIP3    H226461   6.094   2.116  13.725 -1.2243 -0.1958 -0.4273
  756TIP3   OH226462   1.149   5.237  14.905  0.2876 -0.4291 -0.7325
  756TIP3    H126463   1.146   5.148  14.868  0.0773 -0.2125 -1.2489
  756TIP3    H226464   1.140   5.224  14.999 -2.2142 -0.8165 -0.9641
  757TIP3   OH226465   2.555   1.428  14.615 -0.9286  0.2849 -0.3396
  757TIP3    H126466   2.559   1.514  14.572  0.0536 -0.5149 -1.9447
  757TIP3    H226467   2.465   1.398  14.601 -0.4171 -0.3402 -2.7348
  758TIP3   OH226468   4.081   5.666  14.117  0.1632  0.0443  0.8459
  758TIP3    H126469   4.139   5.740  14.099  1.4659 -0.8532  1.2006
  758TIP3    H226470   4.100   5.602  14.049  0.3590 -0.6834  1.5578
  759TIP3   OH226471   4.112   6.486  15.444  0.7272 -0.5183 -0.0253
  759TIP3    H126472   4.122   6.542  15.367 -1.1569 -2.1285 -1.5240
  759TIP3    H226473   4.132   6.398  15.412 -2.0192 -1.5052  0.7695
  760TIP3   OH226474   3.969   4.404  15.451 -0.3793  0.5608 -0.8079
  760TIP3    H126475   3.996   4.483  15.497 -0.2123  1.2124 -1.9963
  760TIP3    H226476   3.874   4.402  15.461 -0.1710 -0.7361  1.7746
  761TIP3   OH226477   2.028   0.710  15.259  0.9817  0.2112 -0.2212
  761TIP3    H126478   2.063   0.668  15.338 -1.0282  2.0711  1.7552
  761TIP3    H226479   1.960   0.650  15.228  1.5794 -0.3798 -0.4333
  762TIP3   OH226480   1.078   6.114  14.236 -0.2660  0.0424 -0.7566
  762TIP3    H126481   1.021   6.102  14.312 -0.2476  1.5140 -0.4664
  762TIP3    H226482   1.150   6.052  14.249 -1.1947 -1.0129 -0.5313
  763TIP3   OH226483   1.818   4.081  16.825  0.2731 -0.1963 -0.3753
  763TIP3    H126484   1.813   4.175  16.806  1.6780  0.1381  0.7464
  763TIP3    H226485   1.729   4.049  16.810 -0.2847  1.3501 -0.5662
  764TIP3   OH226486   2.253   2.494  14.565 -0.2114  0.0275 -0.4002
  764TIP3    H126487   2.169   2.539  14.574 -0.2193  0.1496 -1.0327
  764TIP3    H226488   2.274   2.464  14.653 -0.5095  0.7306 -0.0852
  765TIP3   OH226489   0.802   1.420  14.929  0.2893 -0.4023 -0.1977
  765TIP3    H126490   0.891   1.452  14.941 -0.7833  3.3910 -0.8365
  765TIP3    H226491   0.769   1.407  15.018  0.5855  1.1969  0.1727
  766TIP3   OH226492   2.268   0.620  14.517  0.4262 -0.4041 -0.3227
  766TIP3    H126493   2.314   0.625  14.433 -1.0080  3.2522 -1.0647
  766TIP3    H226494   2.176   0.627  14.494 -0.0337  0.0620  1.5298
  767TIP3   OH226495   4.190   5.095  16.052 -0.1503  0.2897  0.1479
  767TIP3    H126496   4.105   5.051  16.060  0.4441 -0.7947  0.7429
  767TIP3    H226497   4.222   5.070  15.966 -0.0691  0.0106  0.2578
  768TIP3   OH226498   0.681   5.657  13.761 -0.3042 -0.1724 -0.0068
  768TIP3    H126499   0.615   5.592  13.737  0.1551 -0.5768 -0.1891
  768TIP3    H226500   0.711   5.693  13.677  0.3366 -0.6230  0.0235
  769TIP3   OH226501   5.496   1.696  17.029 -0.3380  0.4283 -0.1131
  769TIP3    H126502   5.413   1.726  17.068 -1.2285 -1.2235 -0.6236
  769TIP3    H226503   5.472   1.672  16.940  0.5000 -0.8588 -0.0131
  770TIP3   OH226504   0.182   5.740  16.937  0.3090  0.4840 -0.6716
  770TIP3    H126505   0.105   5.727  16.992  0.8661  0.0812  0.0219
  770TIP3    H226506   0.186   5.835  16.923  0.8810  0.7484  1.0665
  771TIP3   OH226507   4.853   0.159  15.147 -0.6897 -0.4726  0.0257
  771TIP3    H126508   4.772   0.201  15.118 -0.3517  0.1644 -0.0111
  771TIP3    H226509   4.887   0.115  15.069 -1.3121 -1.2794  0.1858
  772TIP3   OH226510   5.324   3.701  14.825 -0.5935 -0.0274 -0.3454
  772TIP3    H126511   5.292   3.616  14.853 -0.6316  0.5132  1.3773
  772TIP3    H226512   5.384   3.728  14.895 -0.5318  1.3279 -0.8916
  773TIP3   OH226513   2.077   3.633  15.778 -0.4767  0.2629 -0.0194
  773TIP3    H126514   1.985   3.655  15.788 -0.4839 -0.2592  1.3944
  773TIP3    H226515   2.104   3.605  15.866  0.9279  0.0507 -0.4943
  774TIP3   OH226516   0.611   3.624  16.540  0.1747 -0.1023  0.1553
  774TIP3    H126517   0.669   3.699  16.544 -0.0401  0.0320  0.8599
  774TIP3    H226518   0.654   3.557  16.593  0.8398 -0.8260 -1.2454
  775TIP3   OH226519   0.320   6.597  14.868  0.8274 -0.5224  0.0456
  775TIP3    H126520   0.409   6.613  14.899  1.3937 -0.0704 -1.7138
  775TIP3    H226521   0.301   6.672  14.811 -0.0856 -1.3992 -0.8302
  776TIP3   OH226522   2.019   1.879  14.846 -1.1571  0.3487  0.0591
  776TIP3    H126523   1.989   1.836  14.766 -0.0336  0.1458 -0.2766
  776TIP3    H226524   2.111   1.852  14.855 -0.4007  2.6196 -0.1463
  777TIP3   OH226525   4.008   4.186  16.042 -0.1907 -0.3247  0.3528
  777TIP3    H126526   3.930   4.235  16.066  0.0784  0.5428 -0.5118
  777TIP3    H226527   4.080   4.232  16.086 -0.1665 -1.2531  1.3366
  778TIP3   OH226528   4.989   1.138  15.447  0.5360 -0.0066  0.2762
  778TIP3    H126529   5.034   1.091  15.377 -1.6983 -0.5518 -0.9092
  778TIP3    H226530   5.024   1.101  15.528  2.1678 -0.3735 -0.5627
  779TIP3   OH226531   5.920   4.807  16.283  0.0610 -0.4113 -0.3092
  779TIP3    H126532   5.861   4.791  16.210  0.4897 -1.6730 -0.4068
  779TIP3    H226533   5.890   4.890  16.322 -1.2390 -0.6194 -0.8506
  780TIP3   OH226534   2.565   6.158  14.745  0.2073 -0.7956 -0.4088
  780TIP3    H126535   2.649   6.121  14.718  0.2882  0.0447 -1.4223
  780TIP3    H226536   2.523   6.089  14.796  0.9883 -1.6926 -0.9349
  781TIP3   OH226537   1.228   3.449  16.702  0.5083 -0.1288  0.3227
  781TIP3    H126538   1.289   3.432  16.774 -0.4600 -0.2641  1.1427
  781TIP3    H226539   1.152   3.488  16.745 -0.5745 -1.3147 -0.4454
  782TIP3   OH226540   5.767   1.489  14.209  0.1421 -0.0553 -0.1320
  782TIP3    H126541   5.711   1.413  14.198 -0.1596  0.0505  0.6085
  782TIP3    H226542   5.730   1.555  14.149 -0.0531 -0.2404 -0.2158
  783TIP3   OH226543   2.172   2.250  16.574  0.2376  0.4287 -0.5553
  783TIP3    H126544   2.170   2.346  16.576  0.1459  0.4463 -1.3604
  783TIP3    H226545   2.205   2.228  16.487  0.8446 -0.2696 -0.1619
  784TIP3   OH226546   1.789   6.002  17.428 -0.2583 -0.3247 -0.0384
  784TIP3    H126547   1.698   6.003  17.457 -1.1544 -2.0442 -2.4389
  784TIP3    H226548   1.785   6.033  17.337  1.3034 -1.7533 -0.6452
  785TIP3   OH226549   2.533   2.055  16.329  0.1420  0.0858 -0.2766
  785TIP3    H126550   2.615   2.013  16.355  1.0598  0.4451 -2.3449
  785TIP3    H226551   2.468   2.023  16.392  1.1377 -3.0172 -0.6708
  786TIP3   OH226552   1.447   2.815  15.844 -0.4027  0.0160  0.1697
  786TIP3    H126553   1.542   2.824  15.849 -0.5017  0.6065  1.9305
  786TIP3    H226554   1.426   2.748  15.909 -1.2652  0.9131  0.8635
  787TIP3   OH226555   5.721   4.964  14.953  0.3608 -0.0967  0.5161
  787TIP3    H126556   5.662   5.026  14.996 -2.1589 -2.0704  0.1482
  787TIP3    H226557   5.767   4.921  15.025  0.2686  0.4301  0.9004
  788TIP3   OH226558   3.316   2.320  15.306  0.4102  0.2128  0.4015
  788TIP3    H126559   3.360   2.253  15.254 -0.2347 -0.5233  0.7787
  788TIP3    H226560   3.367   2.324  15.387  0.5051  0.2537  0.3407
  789TIP3   OH226561   0.550   2.989  15.119  0.2242  0.3127  0.2490
  789TIP3    H126562   0.526   2.897  15.125  0.8630  0.1479  0.4047
  789TIP3    H226563   0.522   3.016  15.031  1.5530 -0.4900 -0.4531
  790TIP3   OH226564   1.110   1.079  14.586  0.0103  0.1967 -0.4486
  790TIP3    H126565   1.178   1.019  14.614 -0.1803  0.5579  0.8633
  790TIP3    H226566   1.029   1.029  14.592 -0.0707  0.3784 -0.0345
  791TIP3   OH226567   0.950   4.417  16.348  0.4511  0.7402  0.1647
  791TIP3    H126568   0.874   4.362  16.330  0.0794  0.5113  2.1939
  791TIP3    H226569   1.025   4.362  16.325  0.0743 -0.5482  1.7749
  792TIP3   OH226570   5.841   3.743  14.978 -0.1481 -0.5325 -0.3192
  792TIP3    H126571   5.787   3.746  14.899 -0.2251 -2.3155 -0.3919
  792TIP3    H226572   5.928   3.769  14.950 -0.1294 -1.3509 -1.0488
  793TIP3   OH226573   2.904   5.735  16.411 -0.8081  0.2295  0.6453
  793TIP3    H126574   2.992   5.705  16.434  0.1740  3.3937  1.4477
  793TIP3    H226575   2.916   5.785  16.331 -2.1605 -0.4274 -0.0041
  794TIP3   OH226576   5.848   6.661  14.043 -0.8983  0.0493  0.6021
  794TIP3    H126577   5.825   6.753  14.031 -1.3353 -0.2321 -0.9265
  794TIP3    H226578   5.912   6.644  13.974 -2.9543 -1.5039 -1.0366
  795TIP3   OH226579   3.353   2.447  13.908  0.4794  0.6340  0.0936
  795TIP3    H126580   3.395   2.378  13.856 -1.0002 -0.2020 -0.0435
  795TIP3    H226581   3.275   2.470  13.858 -0.1145  0.9722  1.1522
  796TIP3   OH226582   5.704   0.899  14.883 -0.1705 -0.3986  0.2014
  796TIP3    H126583   5.697   0.818  14.833  0.3491 -1.2185  1.4053
  796TIP3    H226584   5.757   0.876  14.959  0.8706  1.3408  0.0520
  797TIP3   OH226585   0.920   5.853  14.328  0.1584  0.0939 -0.9300
  797TIP3    H126586   0.966   5.908  14.391 -0.1571 -0.1947 -0.4313
  797TIP3    H226587   0.979   5.779  14.314 -0.4162 -0.6261  0.2423
  798TIP3   OH226588   5.468   1.386  14.205 -0.5211  0.4184 -0.1382
  798TIP3    H126589   5.438   1.472  14.175  2.3821  1.2111 -1.0566
  798TIP3    H226590   5.497   1.341  14.125 -1.1475 -1.0970  0.4396
  799TIP3   OH226591   6.302   0.730  16.178  0.8363  0.5515 -0.1668
  799TIP3    H126592   6.243   0.659  16.202  1.5318 -0.1902 -0.6054
  799TIP3    H226593   6.320   0.776  16.260  0.2634  0.3181  0.0922
  800TIP3   OH226594   6.228   2.821  15.073 -0.0780 -0.8058  0.0689
  800TIP3    H126595   6.179   2.754  15.120  0.1695 -0.4295  0.8849
  800TIP3    H226596   6.231   2.895  15.133 -0.4213 -0.0263 -0.8517
  801TIP3   OH226597   5.554   5.738  14.540  0.0652  0.0730 -0.1229
  801TIP3    H126598   5.602   5.783  14.471  0.5127  1.7802  1.2347
  801TIP3    H226599   5.614   5.736  14.614 -0.7079 -0.9345  0.5060
  802TIP3   OH226600   2.634   5.794  15.884  0.4291  0.0635  1.1080
  802TIP3    H126601   2.681   5.870  15.849 -1.1590 -0.5654 -2.9669
  802TIP3    H226602   2.699   5.724  15.883  0.6547  0.2573 -0.0360
  803TIP3   OH226603   5.508   2.597  14.797 -0.0053  0.1115  0.1391
  803TIP3    H126604   5.551   2.518  14.765 -0.9145 -0.8570  1.2021
  803TIP3    H226605   5.465   2.570  14.878  1.9268  2.3500  2.0621
  804TIP3   OH226606   3.542   4.286  14.660  0.0298 -0.0268  0.1901
  804TIP3    H126607   3.468   4.247  14.707 -0.4582 -0.5739 -0.9894
  804TIP3    H226608   3.562   4.224  14.590 -1.3043  2.0544 -2.2642
  805TIP3   OH226609   5.649   1.525  15.425 -0.1661  0.2089  0.2243
  805TIP3    H126610   5.728   1.474  15.411 -0.8367 -0.5100 -1.1093
  805TIP3    H226611   5.634   1.521  15.520  1.4254  0.4633  0.5075
  806TIP3   OH226612   0.732   4.723  14.188  0.6910 -1.1240 -0.3347
  806TIP3    H126613   0.698   4.806  14.153 -1.7958 -2.3869 -1.2280
  806TIP3    H226614   0.826   4.729  14.177  0.5365  1.3122 -0.9686
  807TIP3   OH226615   4.734   2.126  15.351  0.7729  0.0641 -0.1634
  807TIP3    H126616   4.726   2.189  15.423 -4.0765 -2.1259  1.6813
  807TIP3    H226617   4.690   2.047  15.383  3.0897 -3.0425 -3.7119
  808TIP3   OH226618   3.831   4.258  16.890 -0.1714 -0.5766 -0.3264
  808TIP3    H126619   3.811   4.279  16.981 -0.3464 -1.1102 -0.2380
  808TIP3    H226620   3.871   4.171  16.894  0.6945 -0.2052 -0.6674
  809TIP3   OH226621   3.383   5.219  14.224 -0.7269  0.6360  0.0976
  809TIP3    H126622   3.298   5.226  14.267 -1.3633  1.1474 -1.1905
  809TIP3    H226623   3.435   5.163  14.282 -1.9788  0.2092  0.8409
  810TIP3   OH226624   1.802   6.078  16.885  0.0630 -0.0586  0.3648
  810TIP3    H126625   1.781   6.148  16.823  1.3078 -1.0471 -1.2388
  810TIP3    H226626   1.727   6.018  16.879  0.3502 -0.3465 -0.5132
  811TIP3   OH226627   3.271   5.612  14.439  0.0143  0.4206 -0.2370
  811TIP3    H126628   3.301   5.657  14.518  0.0695 -1.4265  0.8413
  811TIP3    H226629   3.189   5.570  14.465  0.4388 -0.8762 -0.9082
  812TIP3   OH226630   6.499   0.850  15.183 -0.5600 -0.2494 -0.5277
  812TIP3    H126631   6.500   0.942  15.156 -3.2543 -0.4675 -1.6423
  812TIP3    H226632   6.506   0.801  15.100  1.6858 -1.1419  0.0981
  813TIP3   OH226633   0.574   0.912  15.739 -0.4821  0.9204 -0.6580
  813TIP3    H126634   0.516   0.841  15.767  2.7565 -1.3177  1.0883
  813TIP3    H226635   0.544   0.934  15.651 -2.1542 -2.1159 -0.9946
  814TIP3   OH226636   4.487   0.833  17.033 -0.0745  0.0858  0.1758
  814TIP3    H126637   4.498   0.912  16.981  1.9035 -0.6046 -0.5420
  814TIP3    H226638   4.528   0.853  17.117  1.3858 -0.4603 -0.3662
  815TIP3   OH226639   1.026   0.798  16.842  0.0888 -0.2831 -0.1182
  815TIP3    H126640   1.084   0.829  16.911 -0.4878  0.4582  0.0543
  815TIP3    H226641   0.964   0.741  16.887 -0.2656  0.1722 -0.0199
  816TIP3   OH226642   2.498   6.527  15.565 -0.4795  0.1643  0.1985
  816TIP3    H126643   2.500   6.523  15.661 -0.7522  1.0426  0.2495
  816TIP3    H226644   2.575   6.477  15.537  0.3195  0.9497  0.9189
  817TIP3   OH226645   1.169   1.749  15.069 -0.0264  0.6743 -0.1664
  817TIP3    H126646   1.209   1.665  15.045  1.7564  1.9616 -2.0799
  817TIP3    H226647   1.236   1.793  15.121 -0.0572  1.7470 -1.0054
  818TIP3   OH226648   3.976   0.044  15.328  0.2926  0.1787  0.5304
  818TIP3    H126649   3.990   0.139  15.331  1.2253  0.0740 -0.0075
  818TIP3    H226650   3.979   0.023  15.235 -0.9932 -0.2390  0.5740
  819TIP3   OH226651   6.218   4.865  15.043 -0.1471  0.2235 -0.3939
  819TIP3    H126652   6.218   4.955  15.076  2.8725  0.0830  0.3042
  819TIP3    H226653   6.198   4.811  15.120  2.1855  0.1643  0.2639
  820TIP3   OH226654   3.074   0.336  15.868  0.8946  0.1014 -0.1585
  820TIP3    H126655   3.029   0.392  15.805 -1.5493 -2.3703 -0.7769
  820TIP3    H226656   3.059   0.378  15.953  0.7158  1.3047 -0.7625
  821TIP3   OH226657   6.173   0.963  15.778 -0.6704  0.0312  0.4087
  821TIP3    H126658   6.177   0.949  15.873 -0.6564  0.9262  0.5442
  821TIP3    H226659   6.251   1.015  15.758  0.4894 -1.8755 -0.4222
  822TIP3   OH226660   2.254   3.024  14.468  0.4231  0.0229 -0.2701
  822TIP3    H126661   2.334   2.988  14.429 -0.3644 -0.9315 -1.0492
  822TIP3    H226662   2.183   2.989  14.414 -0.5290  0.8933  0.3781
  823TIP3   OH226663   2.341   2.297  13.925 -0.3123  0.4176  0.6043
  823TIP3    H126664   2.424   2.267  13.888 -1.4454 -0.4889 -1.3699
  823TIP3    H226665   2.359   2.309  14.018  1.8378 -0.3806  0.3505
  824TIP3   OH226666   6.041   6.176  14.090 -0.0236 -0.2912 -0.2251
  824TIP3    H126667   5.990   6.249  14.125 -0.4651 -1.6567  2.2011
  824TIP3    H226668   6.033   6.107  14.156  4.4664 -0.8254  0.0832
  825TIP3   OH226669   0.729   3.664  15.398 -0.1520  0.5830 -0.5768
  825TIP3    H126670   0.787   3.728  15.356 -0.6666  0.6605 -1.1861
  825TIP3    H226671   0.646   3.710  15.409 -0.8291 -0.2678 -1.9025
  826TIP3   OH226672   1.798   2.359  14.050 -0.3488 -0.6255  0.3252
  826TIP3    H126673   1.798   2.444  14.007 -1.4862 -1.6265 -1.8182
  826TIP3    H226674   1.749   2.302  13.991 -1.0319 -2.3992  2.4653
  827TIP3   OH226675   3.173   1.994  14.634 -0.5545  0.3684 -0.1967
  827TIP3    H126676   3.229   2.066  14.661  1.0331  0.2913 -2.8830
  827TIP3    H226677   3.134   2.024  14.552 -1.9145 -0.8590 -0.0456
  828TIP3   OH226678   5.473   5.508  15.225 -0.6800  0.2208 -0.0703
  828TIP3    H126679   5.427   5.432  15.189 -0.0428  0.0067 -0.4397
  828TIP3    H226680   5.550   5.471  15.269 -1.6241  0.4239  1.8749
  829TIP3   OH226681   1.936   2.707  14.146  0.3964  0.0287 -0.0636
  829TIP3    H126682   1.876   2.675  14.214 -0.5535  2.2094  0.2258
  829TIP3    H226683   1.901   2.671  14.064  0.0246 -0.5519  0.3398
  830TIP3   OH226684   5.971   2.524  14.882 -0.2343 -0.3440  0.1991
  830TIP3    H126685   6.021   2.468  14.942  0.2264  1.5425  1.6548
  830TIP3    H226686   5.977   2.479  14.798 -0.3981 -2.7828  1.4029
  831TIP3   OH226687   1.738   1.499  16.877  0.1828  0.2632 -0.1860
  831TIP3    H126688   1.734   1.477  16.970 -0.1330  1.3308  0.0687
  831TIP3    H226689   1.659   1.460  16.839 -0.2385  0.7110  0.2093
  832TIP3   OH226690   0.791   4.363  15.231  0.5709  0.0821 -0.1672
  832TIP3    H126691   0.706   4.380  15.190 -0.6282 -3.0266  0.7279
  832TIP3    H226692   0.803   4.436  15.292 -0.5838  1.4818 -1.5318
  833TIP3   OH226693   1.206   5.223  15.586 -0.3430 -0.7728  0.0796
  833TIP3    H126694   1.220   5.197  15.677 -1.8775 -2.1711 -0.0405
  833TIP3    H226695   1.220   5.144  15.535 -1.1519 -0.4288 -0.7232
  834TIP3   OH226696   2.982   2.312  14.827 -0.1560  0.0008  0.3450
  834TIP3    H126697   2.900   2.264  14.828  0.8860 -1.9242 -0.3671
  834TIP3    H226698   3.005   2.319  14.734  2.2325 -2.8568  0.5686
  835TIP3   OH226699   0.221   4.636  13.945  0.1087 -0.0112  0.4996
  835TIP3    H126700   0.204   4.677  13.860  0.5969 -0.6189  0.0987
  835TIP3    H226701   0.281   4.696  13.990  0.8297 -0.2754 -0.0889
  836TIP3   OH226702   5.946   5.362  13.964 -0.0028  0.2755  0.1106
  836TIP3    H126703   5.979   5.272  13.956  2.7824  1.1841  0.5025
  836TIP3    H226704   5.952   5.398  13.876  1.4253  0.8488  0.4169
  837TIP3   OH226705   0.303   1.147  14.031 -0.0983 -0.2741 -0.2825
  837TIP3    H126706   0.346   1.073  14.074  0.2385 -0.3356 -0.7141
  837TIP3    H226707   0.354   1.160  13.951 -2.7878 -2.5302 -2.6182
  838TIP3   OH226708   4.677   3.028  14.983 -0.6511 -0.6736  0.5887
  838TIP3    H126709   4.712   2.962  14.924 -2.6346 -0.9361 -0.3633
  838TIP3    H226710   4.721   3.109  14.958  0.1351 -1.1986  0.2488
  839TIP3   OH226711   6.412   6.593  14.481 -0.0792 -0.1271 -0.0166
  839TIP3    H126712   6.374   6.519  14.529 -0.8959  1.7366  2.4385
  839TIP3    H226713   6.507   6.580  14.487 -0.2089 -1.2099 -0.0975
  840TIP3   OH226714   0.531   5.904  16.000 -0.4618 -0.2862  0.3366
  840TIP3    H126715   0.489   5.858  16.073  1.0880 -1.0723  0.7637
  840TIP3    H226716   0.562   5.986  16.039  1.4703 -1.2456  0.9266
  841TIP3   OH226717   1.808   3.129  16.115 -0.1406 -0.4540 -0.1056
  841TIP3    H126718   1.801   3.176  16.199  0.8094  3.0900 -1.8340
  841TIP3    H226719   1.800   3.036  16.139  0.7054  0.3379  3.9534
  842TIP3   OH226720   5.909   1.639  15.623 -0.2263 -0.3711  0.4020
  842TIP3    H126721   5.983   1.580  15.634 -0.4918 -0.6911  0.4756
  842TIP3    H226722   5.917   1.671  15.533  0.4967  0.2772  0.6886
  843TIP3   OH226723   3.795   3.152  13.903 -0.7320  0.1453  0.5445
  843TIP3    H126724   3.857   3.135  13.832  0.0775  2.1156  0.7160
  843TIP3    H226725   3.716   3.185  13.859 -0.3303  1.0980  0.5140
  844TIP3   OH226726   0.044   1.737  13.302  0.1630 -0.1291 -0.1465
  844TIP3    H126727   0.048   1.753  13.397 -0.0914  0.6162 -0.2533
  844TIP3    H226728   0.033   1.824  13.264 -2.2760 -0.5992 -0.7190
  845TIP3   OH226729   0.973   0.235  15.284 -0.3602  0.3714  0.1080
  845TIP3    H126730   0.984   0.327  15.262  2.3166  0.2638  0.6566
  845TIP3    H226731   0.998   0.230  15.376 -0.1898 -0.9368  0.0068
  846TIP3   OH226732   3.506   3.510  15.214 -0.3707  0.1634 -0.4078
  846TIP3    H126733   3.557   3.540  15.139 -0.1515 -0.6950 -0.6150
  846TIP3    H226734   3.461   3.588  15.245  0.2240  0.7119 -0.8890
  847TIP3   OH226735   2.250   2.797  15.995  0.2531  0.0574 -0.2406
  847TIP3    H126736   2.185   2.866  15.983  1.1415  0.7283 -1.3609
  847TIP3    H226737   2.330   2.843  16.022  0.2455 -0.7774  1.3416
  848TIP3   OH226738   6.038   0.791  16.328 -0.0464 -0.6295  0.5556
  848TIP3    H126739   5.975   0.806  16.258 -0.1928 -2.3075  0.2735
  848TIP3    H226740   6.058   0.697  16.322  0.9758 -0.5266  1.8907
  849TIP3   OH226741   3.249   0.723  15.062  0.0280  0.4537  0.2134
  849TIP3    H126742   3.256   0.778  15.140 -1.0640  1.1077 -0.1377
  849TIP3    H226743   3.335   0.680  15.056  0.3340  0.8529  1.4213
  850TIP3   OH226744   5.948   5.101  15.318 -0.0387  0.2258  0.1053
  850TIP3    H126745   5.975   5.128  15.230  0.4914 -0.4086  0.0588
  850TIP3    H226746   6.016   5.136  15.376 -0.1590  0.2809  0.2143
  851TIP3   OH226747   4.718   4.708  16.758  0.1364  0.0074  0.3190
  851TIP3    H126748   4.655   4.775  16.732  0.2585 -0.0440 -0.1187
  851TIP3    H226749   4.744   4.732  16.847  1.4568  1.5333 -0.4267
  852TIP3   OH226750   0.128   4.393  15.567 -0.6481 -0.1792 -0.2700
  852TIP3    H126751   0.198   4.433  15.618 -1.3002 -1.2221  1.5404
  852TIP3    H226752   0.072   4.466  15.541  1.1272  0.6859 -1.8718
  853TIP3   OH226753   2.563   0.462  15.763 -0.1938  0.1131 -0.1547
  853TIP3    H126754   2.538   0.554  15.754  0.6404  0.3957  0.3028
  853TIP3    H226755   2.579   0.433  15.673 -0.0684  0.5336 -0.2703
  854TIP3   OH226756   6.500   2.331  15.954 -0.7295 -0.0978  0.1251
  854TIP3    H126757   6.563   2.358  15.888 -0.6642 -0.7221 -0.0758
  854TIP3    H226758   6.535   2.249  15.989 -1.0236 -0.0391  0.5729
  855TIP3   OH226759   0.592   6.618  14.931 -0.1350  0.0709 -0.1246
  855TIP3    H126760   0.620   6.594  14.842  0.6433 -3.0213  0.8159
  855TIP3    H226761   0.672   6.612  14.983 -0.8402  0.4171  1.0259
  856TIP3   OH226762   6.418   0.861  15.483 -0.7121 -0.3656  0.4694
  856TIP3    H126763   6.374   0.946  15.495 -0.0315 -0.1753  1.8428
  856TIP3    H226764   6.430   0.854  15.388 -0.0935  1.4457  0.3645
  857TIP3   OH226765   4.597   2.353  16.542 -0.1055 -0.5040  0.5764
  857TIP3    H126766   4.651   2.392  16.474  0.5143 -0.8832  0.8418
  857TIP3    H226767   4.580   2.425  16.604  0.5745 -0.5138  0.7841
  858TIP3   OH226768   2.084   0.217  16.514  0.5384  0.0468 -0.0407
  858TIP3    H126769   2.033   0.211  16.595 -1.3015  0.1532 -1.1326
  858TIP3    H226770   2.079   0.309  16.489 -0.0821 -0.2215 -0.9663
  859TIP3   OH226771   5.373   2.767  16.316  0.0164 -0.5530 -0.4893
  859TIP3    H126772   5.463   2.747  16.343  0.8752 -0.1979 -2.8878
  859TIP3    H226773   5.341   2.686  16.277 -0.6392 -0.5953  0.1132
  860TIP3   OH226774   0.118   4.932  15.741  0.3720 -0.4648  0.2423
  860TIP3    H126775   0.115   4.926  15.646 -0.3058 -0.7823  0.2815
  860TIP3    H226776   0.066   5.010  15.762 -0.3679 -0.9934  0.4091
  861TIP3   OH226777   2.183   4.671  14.545 -0.1631 -0.2429 -0.0910
  861TIP3    H126778   2.183   4.611  14.620  0.2394 -1.5195 -1.0694
  861TIP3    H226779   2.168   4.757  14.584  1.8447 -0.5884  1.6756
  862TIP3   OH226780   4.178   1.459  14.857  0.2027 -0.4270  0.9013
  862TIP3    H126781   4.132   1.537  14.888 -0.5672 -0.7301  0.5247
  862TIP3    H226782   4.251   1.494  14.805 -1.8272  0.0922 -1.7854
  863TIP3   OH226783   3.851   3.464  15.557  0.4158 -0.1673  0.2216
  863TIP3    H126784   3.901   3.453  15.476  0.0153  0.4009 -0.1139
  863TIP3    H226785   3.780   3.524  15.533 -0.2608 -0.7423  0.7594
  864TIP3   OH226786   5.783   6.199  16.753  0.4856  0.8841 -0.1148
  864TIP3    H126787   5.754   6.196  16.661  0.2349  0.3434 -0.0187
  864TIP3    H226788   5.733   6.271  16.791 -0.6363  0.0510  0.0114
  865TIP3   OH226789   2.294   1.739  14.565  0.2985  0.0156  0.1491
  865TIP3    H126790   2.219   1.679  14.555  0.2313  0.2397 -0.8361
  865TIP3    H226791   2.279   1.784  14.648  0.4149 -1.4181  0.9845
  866TIP3   OH226792   0.086   1.617  15.743  0.0658  0.4822  0.4496
  866TIP3    H126793   0.038   1.635  15.824  0.3443  0.4622  0.6178
  866TIP3    H226794   0.073   1.696  15.690 -0.8535  0.1491  0.1525
  867TIP3   OH226795   1.696   4.268  14.961  0.4136 -0.0715 -0.3461
  867TIP3    H126796   1.683   4.187  15.010 -3.1032 -0.5693 -1.8110
  867TIP3    H226797   1.643   4.333  15.008 -1.2398 -0.0376 -2.1371
  868TIP3   OH226798   0.780   6.510  16.582  0.3106  0.6365 -0.4679
  868TIP3    H126799   0.791   6.443  16.516  0.5579 -2.2087  2.2272
  868TIP3    H226800   0.687   6.529  16.582 -0.8174 -3.5785  1.9100
  869TIP3   OH226801   2.505   1.622  14.109  0.4896  0.1487  0.6873
  869TIP3    H126802   2.494   1.621  14.014 -2.1346 -0.6118  0.9324
  869TIP3    H226803   2.539   1.535  14.130  0.4353  0.0851  0.5162
  870TIP3   OH226804   4.185   5.409  15.165  0.0248  0.1741 -0.2857
  870TIP3    H126805   4.133   5.338  15.126  0.9170 -0.9429  0.5019
  870TIP3    H226806   4.275   5.376  15.163  0.2593  0.6452  1.4993
  871TIP3   OH226807   3.450   0.406  15.279 -0.0694  0.7863  0.1771
  871TIP3    H126808   3.499   0.488  15.282  0.4289  0.7083 -2.8349
  871TIP3    H226809   3.427   0.388  15.371  1.5434  3.2002  1.1481
  872TIP3   OH226810   4.448   3.348  14.188  0.0113 -0.5494 -0.2842
  872TIP3    H126811   4.495   3.432  14.188  0.1455 -0.5692  2.0646
  872TIP3    H226812   4.419   3.338  14.098 -0.0621  2.0595 -0.6460
  873TIP3   OH226813   4.571   2.616  15.119 -0.0586  0.3826  0.1234
  873TIP3    H126814   4.653   2.647  15.157 -0.4005  1.5113 -0.0212
  873TIP3    H226815   4.507   2.622  15.190 -0.6042  2.1036 -0.4330
  874TIP3   OH226816   0.758   0.394  14.089  0.3705 -0.0056 -0.1080
  874TIP3    H126817   0.665   0.415  14.088  0.4176  0.4271  2.0053
  874TIP3    H226818   0.772   0.347  14.006 -1.7535 -0.3152 -0.3475
  875TIP3   OH226819   1.058   2.105  15.011 -0.2744 -0.2907  0.1989
  875TIP3    H126820   1.118   2.156  14.956  0.8061 -1.1354  0.5623
  875TIP3    H226821   0.999   2.171  15.049  1.8871  0.9471  1.6735
  876TIP3   OH226822   5.280   0.472  14.563 -0.4340 -0.5489 -0.2274
  876TIP3    H126823   5.202   0.418  14.573  0.2424 -1.4619  0.2608
  876TIP3    H226824   5.333   0.426  14.497 -0.1698 -0.0977 -0.3380
  877TIP3   OH226825   2.069   6.305  13.709 -0.4756  0.4771 -0.4170
  877TIP3    H126826   2.046   6.280  13.619  1.0873  0.7375 -0.9218
  877TIP3    H226827   2.041   6.396  13.716 -0.4112  0.5207 -0.7037
  878TIP3   OH226828   3.830   5.622  15.756  0.4720 -0.4811  0.0806
  878TIP3    H126829   3.737   5.630  15.734 -0.3407 -2.7940  2.1803
  878TIP3    H226830   3.848   5.528  15.750  2.4294 -0.1998  0.7331
  879TIP3   OH226831   1.229   6.065  17.262  0.3538  0.4532  0.1704
  879TIP3    H126832   1.212   6.090  17.171  0.6253  1.4296  0.3726
  879TIP3    H226833   1.293   6.129  17.292  3.5614 -2.3425 -0.2026
  880TIP3   OH226834   3.741   2.189  15.076  0.0092 -0.3563 -0.0773
  880TIP3    H126835   3.720   2.225  14.990 -0.1678  0.5847  0.3414
  880TIP3    H226836   3.835   2.202  15.085 -0.0715  0.1167  0.1166
  881TIP3   OH226837   2.777   0.221  15.493 -0.4820 -0.7590 -0.7950
  881TIP3    H126838   2.783   0.291  15.427 -0.0496 -0.5339 -0.5178
  881TIP3    H226839   2.845   0.159  15.470 -0.9431 -1.1584 -1.1106
  882TIP3   OH226840   3.924   0.732  17.103 -0.3955  0.3740  0.5979
  882TIP3    H126841   3.932   0.703  17.194  0.0587  0.8614  0.7191
  882TIP3    H226842   3.994   0.685  17.057 -1.0760 -0.4264  0.3472
  883TIP3   OH226843   3.721   6.271  16.444 -0.3018 -0.1188 -0.0334
  883TIP3    H126844   3.672   6.353  16.438  0.7413  0.7428  2.1030
  883TIP3    H226845   3.803   6.295  16.488  0.9750 -1.9491 -1.2340
  884TIP3   OH226846   4.885   0.073  13.422  0.1901  0.1073 -0.6175
  884TIP3    H126847   4.939   0.146  13.392  1.4809 -0.8738 -0.8173
  884TIP3    H226848   4.890   0.009  13.351 -0.4648 -0.3996 -0.2198
  885TIP3   OH226849   2.067   5.872  16.128 -0.3571  0.0090 -0.2481
  885TIP3    H126850   2.045   5.963  16.148  1.1155  0.4399 -0.4499
  885TIP3    H226851   2.106   5.838  16.208  1.0528  0.2295 -0.8222
  886TIP3   OH226852   3.448   0.858  17.149  0.1471 -0.2387 -0.7251
  886TIP3    H126853   3.506   0.933  17.135 -0.8897  0.6441 -0.5217
  886TIP3    H226854   3.480   0.818  17.230 -0.1043  0.8372 -0.0650
  887TIP3   OH226855   0.816   5.723  15.717  0.8411 -0.3777 -0.0073
  887TIP3    H126856   0.906   5.698  15.736  0.5391 -1.4339  0.1412
  887TIP3    H226857   0.773   5.730  15.802  1.2643  2.2409  0.0650
  888TIP3   OH226858   1.993   5.901  15.573  0.4420  0.3311  0.0210
  888TIP3    H126859   2.041   5.958  15.633  0.6053  0.6857 -0.4434
  888TIP3    H226860   1.999   5.945  15.488 -1.0981  0.6227  0.0365
  889TIP3   OH226861   4.429   6.671  15.422 -0.6121 -0.1688 -0.7463
  889TIP3    H126862   4.488   6.727  15.372 -0.9885 -0.1031 -1.1246
  889TIP3    H226863   4.385   6.731  15.483  1.0137 -0.4859  0.8214
  890TIP3   OH226864   5.222   1.690  15.684 -0.1394 -0.2431 -0.3538
  890TIP3    H126865   5.174   1.767  15.655  0.4041  0.2900  0.1360
  890TIP3    H226866   5.228   1.635  15.605 -2.8390 -1.0581 -0.1016
  891TIP3   OH226867   4.986   4.357  15.858  0.3534  0.2811  0.4941
  891TIP3    H126868   4.891   4.351  15.867  0.2269  0.5079 -0.5774
  891TIP3    H226869   5.001   4.439  15.811  1.1536  0.8059  1.6147
  892TIP3   OH226870   0.565   0.423  14.699  0.3696  0.1977 -0.4410
  892TIP3    H126871   0.578   0.452  14.790 -1.9038 -0.5488  0.1834
  892TIP3    H226872   0.622   0.347  14.690  2.8210  1.9266 -0.6219
  893TIP3   OH226873   6.615   4.262  16.595 -0.7247  0.0330  0.0509
  893TIP3    H126874   6.538   4.208  16.612 -0.6482 -0.4996 -1.1626
  893TIP3    H226875   6.638   4.242  16.504  1.7543 -0.9886  0.8257
  894TIP3   OH226876   6.592   6.517  13.541 -0.1019  0.1635  0.2151
  894TIP3    H126877   6.607   6.462  13.465  1.7281  0.5876  0.2128
  894TIP3    H226878   6.497   6.514  13.556 -0.4169 -0.3583 -1.7213
  895TIP3   OH226879   6.217   5.161  16.494  0.4015  0.2031 -0.0606
  895TIP3    H126880   6.198   5.067  16.487  0.2866  0.2683 -0.7931
  895TIP3    H226881   6.200   5.183  16.585 -0.4542 -0.3036 -0.0851
  896TIP3   OH226882   5.032   4.119  15.727  0.0089 -0.1325  0.0200
  896TIP3    H126883   4.941   4.115  15.697 -0.0452 -1.8831  0.3197
  896TIP3    H226884   5.033   4.189  15.792 -1.2602 -0.4829  0.4438
  897TIP3   OH226885   2.225   0.199  15.129 -0.4256  0.0936  0.1728
  897TIP3    H126886   2.294   0.263  15.113 -1.0419  0.7412  0.0877
  897TIP3    H226887   2.144   0.250  15.133 -1.0628 -0.7728 -0.9100
  898TIP3   OH226888   4.197   0.002  13.271 -0.1972  0.4538 -0.0868
  898TIP3    H126889   4.174   0.080  13.222  0.4497  0.7046 -0.0009
  898TIP3    H226890   4.172   0.021  13.361  1.2220  1.1152  0.1871
  899TIP3   OH226891   4.469   3.034  15.439 -0.7612 -0.2466  0.2740
  899TIP3    H126892   4.464   3.049  15.533 -0.7278 -1.5290  0.5014
  899TIP3    H226893   4.560   3.008  15.424 -0.8428 -0.3502 -0.0531
  900TIP3   OH226894   3.259   4.840  14.775 -0.0034  0.2014  0.1286
  900TIP3    H126895   3.210   4.898  14.717 -0.7453 -0.1921  0.3388
  900TIP3    H226896   3.316   4.897  14.825 -0.3402  0.6857 -0.0385
  901TIP3   OH226897   3.334   3.556  13.900 -0.0447  0.1425 -0.0945
  901TIP3    H126898   3.302   3.625  13.842  0.9000  0.6192 -0.0683
  901TIP3    H226899   3.344   3.480  13.843 -1.6444 -0.1593 -0.0078
  902TIP3   OH226900   3.214   2.262  14.567  0.1612 -0.0816  0.4102
  902TIP3    H126901   3.234   2.234  14.477  2.4256 -0.4424  0.9556
  902TIP3    H226902   3.238   2.355  14.568 -0.3967  0.0647  0.5099
  903TIP3   OH226903   1.152   0.066  14.208  0.3069 -0.1759 -0.7824
  903TIP3    H126904   1.222   0.128  14.230  0.6680 -0.3231 -1.5074
  903TIP3    H226905   1.188  -0.020  14.231  0.3041 -0.2390 -1.0180
  904TIP3   OH226906   5.485   4.451  15.043  0.3441 -0.0097 -0.1238
  904TIP3    H126907   5.435   4.429  14.964 -1.8723 -0.5842  1.3397
  904TIP3    H226908   5.571   4.411  15.028 -0.6071 -1.7377 -1.4718
  905TIP3   OH226909   0.527   6.351  16.824  0.0052  0.0288  0.2558
  905TIP3    H126910   0.564   6.394  16.901  1.8350 -0.9028 -0.0392
  905TIP3    H226911   0.495   6.422  16.769 -0.1568  0.7753  1.2923
  906TIP3   OH226912   1.562   5.902  14.801 -0.2384  0.2578  0.4087
  906TIP3    H126913   1.628   5.833  14.793 -0.1110  0.4239 -0.0405
  906TIP3    H226914   1.516   5.883  14.883  0.7323  0.4611  1.0108
  907TIP3   OH226915   3.034   1.621  16.131 -0.0372 -0.1124  0.2575
  907TIP3    H126916   3.121   1.641  16.165 -0.2718 -0.1909  0.9166
  907TIP3    H226917   2.978   1.616  16.209 -0.6647  0.0952 -0.1679
  908TIP3   OH226918   1.609   5.231  16.539  0.2698 -0.1202  0.2755
  908TIP3    H126919   1.579   5.161  16.480 -4.3571  1.5102  0.3057
  908TIP3    H226920   1.640   5.300  16.480  0.1310 -0.2928 -0.0053
  909TIP3   OH226921   5.368   6.491  17.039 -0.0076 -0.0440 -0.5588
  909TIP3    H126922   5.412   6.414  17.074 -0.7576  0.4179  1.5858
  909TIP3    H226923   5.293   6.504  17.097  1.1116  3.3374  0.3884
  910TIP3   OH226924   6.535   1.424  15.603  0.3300  0.6474 -0.2577
  910TIP3    H126925   6.487   1.453  15.681 -0.3116 -0.6021 -0.1643
  910TIP3    H226926   6.594   1.356  15.636  0.5753  0.6209 -0.7485
  911TIP3   OH226927   3.873   2.950  16.357  0.3710  0.1469  0.7900
  911TIP3    H126928   3.946   3.012  16.367 -0.1142  0.6871  1.0489
  911TIP3    H226929   3.806   3.001  16.311 -0.1408 -0.1031  1.2521
  912TIP3   OH226930   3.714   2.462  13.524  0.7583 -0.0584 -0.2717
  912TIP3    H126931   3.783   2.451  13.458  0.8290 -0.5423 -0.1194
  912TIP3    H226932   3.632   2.448  13.477  0.8387 -1.1406 -0.1128
  913TIP3   OH226933   6.033   2.295  13.268 -0.4182  0.0317 -0.5200
  913TIP3    H126934   6.106   2.248  13.308 -0.2120 -2.3269 -3.3368
  913TIP3    H226935   5.956   2.243  13.292 -0.3682 -1.0119 -2.4092
  914TIP3   OH226936   2.591   6.304  17.051  0.0393  0.4541  0.5112
  914TIP3    H126937   2.575   6.287  16.958 -2.2494  0.5272  0.8223
  914TIP3    H226938   2.620   6.395  17.054 -1.9810  1.1861 -0.0216
  915TIP3   OH226939   1.342   6.389  15.001  0.4683  0.0243  0.2691
  915TIP3    H126940   1.369   6.297  14.996 -0.0426 -0.1784  1.0818
  915TIP3    H226941   1.342   6.409  15.095 -0.4761  0.5341  0.1724
  916TIP3   OH226942   2.445   3.864  15.540  0.5034  0.3231 -0.4054
  916TIP3    H126943   2.357   3.842  15.508  0.2993 -1.0198  0.9794
  916TIP3    H226944   2.431   3.935  15.602  0.3572  0.0065 -0.0693
  917TIP3   OH226945   0.431   0.497  16.377 -0.5165 -0.3000  0.6542
  917TIP3    H126946   0.374   0.420  16.372  1.6438 -1.8936 -1.1229
  917TIP3    H226947   0.426   0.535  16.290 -0.1331  0.5407  0.9911
  918TIP3   OH226948   3.054   2.551  16.602  0.0748  0.7484  0.7106
  918TIP3    H126949   3.125   2.513  16.654  1.0213  0.1908 -0.9087
  918TIP3    H226950   3.056   2.503  16.520 -1.1674  1.7958  0.0294
  919TIP3   OH226951   4.703   0.061  14.714 -0.0362  0.6342  0.1079
  919TIP3    H126952   4.715   0.156  14.708  0.7548  0.5536  0.2370
  919TIP3    H226953   4.781   0.030  14.760 -0.3436 -0.0673  0.1736
  920TIP3   OH226954   6.358   1.164  15.731 -0.4876 -0.0031 -0.2001
  920TIP3    H126955   6.300   1.228  15.772  0.1606  0.7225 -0.3799
  920TIP3    H226956   6.432   1.156  15.791 -0.6708 -0.7683 -0.0681
  921TIP3   OH226957   0.909   0.611  17.047 -0.0510 -0.2504  0.6725
  921TIP3    H126958   0.868   0.551  16.985 -0.1780  2.5913 -2.2485
  921TIP3    H226959   0.838   0.641  17.103 -0.9742  0.6091 -0.8968
  922TIP3   OH226960   2.618   3.955  16.666 -0.0632 -0.0060 -0.2783
  922TIP3    H126961   2.593   4.035  16.620  0.0298 -0.0423 -0.3920
  922TIP3    H226962   2.676   3.985  16.736  1.3599 -0.1360 -1.3668
  923TIP3   OH226963   4.289   0.836  14.090  0.2231  0.5337  0.2530
  923TIP3    H126964   4.321   0.755  14.129 -1.1605  0.6139  1.6300
  923TIP3    H226965   4.305   0.825  13.996 -0.2309 -1.4664  0.3678
  924TIP3   OH226966   6.005   4.722  15.614  0.7146 -0.4150 -0.2162
  924TIP3    H126967   6.058   4.747  15.538  2.0924 -0.5636  0.6686
  924TIP3    H226968   5.964   4.804  15.642  0.6800 -0.2456 -0.7409
  925TIP3   OH226969   5.303   0.552  13.617  0.3488  0.3379 -0.6617
  925TIP3    H126970   5.251   0.507  13.550 -0.1012 -0.3419  0.1280
  925TIP3    H226971   5.370   0.599  13.567 -0.7798  0.9222 -1.6748
  926TIP3   OH226972   3.839   1.740  16.775 -0.6498  0.8332  0.1643
  926TIP3    H126973   3.866   1.757  16.685 -2.2177  0.3741 -0.4382
  926TIP3    H226974   3.749   1.774  16.779 -0.2469  1.8089  1.8712
  927TIP3   OH226975   5.917   4.192  13.971  0.3908  0.1160 -0.2565
  927TIP3    H126976   5.929   4.211  14.064 -0.9985 -0.7986  0.1232
  927TIP3    H226977   5.823   4.179  13.960  0.5434  0.0603 -1.7695
  928TIP3   OH226978   4.045   6.440  16.069  0.3334 -0.2537  1.0040
  928TIP3    H126979   4.067   6.347  16.063 -1.8986 -0.9586  2.5955
  928TIP3    H226980   3.952   6.441  16.089  0.2267  2.3676  0.6686
  929TIP3   OH226981   5.148   0.440  14.113  0.6604 -1.1133 -0.0299
  929TIP3    H126982   5.234   0.467  14.147  1.1776 -1.3693 -1.0817
  929TIP3    H226983   5.163   0.351  14.079  0.3268 -0.6690 -1.4053
  930TIP3   OH226984   3.948   0.349  16.482  0.5479 -0.0919  0.3299
  930TIP3    H126985   3.960   0.295  16.560  0.6744 -0.7427 -0.1278
  930TIP3    H226986   3.854   0.368  16.480  0.3874 -0.8718  0.1347
  931TIP3   OH226987   2.499   5.569  16.039  0.1960  0.2911  0.2772
  931TIP3    H126988   2.545   5.516  15.975 -0.2770  0.6509 -0.3824
  931TIP3    H226989   2.552   5.648  16.048 -1.0310  1.4212 -1.6784
  932TIP3   OH226990   3.611   5.133  16.511  0.2578 -0.1546 -0.2718
  932TIP3    H126991   3.613   5.042  16.539 -0.4117  0.0012  0.3251
  932TIP3    H226992   3.674   5.177  16.568 -0.1784 -0.0686  0.1599
  933TIP3   OH226993   2.406   2.903  16.600 -0.3385  0.7065  0.5254
  933TIP3    H126994   2.474   2.836  16.595 -1.2026 -0.4856  2.8720
  933TIP3    H226995   2.394   2.917  16.694 -2.0583  2.2347  0.1397
  934TIP3   OH226996   4.385   6.403  13.481  0.3800 -0.0549 -0.1847
  934TIP3    H126997   4.375   6.398  13.576  0.1160  1.8445 -0.0732
  934TIP3    H226998   4.337   6.327  13.448  1.8845 -1.7218  1.2302
  935TIP3   OH226999   2.546   1.905  16.833  0.1297 -0.3333 -0.1410
  935TIP3    H127000   2.496   1.977  16.795 -0.1175 -0.2202  0.3979
  935TIP3    H227001   2.536   1.915  16.927 -0.9145 -1.7707 -0.0644
  936TIP3   OH227002   6.204   2.416  15.986 -0.0320  0.1517  0.0972
  936TIP3    H127003   6.220   2.508  15.966 -0.7851  0.4520  0.8369
  936TIP3    H227004   6.206   2.410  16.081 -0.7555 -0.4453  0.0891
  937TIP3   OH227005   0.940   0.689  13.113 -0.3595 -0.0414  0.4782
  937TIP3    H127006   0.912   0.599  13.096 -0.5388 -0.0467  0.7972
  937TIP3    H227007   0.909   0.708  13.201 -0.4854  0.4003  0.3421
  938TIP3   OH227008   0.481   1.326  16.283 -0.3904  0.1566 -0.2256
  938TIP3    H127009   0.568   1.365  16.285 -0.9905  1.6761 -1.4530
  938TIP3    H227010   0.488   1.248  16.338  2.4024 -1.1448 -2.1618
  939TIP3   OH227011   3.217   5.790  13.928  0.8469  0.0659  0.0083
  939TIP3    H127012   3.121   5.791  13.921  0.6921 -0.5349  1.6674
  939TIP3    H227013   3.246   5.850  13.859 -0.8419  2.1849  1.0237
  940TIP3   OH227014   4.395   3.842  15.209 -0.1567 -1.0471  0.0065
  940TIP3    H127015   4.393   3.922  15.157 -0.4422 -1.9221 -1.3922
  940TIP3    H227016   4.471   3.794  15.175  0.4195 -1.0842  1.2943
  941TIP3   OH227017   6.329   1.889  15.929 -0.6192 -0.2294 -0.1699
  941TIP3    H127018   6.269   1.844  15.988 -1.6273  0.3491 -0.7381
  941TIP3    H227019   6.389   1.937  15.987 -1.1375 -0.2521  0.3874
  942TIP3   OH227020   4.848   2.972  13.898 -0.6889 -0.3355 -0.4672
  942TIP3    H127021   4.753   2.974  13.907 -0.8703  0.4032 -2.0991
  942TIP3    H227022   4.881   2.957  13.986 -2.2775  0.5353  0.3102
  943TIP3   OH227023   2.499   0.547  14.693 -0.0069 -0.0753 -0.0971
  943TIP3    H127024   2.543   0.489  14.632  0.9523  1.5737 -1.0441
  943TIP3    H227025   2.414   0.565  14.652 -0.4090 -0.9644  0.3187
  944TIP3   OH227026   1.951   0.019  15.581 -0.6864 -0.4469 -0.5865
  944TIP3    H127027   2.023   0.081  15.569 -0.8828 -0.1436 -0.2260
  944TIP3    H227028   1.994  -0.064  15.601 -0.4428  0.0070  0.9052
  945TIP3   OH227029   0.214   2.500  13.977  0.6652  0.0234 -0.0334
  945TIP3    H127030   0.145   2.473  13.917 -0.6489  4.3994 -0.8409
  945TIP3    H227031   0.169   2.513  14.061  0.8440  1.2181 -0.1095
  946TIP3   OH227032   3.932   1.176  15.630 -0.3246 -0.4419 -0.3863
  946TIP3    H127033   3.923   1.113  15.702  1.3698 -1.1483 -0.7489
  946TIP3    H227034   3.978   1.250  15.668  2.2468 -1.5814 -1.0979
  947TIP3   OH227035   6.379   6.173  16.421 -0.3211 -0.1022  0.0413
  947TIP3    H127036   6.398   6.224  16.500  1.1513  1.2456 -1.1299
  947TIP3    H227037   6.428   6.092  16.432  1.2761  0.7875 -0.1925
  948TIP3   OH227038   3.268   0.707  14.522  0.3849 -1.3411  0.6689
  948TIP3    H127039   3.318   0.720  14.602  1.0922 -0.2076  0.0694
  948TIP3    H227040   3.265   0.612  14.510  2.3505 -1.4419  0.7506
  949TIP3   OH227041   6.530   1.186  15.960  0.1252  0.3007  0.2885
  949TIP3    H127042   6.582   1.264  15.941 -0.9505  1.0245  0.2141
  949TIP3    H227043   6.578   1.140  16.029  0.5502  1.2594  0.6408
  950TIP3   OH227044   2.357   2.933  14.733  0.0927  0.0524 -0.0619
  950TIP3    H127045   2.370   2.885  14.651  0.3974  1.6956 -1.0085
  950TIP3    H227046   2.397   2.876  14.800  1.9021 -0.2997 -1.3623
  951TIP3   OH227047   1.936   1.274  16.638  0.5871 -0.3128  0.2613
  951TIP3    H127048   1.953   1.222  16.716 -0.1431 -0.7775  0.1199
  951TIP3    H227049   1.948   1.365  16.667  1.5885 -0.5340  0.5763
  952TIP3   OH227050   3.653   4.413  16.696 -0.2892 -0.1450 -0.9516
  952TIP3    H127051   3.565   4.394  16.729  0.2095  2.4615  2.3918
  952TIP3    H227052   3.711   4.359  16.750  0.3119  0.3350 -1.1043
  953TIP3   OH227053   3.112   6.034  16.803 -0.5269 -0.1319 -0.2859
  953TIP3    H127054   3.155   5.949  16.793  1.9293  0.8879  0.7989
  953TIP3    H227055   3.142   6.066  16.888  0.3885  2.7463 -1.5711
  954TIP3   OH227056   4.990   5.578  15.937  0.2126 -1.2006  0.4180
  954TIP3    H127057   4.978   5.652  15.996 -1.8818 -2.7627  2.1346
  954TIP3    H227058   5.018   5.617  15.854 -3.1694  1.8287  0.4427
  955TIP3   OH227059   6.552   3.860  14.768  0.4524  0.5899  0.6365
  955TIP3    H127060   6.625   3.821  14.720 -0.0814 -0.2507  0.5004
  955TIP3    H227061   6.559   3.954  14.749 -0.0208  0.2401 -1.5207
  956TIP3   OH227062   3.293   2.216  14.285  0.1936 -0.8210 -0.2239
  956TIP3    H127063   3.246   2.213  14.202 -0.0766  2.2846 -0.3080
  956TIP3    H227064   3.371   2.162  14.271  0.3798 -0.0222 -2.6856
  957TIP3   OH227065   0.932   5.406  15.794  0.0723 -0.4335  0.0046
  957TIP3    H127066   0.920   5.313  15.812 -0.1308 -0.2388  0.9783
  957TIP3    H227067   0.924   5.448  15.880 -0.7604  0.5691 -0.5355
  958TIP3   OH227068   6.641   3.336  14.235 -0.4870 -0.1899 -0.1407
  958TIP3    H127069   6.568   3.391  14.205 -1.4132 -0.5507  1.3338
  958TIP3    H227070   6.636   3.257  14.181  1.7049  1.6038 -3.2579
  959TIP3   OH227071   2.150   5.342  14.151  0.1682  0.2867  0.8252
  959TIP3    H127072   2.140   5.310  14.241 -0.5327 -0.8252  0.3751
  959TIP3    H227073   2.196   5.272  14.105 -0.7614  0.2018 -0.0174
  960TIP3   OH227074   5.162   5.067  14.215  0.5122 -0.4245 -0.2892
  960TIP3    H127075   5.141   5.100  14.302 -1.2481 -0.0504 -0.8151
  960TIP3    H227076   5.150   5.143  14.157 -0.0212 -1.0679 -1.0486
  961TIP3   OH227077   2.728   3.943  13.710  0.0493  0.3507  0.0419
  961TIP3    H127078   2.661   3.898  13.761  0.5465  0.3603  0.7142
  961TIP3    H227079   2.725   4.034  13.741  0.5910  0.2804  0.3087
  962TIP3   OH227080   2.879   2.582  15.101  0.0054  0.1164 -0.0142
  962TIP3    H127081   2.889   2.628  15.184 -1.4997  0.3216  0.0907
  962TIP3    H227082   2.879   2.651  15.035  2.1352 -0.1178 -0.3112
  963TIP3   OH227083   6.606   5.556  14.178 -0.1518 -0.5615 -0.0049
  963TIP3    H127084   6.518   5.594  14.172  0.4775  0.7839 -1.2004
  963TIP3    H227085   6.592   5.462  14.170 -1.7688 -0.7205  3.0472
  964TIP3   OH227086   3.710   5.163  15.956  0.1195 -0.3163 -0.4837
  964TIP3    H127087   3.795   5.206  15.945 -0.3649  0.7000 -0.4271
  964TIP3    H227088   3.669   5.171  15.870  0.0501 -0.7364 -0.4899
  965TIP3   OH227089   5.967   0.822  15.708  0.2600  0.3790  0.1896
  965TIP3    H127090   5.918   0.850  15.785  1.1838 -0.4076  1.0908
  965TIP3    H227091   6.049   0.870  15.714  1.1573 -1.1636  0.8201
  966TIP3   OH227092   3.338   5.811  16.273 -0.3716  0.0835  0.1127
  966TIP3    H127093   3.311   5.902  16.282  2.0440  0.9948 -0.8519
  966TIP3    H227094   3.365   5.802  16.182 -0.3431 -1.5318  0.2373
  967TIP3   OH227095   5.174   0.780  15.118  0.3034 -0.4415 -0.5912
  967TIP3    H127096   5.260   0.809  15.086  0.4266  0.6688  0.6228
  967TIP3    H227097   5.175   0.685  15.109  1.1225 -0.3399 -1.8496
  968TIP3   OH227098   1.579   2.843  14.573  0.2282 -0.3491  0.0541
  968TIP3    H127099   1.567   2.893  14.492  2.8468  0.1464 -0.1070
  968TIP3    H227100   1.539   2.758  14.555  0.1792 -0.0309 -1.5345
  969TIP3   OH227101   5.776   4.914  16.015  0.0576 -0.5277  0.1933
  969TIP3    H127102   5.788   5.002  15.981  0.7321 -0.8118 -0.3253
  969TIP3    H227103   5.682   4.904  16.024 -0.0484  0.0643 -0.2317
  970TIP3   OH227104   6.590   0.513  13.771 -0.2932  0.2262 -0.5094
  970TIP3    H127105   6.503   0.495  13.808 -0.5408  2.0471 -0.0919
  970TIP3    H227106   6.616   0.597  13.811  1.4732 -0.0663 -0.9545
  971TIP3   OH227107   2.937   0.056  15.817  0.6593 -0.2173  0.2903
  971TIP3    H127108   2.862   0.109  15.844 -0.9641 -3.2170  2.1515
  971TIP3    H227109   3.013   0.103  15.851 -0.7377  0.5501  2.5880
  972TIP3   OH227110   1.384   4.731  15.318 -0.1248 -0.4701 -0.0566
  972TIP3    H127111   1.331   4.710  15.395 -1.4490 -0.6360 -0.9834
  972TIP3    H227112   1.379   4.653  15.263 -1.3243  0.5354 -1.4582
  973TIP3   OH227113   5.400   6.581  15.244  0.1314  0.0103 -0.0763
  973TIP3    H127114   5.316   6.621  15.220  0.3121 -0.0568 -0.8693
  973TIP3    H227115   5.438   6.556  15.160  0.2177 -1.4325  0.3696
  974TIP3   OH227116   3.800   2.875  15.767  0.7927 -0.1385  0.1567
  974TIP3    H127117   3.830   2.948  15.821 -0.6655  0.1485  0.6241
  974TIP3    H227118   3.760   2.814  15.828  0.5849 -0.5870 -0.4156
  975TIP3   OH227119   5.880   6.486  13.767 -0.2489 -0.1768 -0.3486
  975TIP3    H127120   5.806   6.514  13.712 -0.6752  0.7835  0.6818
  975TIP3    H227121   5.958   6.513  13.717 -0.6025 -0.2869 -0.9774
  976TIP3   OH227122   3.200   5.564  13.397 -0.1626 -0.3629  0.2762
  976TIP3    H127123   3.143   5.591  13.324 -1.9190 -1.4858  1.1587
  976TIP3    H227124   3.196   5.638  13.457 -0.5243 -0.3426  0.2330
  977TIP3   OH227125   3.565   6.472  16.395  0.1249 -0.7721 -0.2171
  977TIP3    H127126   3.558   6.556  16.440  2.1500 -1.0484  0.6901
  977TIP3    H227127   3.497   6.418  16.435 -0.2988  0.0063  0.1434
  978TIP3   OH227128   4.731   5.065  15.765  0.5401  0.3780  0.0233
  978TIP3    H127129   4.786   5.135  15.802  0.6440 -0.5767  1.8220
  978TIP3    H227130   4.794   4.997  15.740  0.3129  0.1195  0.1552
  979TIP3   OH227131   1.941   0.208  13.553  0.3361 -0.1974  0.5239
  979TIP3    H127132   2.015   0.152  13.530 -0.3328 -0.6218 -0.6451
  979TIP3    H227133   1.912   0.245  13.470 -1.3324 -0.7616  0.8287
  980TIP3   OH227134   4.622   4.006  15.525 -0.3492 -0.3172 -0.5917
  980TIP3    H127135   4.658   3.974  15.443  1.3239  0.0237 -0.0141
  980TIP3    H227136   4.532   3.973  15.526 -0.6263  0.2738 -2.8658
  981TIP3   OH227137   5.440   1.234  17.007  0.2605  0.0354  0.4325
  981TIP3    H127138   5.403   1.265  16.923 -2.3280 -2.5085  0.4698
  981TIP3    H227139   5.406   1.296  17.072  0.2369  0.6308 -0.1360
  982TIP3   OH227140   3.414   5.396  16.946 -0.3378  0.4231  0.7218
  982TIP3    H127141   3.435   5.403  16.853  0.8223  3.2539  1.0876
  982TIP3    H227142   3.319   5.397  16.950 -0.4309 -0.9082 -0.4420
  983TIP3   OH227143   4.448   4.182  14.873 -0.2377  0.2574 -0.3727
  983TIP3    H127144   4.365   4.173  14.827 -0.0601 -1.2131 -0.4640
  983TIP3    H227145   4.493   4.253  14.829 -1.5847  1.3462 -0.0821
  984TIP3   OH227146   1.457   3.469  15.772 -0.2307 -1.0228 -0.3060
  984TIP3    H127147   1.460   3.404  15.702 -4.8349  0.1932 -1.9488
  984TIP3    H227148   1.367   3.467  15.803  0.1208  2.6445  1.4448
  985TIP3   OH227149   3.074   4.975  15.479 -0.4508  0.1577  0.2862
  985TIP3    H127150   3.014   4.982  15.553 -0.9460  0.0762 -0.1082
  985TIP3    H227151   3.107   4.885  15.483 -0.6212  0.0955  0.2966
  986TIP3   OH227152   0.474   2.723  14.872 -0.4001  0.1145 -0.1023
  986TIP3    H127153   0.490   2.814  14.847  1.0270  0.3856  1.6480
  986TIP3    H227154   0.393   2.727  14.923 -1.3436  0.0906 -1.5431
  987TIP3   OH227155   2.494   4.567  14.565 -0.1025 -0.1894 -0.0286
  987TIP3    H127156   2.428   4.635  14.578 -1.3541 -0.9526 -1.9633
  987TIP3    H227157   2.479   4.505  14.636 -1.1454 -0.0978 -0.1550
  988TIP3   OH227158   5.599   2.237  16.512 -0.1482  0.0817 -0.0845
  988TIP3    H127159   5.524   2.178  16.522  0.3567 -1.0891 -2.3710
  988TIP3    H227160   5.635   2.245  16.600 -0.8942 -2.1902  0.4987
  989TIP3   OH227161   0.473   3.780  16.355 -0.2852  0.9602  0.0731
  989TIP3    H127162   0.487   3.696  16.312 -1.3568  1.7842 -2.1024
  989TIP3    H227163   0.506   3.769  16.444  3.5852 -0.4197 -1.3456
  990TIP3   OH227164   5.273   3.070  16.046  0.2670  0.2115  0.5337
  990TIP3    H127165   5.335   3.000  16.026  1.7096  2.1563 -2.4480
  990TIP3    H227166   5.290   3.091  16.138  3.4238  0.0055  0.1033
  991TIP3   OH227167   3.012   4.403  15.248 -0.5230 -0.5385  0.5137
  991TIP3    H127168   3.054   4.484  15.277 -0.0154  0.0237 -1.6373
  991TIP3    H227169   3.047   4.336  15.306  0.9987  0.3993  0.7330
  992TIP3   OH227170   5.136   4.009  16.638 -0.1802 -0.2457 -0.4884
  992TIP3    H127171   5.141   3.934  16.578  0.8321 -0.3800 -0.2548
  992TIP3    H227172   5.227   4.027  16.661 -0.5716 -0.9941  1.9766
  993TIP3   OH227173   0.389   6.314  13.493  0.2441  0.3245  0.2926
  993TIP3    H127174   0.408   6.299  13.401 -3.6167 -1.0511 -0.4929
  993TIP3    H227175   0.343   6.398  13.495  0.7388  0.5966  1.0838
  994TIP3   OH227176   6.281   6.366  15.886  0.3330  0.3409  0.2500
  994TIP3    H127177   6.350   6.403  15.831  0.5208  0.6327  0.6796
  994TIP3    H227178   6.321   6.357  15.972 -0.3722  1.1543  0.6728
  995TIP3   OH227179   4.074   0.190  14.077 -0.0756 -0.6360  0.5929
  995TIP3    H127180   4.082   0.218  14.168  3.0558  1.3048 -0.1024
  995TIP3    H227181   4.154   0.139  14.061 -1.0180 -1.7391 -0.8695
  996TIP3   OH227182   0.879   0.611  15.903 -0.0864  0.2137  0.4421
  996TIP3    H127183   0.877   0.700  15.868  1.4426 -0.4958 -1.6622
  996TIP3    H227184   0.965   0.603  15.944 -0.7729  0.1114  1.9396
  997TIP3   OH227185   1.912   2.772  14.963  0.5123 -0.5619  0.5597
  997TIP3    H127186   1.914   2.696  14.906 -2.2382  1.9201 -3.3341
  997TIP3    H227187   1.987   2.824  14.936 -1.1613  0.9277 -1.5352
  998TIP3   OH227188   2.700   5.910  16.417 -0.0232  0.6799 -0.4253
  998TIP3    H127189   2.745   5.826  16.423 -1.7245 -0.1940  0.7170
  998TIP3    H227190   2.683   5.921  16.323 -0.0078 -0.3862 -0.5627
  999TIP3   OH227191   2.455   3.444  15.925  0.5586  0.4163  0.3105
  999TIP3    H127192   2.458   3.371  15.863  1.9327 -0.2372  1.0998
  999TIP3    H227193   2.441   3.521  15.870 -1.0432 -0.4162 -0.5260
 1000TIP3   OH227194   0.480   2.281  14.155 -0.3178 -0.1689 -0.1071
 1000TIP3    H127195   0.450   2.371  14.169  0.1780  0.7334 -3.7576
 1000TIP3    H227196   0.562   2.275  14.204 -0.0897  1.5677 -0.1988
 1001TIP3   OH227197   5.702   6.255  14.260 -0.7106  0.6224 -0.0412
 1001TIP3    H127198   5.778   6.271  14.315 -1.3335 -1.7056  1.6534
 1001TIP3    H227199   5.735   6.261  14.170  0.8085  2.3796  0.5874
 1002TIP3   OH227200   5.447   3.710  16.270  0.0118  0.3988  0.4434
 1002TIP3    H127201   5.437   3.647  16.341  2.4092  0.8572  1.3069
 1002TIP3    H227202   5.500   3.663  16.205  1.5223  1.3226  0.9440
 1003TIP3   OH227203   4.806   6.131  16.486 -0.8117 -0.1995 -0.6458
 1003TIP3    H127204   4.834   6.082  16.562 -0.4754  2.2507  0.9241
 1003TIP3    H227205   4.872   6.113  16.419  2.3073  2.0713  1.5602
 1004TIP3   OH227206   4.832   1.207  15.696 -0.5823  0.3368 -0.0735
 1004TIP3    H127207   4.794   1.215  15.609  0.9112  0.2437 -0.7780
 1004TIP3    H227208   4.879   1.289  15.709 -0.2969  0.1039  0.3823
 1005TIP3   OH227209   0.868   0.819  13.615 -0.1107 -0.2958 -0.0008
 1005TIP3    H127210   0.853   0.749  13.551 -1.4702  0.3665 -0.4608
 1005TIP3    H227211   0.897   0.893  13.563  0.1250 -0.1549  0.3284
 1006TIP3   OH227212   3.825   6.005  13.670 -0.3494 -0.2295 -0.1943
 1006TIP3    H127213   3.732   6.016  13.690 -0.4177  0.7784 -0.9594
 1006TIP3    H227214   3.870   6.034  13.749 -0.6823 -0.7125  0.1744
 1007TIP3   OH227215   5.936   4.590  14.653  0.4875 -0.6977  0.7777
 1007TIP3    H127216   5.940   4.685  14.638  1.4375 -0.9275 -0.5459
 1007TIP3    H227217   5.857   4.561  14.607  0.7286 -0.6888  0.3574
 1008TIP3   OH227218   4.664   0.273  15.002 -0.0460  0.6237  0.6496
 1008TIP3    H127219   4.575   0.264  14.967  1.4280  1.2469 -3.7545
 1008TIP3    H227220   4.660   0.352  15.057 -1.7976  1.8460 -1.1080
 1009TIP3   OH227221   5.846   5.075  17.004  0.3888 -0.3490 -0.0838
 1009TIP3    H127222   5.930   5.064  17.050  1.1661 -0.8833 -1.5569
 1009TIP3    H227223   5.863   5.143  16.940 -0.4117 -0.2356 -0.1843
 1010TIP3   OH227224   0.063   2.772  14.706  0.2250 -0.3834  0.5366
 1010TIP3    H127225  -0.018   2.814  14.736  0.8114  0.1873  1.3668
 1010TIP3    H227226   0.116   2.762  14.786  2.4760  2.5262 -0.4152
 1011TIP3   OH227227   5.506   4.933  15.725 -0.3647  0.1079  0.6239
 1011TIP3    H127228   5.487   5.027  15.720  0.7107  0.3394  0.7483
 1011TIP3    H227229   5.529   4.918  15.817  0.3488 -0.1014  0.4119
 1012TIP3   OH227230   1.717   3.457  16.764  0.2330  0.1577  0.1825
 1012TIP3    H127231   1.776   3.530  16.785  1.9614 -0.6667 -1.4344
 1012TIP3    H227232   1.776   3.383  16.746 -1.4236 -1.3798  0.7477
 1013TIP3   OH227233   6.696   1.742  13.572  0.0080 -0.3275  0.2643
 1013TIP3    H127234   6.621   1.684  13.561 -0.1621 -0.2558  0.9845
 1013TIP3    H227235   6.657   1.828  13.591  0.2575 -0.4739  1.5621
 1014TIP3   OH227236   4.846   2.319  16.737  0.0093  0.2490 -0.2083
 1014TIP3    H127237   4.828   2.280  16.651  2.3432 -1.5381 -0.0005
 1014TIP3    H227238   4.794   2.269  16.798 -2.1691  1.9488 -0.5574
 1015TIP3   OH227239   4.195   6.102  15.621  0.4253 -0.8283 -0.2465
 1015TIP3    H127240   4.289   6.097  15.601  0.4138  1.1692 -1.0502
 1015TIP3    H227241   4.188   6.070  15.710  2.0709  0.0478  0.2524
 1016TIP3   OH227242   5.557   2.255  15.096 -0.4556  1.2605  0.2310
 1016TIP3    H127243   5.534   2.186  15.158 -0.5408  1.0801  0.0012
 1016TIP3    H227244   5.565   2.210  15.012  1.0833  1.2370  0.3509
 1017TIP3   OH227245   2.126   6.662  15.230 -1.3977 -0.2380  0.0651
 1017TIP3    H127246   2.036   6.694  15.217 -1.9218 -1.5591  0.2742
 1017TIP3    H227247   2.181   6.735  15.203 -2.5339  0.4687 -0.4415
 1018TIP3   OH227248   3.866   0.377  14.185 -0.1959 -0.0061  0.0862
 1018TIP3    H127249   3.800   0.433  14.226 -0.1425 -1.0810  1.6961
 1018TIP3    H227250   3.906   0.329  14.257 -0.3630 -2.2649 -1.2123
 1019TIP3   OH227251   6.577   5.350  16.631  0.0141  0.0747 -0.0008
 1019TIP3    H127252   6.518   5.329  16.559 -1.4356 -2.1851  1.7033
 1019TIP3    H227253   6.538   5.427  16.672  0.0863  0.5379 -0.7785
 1020TIP3   OH227254   1.596   0.694  16.260 -0.2273 -0.2210  0.7330
 1020TIP3    H127255   1.618   0.677  16.169 -0.7374 -0.4979  0.6577
 1020TIP3    H227256   1.577   0.788  16.263 -1.9233 -0.5166  0.1784
 1021TIP3   OH227257   1.284   4.215  16.560 -0.4486 -0.3964 -0.2185
 1021TIP3    H127258   1.279   4.309  16.543  0.2609 -0.2808  0.2120
 1021TIP3    H227259   1.366   4.202  16.608 -0.6927 -1.1933  0.0112
 1022TIP3   OH227260   4.463   3.320  15.141  0.8281 -0.1139  0.0405
 1022TIP3    H127261   4.527   3.343  15.208  1.0768  0.2608 -0.3172
 1022TIP3    H227262   4.496   3.362  15.061 -0.2715  0.7637  0.0189
 1023TIP3   OH227263   3.258   0.230  16.391 -0.3720 -0.3426  0.4310
 1023TIP3    H127264   3.311   0.308  16.402 -1.5016  1.2181 -3.3620
 1023TIP3    H227265   3.168   0.263  16.387 -0.8901 -1.7738 -1.0333
 1024TIP3   OH227266   3.679   3.498  17.189  0.5850  0.1570  0.2546
 1024TIP3    H127267   3.627   3.431  17.144  1.0699  0.3115 -0.5326
 1024TIP3    H227268   3.763   3.499  17.144  0.9959  0.4928  1.0021
 1025TIP3   OH227269   0.908   3.629  14.711 -0.1429  0.1375  0.6396
 1025TIP3    H127270   0.880   3.628  14.619 -1.3822  2.9326  0.8959
 1025TIP3    H227271   0.871   3.548  14.747 -2.5136  0.5647 -0.5935
 1026TIP3   OH227272   1.892   1.430  14.246 -0.0474 -0.0327 -0.6170
 1026TIP3    H127273   1.857   1.342  14.257  2.0318 -0.8733 -0.3453
 1026TIP3    H227274   1.828   1.474  14.189 -1.9860 -1.1277  0.5840
 1027TIP3   OH227275   4.144   3.750  14.305 -0.4321  0.1139  0.2331
 1027TIP3    H127276   4.147   3.712  14.392 -1.0599  0.0930  0.2502
 1027TIP3    H227277   4.236   3.762  14.280 -0.2502  0.5441  1.0783
 1028TIP3   OH227278   3.386   5.888  14.400 -0.3924  0.2371  0.5990
 1028TIP3    H127279   3.324   5.891  14.472 -1.1818  0.2209 -0.0704
 1028TIP3    H227280   3.382   5.798  14.367 -2.2150  0.9237 -1.3031
 1029TIP3   OH227281   2.122   0.258  15.469 -0.4612 -0.1829 -0.1546
 1029TIP3    H127282   2.213   0.258  15.441 -0.2329  3.3602  0.0691
 1029TIP3    H227283   2.117   0.329  15.534 -3.4519  0.1328 -0.5606
 1030TIP3   OH227284   3.722   6.536  15.864  0.2455 -0.4277 -0.2458
 1030TIP3    H127285   3.701   6.551  15.772  0.2003 -0.5124 -0.2501
 1030TIP3    H227286   3.804   6.584  15.879 -0.1946  0.2964 -0.1078
 1031TIP3   OH227287   4.596   3.412  13.905 -0.1048  0.1077 -0.2726
 1031TIP3    H127288   4.615   3.438  13.815  2.7637 -2.0489 -0.4418
 1031TIP3    H227289   4.557   3.324  13.897 -0.5668  0.2248  0.5655
 1032TIP3   OH227290   1.874   3.802  15.833 -0.5389 -0.1174 -0.7317
 1032TIP3    H127291   1.955   3.853  15.831 -0.2563 -0.5422 -0.3245
 1032TIP3    H227292   1.842   3.810  15.923  0.0332 -1.4468 -0.3829
 1033TIP3   OH227293   3.454   3.343  16.151 -0.1555 -0.1926 -0.6838
 1033TIP3    H127294   3.426   3.380  16.235 -0.0769  1.0012 -1.1676
 1033TIP3    H227295   3.475   3.419  16.097  0.6463 -0.9672 -1.4997
 1034TIP3   OH227296   3.082   6.321  15.603 -0.0587  0.7572 -0.9143
 1034TIP3    H127297   3.070   6.226  15.609  1.9681  0.4892 -0.3015
 1034TIP3    H227298   2.993   6.356  15.592 -1.0582 -1.0495  0.8257
 1035TIP3   OH227299   4.297   5.849  14.046  0.0305  0.2018  0.2127
 1035TIP3    H127300   4.303   5.866  13.951 -0.9883  0.6253  0.2033
 1035TIP3    H227301   4.334   5.927  14.086  1.0631 -0.2588  0.1669
 1036TIP3   OH227302   6.370   6.512  16.517 -0.6715 -0.1323  0.0863
 1036TIP3    H127303   6.437   6.542  16.455  0.1670  0.6726  1.3207
 1036TIP3    H227304   6.337   6.592  16.557 -1.3763 -0.6158  0.4916
 1037TIP3   OH227305   3.220   1.649  16.351 -0.1562 -0.1275  0.1752
 1037TIP3    H127306   3.297   1.638  16.407  0.1075  3.2289  0.7058
 1037TIP3    H227307   3.146   1.640  16.411 -0.1789 -1.9467 -0.0683
 1038TIP3   OH227308   6.678   1.511  15.366  0.6971 -0.3927 -0.0914
 1038TIP3    H127309   6.623   1.483  15.439  0.4552 -0.9722 -0.4899
 1038TIP3    H227310   6.744   1.567  15.406 -0.0663  0.1639  0.4265
 1039TIP3   OH227311   3.146   1.478  14.564 -0.1937 -0.4753 -0.1114
 1039TIP3    H127312   3.081   1.533  14.608 -2.2123 -0.0771 -3.2444
 1039TIP3    H227313   3.099   1.396  14.548  0.8042 -0.9631 -0.6046
 1040TIP3   OH227314   2.120   0.194  15.781  0.3891 -0.1270  0.0234
 1040TIP3    H127315   2.033   0.205  15.819 -0.9938 -1.1931 -2.5940
 1040TIP3    H227316   2.158   0.122  15.830 -0.2469  0.2371  1.0922
 1041TIP3   OH227317   2.880   3.603  16.232 -0.4720 -0.2575  0.0219
 1041TIP3    H127318   2.891   3.608  16.137  2.7183  0.6090  0.3089
 1041TIP3    H227319   2.851   3.691  16.258 -0.3411 -0.1918 -0.0562
 1042TIP3   OH227320   0.122   4.286  15.302  0.3018  0.3613  0.5170
 1042TIP3    H127321   0.037   4.309  15.264  0.0315 -0.9334  0.3113
 1042TIP3    H227322   0.124   4.334  15.385  0.7633  2.9883 -0.8796
 1043TIP3   OH227323   4.699   6.227  14.185 -0.5966 -0.1870  0.1495
 1043TIP3    H127324   4.668   6.137  14.196  1.1852 -0.8539  0.0760
 1043TIP3    H227325   4.620   6.281  14.191 -1.9949 -1.8809 -1.7261
 1044TIP3   OH227326   4.051   2.563  16.287 -0.0623 -0.2801  0.3052
 1044TIP3    H127327   3.962   2.598  16.277 -0.4808 -1.1605  0.8924
 1044TIP3    H227328   4.043   2.470  16.267  1.2476  0.0695 -2.2940
 1045TIP3   OH227329   1.036   3.842  16.427  0.7424  0.5803  0.2376
 1045TIP3    H127330   1.091   3.774  16.466  1.0395  1.1037  0.7433
 1045TIP3    H227331   1.080   3.864  16.345 -0.3289 -1.1156 -0.8583
 1046TIP3   OH227332   4.255   3.121  15.107 -0.7341  0.1466  1.7160
 1046TIP3    H127333   4.301   3.196  15.145  1.0561 -0.4421  0.7791
 1046TIP3    H227334   4.320   3.051  15.104 -1.5450 -0.5864 -0.0581
 1047TIP3   OH227335   2.858   1.700  16.922 -0.6874 -0.0611 -0.1318
 1047TIP3    H127336   2.950   1.697  16.896 -0.3383 -3.6603  0.9246
 1047TIP3    H227337   2.809   1.696  16.840  0.1096  0.4489 -0.6453
 1048TIP3   OH227338   6.670   0.388  14.823 -0.1249 -0.3773  0.1061
 1048TIP3    H127339   6.628   0.469  14.793 -2.1503 -1.8061 -1.1334
 1048TIP3    H227340   6.620   0.363  14.901 -1.4123 -1.8699 -1.1381
 1049TIP3   OH227341   3.443   6.686  15.110 -0.9055 -0.2511  0.1153
 1049TIP3    H127342   3.435   6.718  15.021 -1.2722 -2.1842 -0.5916
 1049TIP3    H227343   3.538   6.680  15.125 -0.8269 -0.8382 -0.5310
 1050TIP3   OH227344   1.295   4.535  15.114 -0.1471  0.0472  0.2673
 1050TIP3    H127345   1.274   4.609  15.056  0.3948  0.2221  0.2907
 1050TIP3    H227346   1.288   4.459  15.057 -0.3620  0.1465  0.1561
 1051TIP3   OH227347   0.901   5.967  15.312  0.1945  0.0629 -0.2818
 1051TIP3    H127348   0.806   5.966  15.324  0.1454 -1.9580 -0.5656
 1051TIP3    H227349   0.935   5.919  15.387  0.8996 -0.2926 -0.8227
 1052TIP3   OH227350   6.473   5.825  13.888  0.0543  0.5978 -0.1608
 1052TIP3    H127351   6.543   5.777  13.844  0.4997  1.4492 -0.4114
 1052TIP3    H227352   6.401   5.762  13.893  1.2858 -0.7755  1.4103
 1053TIP3   OH227353   2.507   5.340  13.899  0.3405  0.0542 -0.7145
 1053TIP3    H127354   2.512   5.413  13.960 -0.0925  0.1050 -0.7345
 1053TIP3    H227355   2.482   5.380  13.816 -2.0404 -0.3274 -0.2528
 1054TIP3   OH227356   1.105   0.138  16.240 -0.0498  0.2373  0.0022
 1054TIP3    H127357   1.013   0.112  16.241  0.0079 -0.0170  1.4962
 1054TIP3    H227358   1.105   0.228  16.273  0.0685  0.9675 -1.9003
 1055TIP3   OH227359   1.730   5.698  16.478  0.5925  0.0308 -0.4733
 1055TIP3    H127360   1.778   5.769  16.521  1.3812 -0.2282 -0.9063
 1055TIP3    H227361   1.711   5.732  16.391  1.3999 -0.4481 -0.8539
 1056TIP3   OH227362   3.738   1.446  15.857  0.4255  0.3754 -0.0696
 1056TIP3    H127363   3.683   1.376  15.892 -0.7673  1.3163  0.0014
 1056TIP3    H227364   3.710   1.525  15.903  1.4377  0.9871 -0.4538
 1057TIP3   OH227365   2.950   3.533  16.519  0.2431  0.2051  0.4549
 1057TIP3    H127366   2.882   3.589  16.556  0.8892  1.1888  0.1955
 1057TIP3    H227367   2.943   3.546  16.425  0.3406 -0.2273  0.3895
 1058TIP3   OH227368   4.220   0.815  15.825 -0.0898  0.0675  0.7226
 1058TIP3    H127369   4.257   0.901  15.843  0.0059  0.9065 -2.6552
 1058TIP3    H227370   4.296   0.757  15.819  0.0645  0.2722  0.7068
 1059TIP3   OH227371   0.546   3.982  15.648 -0.2636 -0.2022 -0.4833
 1059TIP3    H127372   0.492   3.912  15.612 -1.5702  0.8807 -0.7120
 1059TIP3    H227373   0.587   3.944  15.725 -0.7423 -1.2874 -0.7494
 1060TIP3   OH227374   2.665   0.154  14.636 -0.9153  0.2845 -0.2927
 1060TIP3    H127375   2.594   0.095  14.657  0.2948 -1.0686  0.1682
 1060TIP3    H227376   2.741   0.117  14.681 -0.1597  2.3628  0.2986
 1061TIP3   OH227377   3.612   3.403  13.998  0.0940 -0.4792 -0.6026
 1061TIP3    H127378   3.605   3.387  13.904  1.5981 -1.8315 -0.5258
 1061TIP3    H227379   3.704   3.384  14.019 -0.5367 -1.6275  1.3886
 1062TIP3   OH227380   5.450   5.785  15.235 -0.6399  0.0733  0.3453
 1062TIP3    H127381   5.367   5.784  15.281 -0.9435 -0.7062 -0.1889
 1062TIP3    H227382   5.457   5.697  15.196 -1.4656  1.2932 -2.9047
 1063TIP3   OH227383   1.740   0.456  14.426 -0.7008 -0.2275  0.3871
 1063TIP3    H127384   1.662   0.401  14.428 -0.3533 -0.7635 -0.4843
 1063TIP3    H227385   1.706   0.545  14.418 -1.2151 -0.5717 -1.6953
 1064TIP3   OH227386   1.824   1.633  13.725 -0.2091  0.4149  0.1316
 1064TIP3    H127387   1.837   1.697  13.654 -2.3658  2.5888  1.5329
 1064TIP3    H227388   1.899   1.647  13.784  0.8224 -0.4016 -0.9237
 1065TIP3   OH227389   0.223   3.115  15.046 -0.6702  0.5653  0.1347
 1065TIP3    H127390   0.163   3.188  15.061 -2.1334 -0.7901  1.4193
 1065TIP3    H227391   0.214   3.061  15.125 -1.0401 -1.9023 -1.4865
 1066TIP3   OH227392   1.459   3.394  16.889 -0.2282  0.2683  0.1238
 1066TIP3    H127393   1.531   3.430  16.838 -0.4714  0.8769  0.2056
 1066TIP3    H227394   1.501   3.357  16.967 -0.1150  1.8716  0.8732
 1067TIP3   OH227395   4.911   0.743  13.741 -0.0454 -0.1061  0.2858
 1067TIP3    H127396   4.873   0.796  13.671 -1.4468 -1.2704  0.1189
 1067TIP3    H227397   4.896   0.653  13.714  2.7714 -0.6542  0.3115
 1068TIP3   OH227398   6.623   1.218  17.025 -0.2575  0.1417 -0.4119
 1068TIP3    H127399   6.529   1.220  17.006 -0.3712  1.5621  0.1883
 1068TIP3    H227400   6.654   1.137  16.984 -1.9154 -0.8717  0.2569
 1069TIP3   OH227401   1.268   4.717  16.359  0.6906  0.2878 -0.0150
 1069TIP3    H127402   1.244   4.803  16.394  0.6954 -0.4879  2.0261
 1069TIP3    H227403   1.190   4.687  16.312  0.9197  1.6546 -1.3561
 1070TIP3   OH227404   6.289   4.646  14.759 -0.9463 -0.2041  0.2433
 1070TIP3    H127405   6.329   4.708  14.821 -1.2190  0.0387  0.1731
 1070TIP3    H227406   6.248   4.580  14.815  1.8769 -2.0395  0.3993
 1071TIP3   OH227407   5.974   4.112  14.731  0.0837 -0.0676 -0.2444
 1071TIP3    H127408   5.974   4.017  14.726  1.3842 -0.1283  0.4558
 1071TIP3    H227409   6.047   4.133  14.788  0.0456  1.3717 -0.6825
 1072TIP3   OH227410   0.932   0.958  13.854  0.0822 -0.0466  0.6073
 1072TIP3    H127411   1.025   0.952  13.879  1.0455  0.7302 -2.4179
 1072TIP3    H227412   0.928   0.918  13.767 -2.2185  0.9591  0.1911
 1073TIP3   OH227413   0.622   4.974  14.865  0.5624 -0.4771  0.1459
 1073TIP3    H127414   0.531   4.966  14.835  0.5871  0.9958 -0.3900
 1073TIP3    H227415   0.616   4.966  14.960 -0.0378 -1.0940  0.0648
 1074TIP3   OH227416   5.894   5.613  14.292  0.6011 -0.3664  0.1721
 1074TIP3    H127417   5.972   5.653  14.331  1.0006 -1.2307  0.3058
 1074TIP3    H227418   5.900   5.635  14.199 -0.4938  1.9236  0.5800
 1075TIP3   OH227419   5.088   6.103  16.322  0.2298  0.0574 -0.1250
 1075TIP3    H127420   5.118   6.021  16.362 -0.9711  0.1368  0.9870
 1075TIP3    H227421   5.045   6.074  16.241 -1.2914 -0.5705  0.8650
 1076TIP3   OH227422   6.085   1.198  16.127 -0.0915  0.4152 -0.0258
 1076TIP3    H127423   6.103   1.253  16.050 -0.7274  0.9159  0.1721
 1076TIP3    H227424   6.166   1.200  16.178  0.2349  0.3214 -0.5373
 1077TIP3   OH227425   5.994   1.143  14.606  0.0975  0.2576  0.3353
 1077TIP3    H127426   6.046   1.222  14.595  0.4562  0.0425  0.4477
 1077TIP3    H227427   5.928   1.166  14.671 -0.0488  0.5815  0.0757
 1078TIP3   OH227428   3.110   5.416  13.946 -0.1711 -0.7026  0.0121
 1078TIP3    H127429   3.105   5.456  14.033 -0.1755  1.5607 -0.9546
 1078TIP3    H227430   3.190   5.365  13.947  1.1005  1.1891  0.6569
 1079TIP3   OH227431   1.117   1.683  13.321 -0.3081  0.3568 -0.1741
 1079TIP3    H127432   1.142   1.592  13.302 -0.3132  0.0175  1.2988
 1079TIP3    H227433   1.037   1.675  13.372 -0.2546  1.1861  0.0494
 1080TIP3   OH227434   4.329   1.003  13.818  0.4122  0.1231 -0.2920
 1080TIP3    H127435   4.369   0.976  13.735 -1.7456 -1.6566 -0.8370
 1080TIP3    H227436   4.272   1.076  13.794  0.7129  0.4130 -0.1344
 1081TIP3   OH227437   4.637   5.962  16.224 -0.4805  0.2805 -0.7263
 1081TIP3    H127438   4.701   5.892  16.216 -0.1639  0.5896 -0.9697
 1081TIP3    H227439   4.644   5.990  16.316  0.8849  1.3655 -1.1149
 1082TIP3   OH227440   0.029   3.233  16.276 -0.1537 -0.1111  0.1348
 1082TIP3    H127441   0.074   3.149  16.261 -1.8990 -1.1854  0.6343
 1082TIP3    H227442   0.100   3.294  16.297  1.3526 -1.0309 -1.8237
 1083TIP3   OH227443   5.496   2.877  14.265  0.2423 -0.3457 -0.3478
 1083TIP3    H127444   5.566   2.835  14.316  1.3475  1.2891 -0.4311
 1083TIP3    H227445   5.542   2.923  14.195 -0.9309  0.6281 -0.5096
 1084TIP3   OH227446   5.862   0.246  15.688  0.3180  0.6373  0.1970
 1084TIP3    H127447   5.869   0.215  15.779  1.1952  0.2212 -0.0011
 1084TIP3    H227448   5.832   0.337  15.696 -0.7458  0.2567  0.8512
 1085TIP3   OH227449   1.416   5.670  15.754 -0.4025 -0.3260  0.1342
 1085TIP3    H127450   1.412   5.653  15.848 -1.8112 -0.5013  0.0653
 1085TIP3    H227451   1.434   5.584  15.715  1.6174 -0.0187  0.2973
 1086TIP3   OH227452   3.284   6.218  15.763 -0.0432 -0.0285 -0.2697
 1086TIP3    H127453   3.233   6.291  15.728  0.4909  0.1672 -0.6383
 1086TIP3    H227454   3.353   6.259  15.815 -0.1786 -0.2902  0.1200
 1087TIP3   OH227455   2.156   5.229  14.686  0.0791 -0.2163  0.4874
 1087TIP3    H127456   2.132   5.137  14.691 -0.5027 -0.2307 -1.5600
 1087TIP3    H227457   2.074   5.276  14.702  0.3097 -0.0611  1.2205
 1088TIP3   OH227458   3.943   1.316  14.784  0.5555 -0.1587 -0.7387
 1088TIP3    H127459   3.900   1.340  14.866  0.9478 -3.2013  0.5214
 1088TIP3    H227460   4.032   1.350  14.793  0.8354 -1.1216  0.5372
 1089TIP3   OH227461   0.778   0.583  15.260  0.5000  0.4295 -0.1407
 1089TIP3    H127462   0.863   0.544  15.240  0.7128 -0.2643  1.9083
 1089TIP3    H227463   0.797   0.648  15.328 -0.4675  1.0333 -0.4369
 1090TIP3   OH227464   0.474   6.559  16.160 -0.0997 -0.2067 -0.4850
 1090TIP3    H127465   0.494   6.507  16.082 -0.5698  0.2163 -0.8960
 1090TIP3    H227466   0.394   6.520  16.195 -0.1126 -0.1437 -0.4441
 1091TIP3   OH227467   2.433   5.911  16.741 -0.2563  0.4757 -0.1240
 1091TIP3    H127468   2.419   5.920  16.647  2.8697  0.3353 -0.6990
 1091TIP3    H227469   2.401   5.993  16.778 -0.9284  0.8004 -1.3725
 1092TIP3   OH227470   4.178   1.517  13.111 -0.2898  0.5546 -0.2724
 1092TIP3    H127471   4.141   1.601  13.140 -0.1250 -0.0259  1.7505
 1092TIP3    H227472   4.136   1.452  13.167 -0.6487 -0.7893 -2.0235
 1093TIP3   OH227473   0.663   3.884  15.888 -0.0999 -0.2545 -0.2637
 1093TIP3    H127474   0.733   3.938  15.925 -1.0321  0.9478 -0.2270
 1093TIP3    H227475   0.691   3.794  15.907  0.6751  0.2465  1.1329
 1094TIP3   OH227476   4.299   2.181  15.015 -0.2341 -0.0943 -0.3595
 1094TIP3    H127477   4.238   2.132  15.069  1.9367 -1.5919  0.8919
 1094TIP3    H227478   4.285   2.272  15.040 -1.2857 -0.4845  0.5797
 1095TIP3   OH227479   3.319   6.124  14.746  0.4220  0.2827  0.1704
 1095TIP3    H127480   3.370   6.151  14.823  1.6681  2.0131 -1.1703
 1095TIP3    H227481   3.381   6.131  14.673 -0.7623 -1.1661 -1.0465
 1096TIP3   OH227482   3.181   5.015  14.575 -0.1032 -0.0524  0.1660
 1096TIP3    H127483   3.209   4.968  14.497  0.5227  2.0280 -0.9453
 1096TIP3    H227484   3.086   5.024  14.566 -0.0921 -0.2321 -0.1245
 1097TIP3   OH227485   0.742   3.119  15.287 -0.0831  0.3243  0.4518
 1097TIP3    H127486   0.729   3.201  15.240  1.8014 -0.7020 -2.1058
 1097TIP3    H227487   0.682   3.057  15.245 -0.6095  0.0605  1.5435
 1098TIP3   OH227488   5.095   5.212  14.848  0.4952 -0.0140 -0.0822
 1098TIP3    H127489   5.152   5.195  14.774 -1.8657 -0.7948 -1.8545
 1098TIP3    H227490   5.067   5.303  14.837 -0.3472 -0.3199 -0.5390
 1099TIP3   OH227491   5.375   0.085  15.875  0.1061 -0.2453 -0.0311
 1099TIP3    H127492   5.356   0.006  15.824 -1.1771  0.3412 -0.5039
 1099TIP3    H227493   5.329   0.155  15.829 -4.2102 -0.1888  3.7003
 1100TIP3   OH227494   0.219   0.012  16.943  0.7898  0.4573 -0.0708
 1100TIP3    H127495   0.197  -0.081  16.940  2.3473 -0.1243  2.6957
 1100TIP3    H227496   0.146   0.056  16.901  0.5890 -2.0460 -2.6404
 1101TIP3   OH227497   1.265   3.240  14.512 -0.0869  0.3677 -0.0687
 1101TIP3    H127498   1.237   3.325  14.479 -0.7023  0.1947 -0.0037
 1101TIP3    H227499   1.355   3.254  14.541 -0.5213  1.2670  0.9156
 1102TIP3   OH227500   3.500   2.519  14.725  0.1114 -0.6139  0.0663
 1102TIP3    H127501   3.581   2.505  14.773  0.1861 -1.1053 -0.2051
 1102TIP3    H227502   3.434   2.530  14.793  0.1459 -1.7225  0.2960
 1103TIP3   OH227503   3.777   4.821  14.894  0.0514  0.2663  0.3871
 1103TIP3    H127504   3.871   4.807  14.887  0.2000  1.2314  0.3745
 1103TIP3    H227505   3.768   4.889  14.961 -0.5916  0.6940 -0.1247
 1104TIP3   OH227506   4.517   2.460  16.780 -0.2495  0.1231 -0.0315
 1104TIP3    H127507   4.490   2.526  16.844  0.2959 -1.0514  1.4755
 1104TIP3    H227508   4.486   2.377  16.816 -0.7055 -0.4966 -1.7564
 1105TIP3   OH227509   2.972   1.110  15.743  0.2787 -0.3298 -0.1674
 1105TIP3    H127510   2.895   1.054  15.735 -0.1894  0.1925  0.4993
 1105TIP3    H227511   3.012   1.085  15.827  1.7592 -1.6895 -1.2276
 1106TIP3   OH227512   0.772   1.164  14.819 -0.0450 -0.1479 -0.6567
 1106TIP3    H127513   0.763   1.189  14.727  0.8149  0.0497 -0.6956
 1106TIP3    H227514   0.792   1.246  14.864 -1.4612 -0.0605 -0.1222
 1107TIP3   OH227515   1.439   5.883  15.548 -0.3456 -0.2101  0.2901
 1107TIP3    H127516   1.436   5.798  15.593 -1.2063  0.9608  2.6370
 1107TIP3    H227517   1.528   5.886  15.511 -0.2919 -2.1020  0.1219
 1108TIP3   OH227518   0.740   2.227  15.064 -0.2468 -0.3345  0.0497
 1108TIP3    H127519   0.670   2.276  15.106 -0.2728  0.0958 -0.4955
 1108TIP3    H227520   0.795   2.293  15.022  1.1457 -0.5595  1.4137
 1109TIP3   OH227521   2.231   5.509  15.686 -0.5350 -0.5692  0.5459
 1109TIP3    H127522   2.284   5.584  15.715  0.6283 -1.1094 -0.0889
 1109TIP3    H227523   2.146   5.547  15.666 -0.0455  0.5585  0.4825
 1110TIP3   OH227524   0.685   2.653  14.133  0.3878  0.3385 -0.4321
 1110TIP3    H127525   0.644   2.569  14.116 -0.5650  0.6115  0.4760
 1110TIP3    H227526   0.676   2.701  14.050  0.4990 -0.2577 -0.7977
 1111TIP3   OH227527   5.122   0.835  15.383  0.9727 -0.8898  0.0656
 1111TIP3    H127528   5.128   0.808  15.291 -0.5841  1.6094 -0.8694
 1111TIP3    H227529   5.037   0.803  15.412  0.7713 -0.3080  0.1269
 1112TIP3   OH227530   0.487   6.214  15.661 -0.0527  0.4577  0.1265
 1112TIP3    H127531   0.561   6.158  15.636 -1.2450 -1.8186  1.4222
 1112TIP3    H227532   0.417   6.190  15.601 -0.5011  0.8097  0.5027
 1113TIP3   OH227533   1.612   1.046  15.182  0.1264  0.0946 -0.1945
 1113TIP3    H127534   1.596   0.962  15.225  0.6601  0.6807  1.2084
 1113TIP3    H227535   1.626   1.024  15.089 -0.3064 -1.2850  0.0574
 1114TIP3   OH227536   5.649   2.105  14.869 -0.0999 -0.5488 -0.3651
 1114TIP3    H127537   5.608   2.080  14.786  0.5967 -2.2610 -0.2378
 1114TIP3    H227538   5.741   2.077  14.860 -0.1356 -1.2758  1.1589
 1115TIP3   OH227539   0.627   4.308  16.516  0.7752  0.2030 -0.0485
 1115TIP3    H127540   0.573   4.292  16.594  0.9068 -0.3828 -0.0760
 1115TIP3    H227541   0.565   4.324  16.446  0.6369 -0.2603 -0.0334
 1116TIP3   OH227542   4.475   3.841  16.829  0.4049 -0.2527  0.0422
 1116TIP3    H127543   4.437   3.904  16.767  0.2496  0.0863  0.4826
 1116TIP3    H227544   4.400   3.787  16.856  0.1293  0.7009  1.2548
 1117TIP3   OH227545   1.761   5.441  16.386 -0.1270 -0.3935  0.5055
 1117TIP3    H127546   1.723   5.466  16.302  0.8071  1.2854  0.5378
 1117TIP3    H227547   1.777   5.524  16.431  2.8383 -0.9983  0.7904
 1118TIP3   OH227548   0.099   1.385  15.132 -0.2850 -0.1803 -0.1133
 1118TIP3    H127549   0.041   1.374  15.207 -1.3878  1.2628 -0.6991
 1118TIP3    H227550   0.148   1.465  15.151 -1.1416  0.6472 -1.2521
 1119TIP3   OH227551   4.838   1.988  15.780  0.0612 -0.3471 -0.9950
 1119TIP3    H127552   4.925   2.014  15.809 -0.7369  0.7839  0.5545
 1119TIP3    H227553   4.813   1.917  15.840  0.2886 -1.3696 -2.0771
 1120TIP3   OH227554   3.309   2.491  14.204  0.3359 -0.1827 -0.5319
 1120TIP3    H127555   3.324   2.483  14.110  1.1240  0.0755 -0.4290
 1120TIP3    H227556   3.299   2.400  14.234 -0.2831 -0.2496 -0.9118
 1121TIP3   OH227557   2.565   1.686  14.546  0.3757  0.0024 -0.5008
 1121TIP3    H127558   2.608   1.762  14.507 -0.4520  1.2363  0.9195
 1121TIP3    H227559   2.474   1.713  14.557  0.5869 -0.1948  2.4203
 1122TIP3   OH227560   6.011   2.856  14.190 -0.4275  0.5277  0.2223
 1122TIP3    H127561   5.951   2.811  14.130 -0.0119 -1.1891  1.0169
 1122TIP3    H227562   5.988   2.949  14.183 -2.0970  0.0851 -0.6623
 1123TIP3   OH227563   4.102   0.680  16.260  0.1144 -0.0030 -0.2617
 1123TIP3    H127564   4.030   0.714  16.312 -1.1047 -2.0348 -0.5359
 1123TIP3    H227565   4.073   0.689  16.169  2.0219  3.0627 -0.7029
 1124TIP3   OH227566   5.296   1.002  13.344 -0.1598  0.3224 -0.3650
 1124TIP3    H127567   5.335   0.994  13.431  0.7416 -0.9114 -0.8700
 1124TIP3    H227568   5.281   0.912  13.315  1.6342  0.5849 -2.4025
 1125TIP3   OH227569   0.440   2.283  15.279 -0.1509  0.2411 -0.2105
 1125TIP3    H127570   0.421   2.209  15.337 -0.5883  0.8365  0.4164
 1125TIP3    H227571   0.509   2.331  15.324 -1.2163  1.2935  0.3651
 1126TIP3   OH227572   4.501   1.076  16.892 -0.0444 -0.1120 -0.0108
 1126TIP3    H127573   4.475   1.043  16.806  0.0216  1.5548 -0.7146
 1126TIP3    H227574   4.517   1.169  16.878  3.0274 -0.3507  1.1216
 1127TIP3   OH227575   5.792   2.362  13.850  0.3664 -0.5090  0.2389
 1127TIP3    H127576   5.702   2.359  13.818  0.4737  0.8031 -0.2435
 1127TIP3    H227577   5.845   2.337  13.774  0.4317 -0.7788  0.3750
 1128TIP3   OH227578   3.290   0.164  14.412  0.0158  0.2143 -0.7502
 1128TIP3    H127579   3.198   0.139  14.420  0.1470 -0.4507 -1.2397
 1128TIP3    H227580   3.332   0.124  14.488 -0.3940  2.0848  0.5392
 1129TIP3   OH227581   2.971   1.517  14.941 -0.4449  0.3375  0.3513
 1129TIP3    H127582   2.981   1.424  14.923  1.5782  0.6768 -0.5291
 1129TIP3    H227583   2.956   1.521  15.036 -0.6431 -0.8803  0.3877
 1130TIP3   OH227584   3.378   3.792  16.431 -0.1029  0.3344 -0.2077
 1130TIP3    H127585   3.325   3.720  16.466  2.0361 -1.3957 -0.3383
 1130TIP3    H227586   3.388   3.772  16.338 -1.3241  2.0524 -0.7559
 1131TIP3   OH227587   3.494   3.253  15.195  0.1263  0.4402 -0.4172
 1131TIP3    H127588   3.442   3.224  15.270  0.1831 -1.1851 -0.9753
 1131TIP3    H227589   3.509   3.346  15.211 -1.0896  0.4485  0.8560
 1132TIP3   OH227590   3.886   5.005  16.835 -0.0413 -0.1561  0.0020
 1132TIP3    H127591   3.819   5.064  16.800  0.8662  1.9246  1.4856
 1132TIP3    H227592   3.920   4.959  16.759 -2.3877 -0.4843 -0.9282
 1133TIP3   OH227593   4.413   4.606  14.490  0.0420 -0.2605 -0.6758
 1133TIP3    H127594   4.483   4.661  14.526  0.5520 -1.2478 -0.0869
 1133TIP3    H227595   4.425   4.610  14.395 -0.8954  1.8523 -0.7553
 1134TIP3   OH227596   6.555   2.420  15.179  0.2081 -0.4479 -0.7323
 1134TIP3    H127597   6.594   2.359  15.242  0.1013  1.0232  0.8384
 1134TIP3    H227598   6.468   2.384  15.162 -0.1500 -0.3844  0.7783
 1135TIP3   OH227599   2.286   5.538  14.350 -0.1725 -0.0269 -0.3367
 1135TIP3    H127600   2.287   5.623  14.306  1.8335  0.0854 -0.1556
 1135TIP3    H227601   2.224   5.486  14.299  0.6013  0.7125 -2.1272
 1136TIP3   OH227602   3.659   1.100  15.132 -0.4096  0.1371  0.4147
 1136TIP3    H127603   3.726   1.101  15.064 -1.6083 -1.5843 -0.8881
 1136TIP3    H227604   3.697   1.151  15.204  1.3295  1.1395 -1.1181
 1137TIP3   OH227605   5.761   4.422  16.325 -0.3167  0.7005  0.5097
 1137TIP3    H127606   5.761   4.488  16.256  0.5805  0.3826  0.1946
 1137TIP3    H227607   5.840   4.440  16.376 -0.6368  0.5411  1.0695
 1138TIP3   OH227608   4.831   3.698  14.752 -0.0765  0.1505  0.0902
 1138TIP3    H127609   4.831   3.679  14.658  0.2862 -0.5178  0.2191
 1138TIP3    H227610   4.741   3.681  14.780 -0.3567  1.0131 -0.2579
 1139TIP3   OH227611   5.155   2.561  15.391 -0.2177 -0.3267  0.6487
 1139TIP3    H127612   5.131   2.483  15.440 -0.2148 -0.4768  0.4125
 1139TIP3    H227613   5.150   2.535  15.299 -0.5192  0.0392  0.5596
 1140TIP3   OH227614   3.888   1.201  14.487  0.2956 -0.5091  0.5919
 1140TIP3    H127615   3.803   1.231  14.519 -0.3166 -1.7248  0.1648
 1140TIP3    H227616   3.928   1.156  14.562 -0.6644 -2.3844  0.0380
 1141TIP3   OH227617   2.360   4.676  14.952 -0.6416  0.2991  0.3756
 1141TIP3    H127618   2.322   4.606  14.899 -0.9345 -0.8516  2.0404
 1141TIP3    H227619   2.312   4.754  14.927  0.9236  0.3858 -2.8985
 1142TIP3   OH227620   4.639   5.082  16.334  0.4169  0.0135  0.4631
 1142TIP3    H127621   4.642   4.998  16.288 -0.8641  0.3635 -0.3343
 1142TIP3    H227622   4.666   5.062  16.423 -2.3752 -1.8292  1.0327
 1143TIP3   OH227623   5.199   4.785  14.872 -0.1661 -0.2982 -0.1910
 1143TIP3    H127624   5.205   4.743  14.786 -0.9865 -0.7482 -0.0416
 1143TIP3    H227625   5.181   4.713  14.933 -1.2795  0.2170  0.1128
 1144TIP3   OH227626   2.302   4.589  15.329 -0.0451 -0.5824 -0.4983
 1144TIP3    H127627   2.361   4.540  15.272  1.7250  1.4824 -0.5544
 1144TIP3    H227628   2.276   4.526  15.397  2.8900 -1.3956 -0.0032
 1145TIP3   OH227629   0.146   0.983  15.757 -0.0784 -0.4075  0.6492
 1145TIP3    H127630   0.180   0.914  15.814 -0.9352  0.1108  1.8293
 1145TIP3    H227631   0.056   0.957  15.737 -0.8728  0.9643  2.1957
 1146TIP3   OH227632   5.594   2.341  16.775  0.1212  0.0330  0.4138
 1146TIP3    H127633   5.546   2.422  16.794 -0.4205 -0.2105  0.0825
 1146TIP3    H227634   5.650   2.329  16.851 -0.5309  0.1758  0.9249
 1147TIP3   OH227635   2.496   3.666  14.800  0.0387 -0.6524  0.0595
 1147TIP3    H127636   2.574   3.721  14.804  0.4837 -1.2663 -0.0667
 1147TIP3    H227637   2.528   3.581  14.771 -0.3798 -1.4766  1.8698
 1148TIP3   OH227638   5.082   6.468  12.989 -0.5332  0.3996 -0.2481
 1148TIP3    H127639   5.109   6.377  13.000 -2.2447 -0.0098  0.9924
 1148TIP3    H227640   5.001   6.464  12.939 -0.0108  1.3648 -1.2315
 1149TIP3   OH227641   3.967   3.197  16.974  0.9267  0.1302  0.3832
 1149TIP3    H127642   3.945   3.227  16.886  0.2465 -0.1669  0.4507
 1149TIP3    H227643   3.890   3.149  17.004  1.3123 -0.1334  0.9804
 1150TIP3   OH227644   2.800   2.742  13.862 -0.4000  0.2829 -0.2206
 1150TIP3    H127645   2.773   2.650  13.857  0.0478  0.0633  1.0068
 1150TIP3    H227646   2.862   2.753  13.789  0.5080 -0.7527  0.3552
 1151TIP3   OH227647   0.112   1.944  17.079 -0.5078 -0.5019  0.2321
 1151TIP3    H127648   0.206   1.951  17.092 -0.4245  0.0889 -0.6536
 1151TIP3    H227649   0.101   1.928  16.986 -1.2593 -1.2882  0.4345
 1152TIP3   OH227650   5.555   5.417  17.040  0.0869  0.3279 -0.4256
 1152TIP3    H127651   5.598   5.396  17.124 -0.5970  0.5327 -0.0195
 1152TIP3    H227652   5.478   5.361  17.038  1.3129 -1.4215 -2.0182
 1153TIP3   OH227653   2.114   4.496  14.023 -0.0886 -0.0667 -0.7081
 1153TIP3    H127654   2.078   4.566  14.077  0.3986 -0.0709 -0.3822
 1153TIP3    H227655   2.198   4.529  13.993  0.9712 -1.1848  0.8801
 1154TIP3   OH227656   4.008   0.171  16.687  0.5250  0.3333 -0.2688
 1154TIP3    H127657   4.085   0.205  16.733  2.0588 -0.1870 -2.3200
 1154TIP3    H227658   4.018   0.076  16.691 -0.4186  0.2449  0.0780
 1155TIP3   OH227659   5.071   1.898  15.054  0.5099 -1.0076  0.5780
 1155TIP3    H127660   5.030   1.902  15.141  1.0720  1.2677  0.7935
 1155TIP3    H227661   5.164   1.908  15.071  0.5144  1.0515 -0.3189
 1156TIP3   OH227662   4.364   0.699  15.217 -0.0581 -0.6952 -0.0311
 1156TIP3    H127663   4.459   0.703  15.215  0.1399 -3.0598  1.5037
 1156TIP3    H227664   4.342   0.678  15.308 -2.1186  0.4961 -0.1701
 1157TIP3   OH227665   4.394   0.751  16.279 -0.1186 -0.6376  0.0621
 1157TIP3    H127666   4.346   0.685  16.230  0.8100 -0.3145 -1.3248
 1157TIP3    H227667   4.457   0.787  16.217  1.0786 -0.1782  1.4805
 1158TIP3   OH227668   4.455   0.389  16.346  0.0518 -0.0554 -0.2529
 1158TIP3    H127669   4.512   0.348  16.411 -0.0107  0.6055  0.2188
 1158TIP3    H227670   4.378   0.418  16.395  0.5502  1.5679 -0.3571
 1159TIP3   OH227671   6.091   3.875  14.925  0.5172 -0.0829  0.1465
 1159TIP3    H127672   6.074   3.969  14.916 -1.1835 -0.3644  0.0726
 1159TIP3    H227673   6.135   3.851  14.843 -0.4892  0.3574 -0.5394
 1160TIP3   OH227674   4.475   1.231  13.521  0.3468 -0.1077  0.3665
 1160TIP3    H127675   4.475   1.139  13.497  0.5370  0.2836 -1.2384
 1160TIP3    H227676   4.384   1.259  13.509  0.2973 -0.0751  0.8129
 1161TIP3   OH227677   1.138   2.326  14.217 -0.0353  0.6495 -0.3244
 1161TIP3    H127678   1.083   2.369  14.152 -1.0185  1.1977  0.8168
 1161TIP3    H227679   1.107   2.361  14.301  1.0887 -0.1385  0.4465
 1162TIP3   OH227680   6.393   1.558  15.788 -0.6277 -0.3946 -0.9004
 1162TIP3    H127681   6.301   1.536  15.774 -0.6694 -2.1423  1.5191
 1162TIP3    H227682   6.391   1.640  15.837 -1.0917 -1.5989  1.2279
 1163TIP3   OH227683   4.472   5.395  14.516  0.5198 -0.0787 -0.6002
 1163TIP3    H127684   4.561   5.363  14.533 -0.0541 -0.6390  1.7162
 1163TIP3    H227685   4.419   5.316  14.507 -0.0862  0.2258  0.2119
 1164TIP3   OH227686   5.308   2.156  13.979 -0.2718  0.5182  0.1630
 1164TIP3    H127687   5.223   2.197  13.992  0.1196  1.6400 -0.7157
 1164TIP3    H227688   5.305   2.121  13.890  0.7216  1.9550 -0.4689
 1165TIP3   OH227689   2.030   6.228  15.615  0.2364 -0.4772 -0.3381
 1165TIP3    H127690   2.120   6.250  15.592  0.3192 -0.6240 -0.1588
 1165TIP3    H227691   2.036   6.192  15.704 -0.2069  1.0348  0.3442
 1166TIP3   OH227692   3.179   4.694  15.056 -0.0231  0.3273  0.4913
 1166TIP3    H127693   3.240   4.625  15.082 -0.6803 -0.1923  0.6535
 1166TIP3    H227694   3.236   4.762  15.019  0.5426 -0.9161 -1.0687
 1167TIP3   OH227695   1.550   6.528  15.458 -0.0990  0.3254 -0.2090
 1167TIP3    H127696   1.624   6.545  15.400  0.2867  1.3947  0.5613
 1167TIP3    H227697   1.589   6.516  15.545 -0.8745  1.9091  0.3974
 1168TIP3   OH227698   4.104   5.619  15.016 -0.2661 -0.6956  0.1049
 1168TIP3    H127699   4.015   5.632  15.048 -0.5631  0.9720 -1.2669
 1168TIP3    H227700   4.137   5.546  15.068 -1.9436 -0.4666  1.6070
 1169TIP3   OH227701   4.763   6.237  14.846  0.4334 -0.3550  0.5125
 1169TIP3    H127702   4.759   6.142  14.830  0.3324 -0.2637 -0.0129
 1169TIP3    H227703   4.811   6.245  14.929  0.4914 -0.8620  0.5337
 1170TIP3   OH227704   1.449   5.873  15.065  0.1335  0.4829 -0.2575
 1170TIP3    H127705   1.375   5.928  15.090 -0.0115  0.5994 -0.9203
 1170TIP3    H227706   1.526   5.928  15.078 -0.0600  1.1055 -1.5757
 1171TIP3   OH227707   0.267   6.108  15.566  0.1005 -0.4746  0.4997
 1171TIP3    H127708   0.177   6.118  15.599  0.1205 -2.3814  1.2860
 1171TIP3    H227709   0.285   6.014  15.575  2.1910 -0.1318  0.3875
 1172TIP3   OH227710   3.229   4.322  15.080  0.5651 -0.0431 -0.0210
 1172TIP3    H127711   3.139   4.347  15.100  0.6350 -0.4099  0.7886
 1172TIP3    H227712   3.224   4.229  15.059  0.8432 -0.2081  0.6359
 1173TIP3   OH227713   5.259   4.827  14.325  0.0214 -0.6210 -0.1754
 1173TIP3    H127714   5.248   4.891  14.255 -0.3789 -1.9218 -1.3436
 1173TIP3    H227715   5.205   4.860  14.396 -0.0245  0.4381 -0.6904
 1174TIP3   OH227716   1.128   4.697  14.965 -0.0461 -0.0999  0.3084
 1174TIP3    H127717   1.088   4.615  14.996 -1.0128  0.2198 -0.0537
 1174TIP3    H227718   1.128   4.689  14.869 -0.5631  0.5081  0.2526
 1175TIP3   OH227719   2.054   6.543  13.915  0.7872  0.2842  0.1861
 1175TIP3    H127720   2.125   6.562  13.854 -0.4609  0.8762 -1.1402
 1175TIP3    H227721   1.974   6.560  13.866 -0.2959  0.1322  1.7908
 1176TIP3   OH227722   4.413   0.917  15.578 -0.1584 -1.2440  0.2362
 1176TIP3    H127723   4.342   0.918  15.514  0.2213 -2.0547 -0.2064
 1176TIP3    H227724   4.389   0.985  15.641 -0.0483  0.2986 -1.2979
 1177TIP3   OH227725   6.394   5.131  14.270  0.4629 -0.1950 -0.1248
 1177TIP3    H127726   6.463   5.140  14.337  0.0836 -1.7544  0.5096
 1177TIP3    H227727   6.353   5.047  14.289 -1.2283  0.4317 -0.8825
 1178TIP3   OH227728   3.849   5.176  14.452 -0.0204  0.4904  0.1114
 1178TIP3    H127729   3.877   5.261  14.485 -0.3093 -0.1209  2.0301
 1178TIP3    H227730   3.833   5.123  14.530 -3.2948 -0.2627 -0.8969
 1179TIP3   OH227731   0.350   1.173  16.539  0.0412 -0.3229 -0.6578
 1179TIP3    H127732   0.425   1.150  16.594 -1.6372 -0.2037  1.8171
 1179TIP3    H227733   0.310   1.089  16.516  0.9622 -0.3985 -2.1398
 1180TIP3   OH227734   5.356   3.698  14.366  0.1431 -0.3101  0.0771
 1180TIP3    H127735   5.391   3.787  14.354 -3.1103  0.8394 -2.0129
 1180TIP3    H227736   5.297   3.706  14.441 -0.5630 -0.5556 -0.4453
 1181TIP3   OH227737   0.533   0.960  14.087 -0.0588 -0.3793  0.5704
 1181TIP3    H127738   0.575   0.890  14.037 -0.9305 -0.9344  0.5998
 1181TIP3    H227739   0.521   0.924  14.175 -1.4449 -0.5957  0.3215
 1182TIP3   OH227740   6.141   0.288  15.542  0.1437  0.4228  0.1404
 1182TIP3    H127741   6.078   0.262  15.476  1.5952  2.2953 -2.1789
 1182TIP3    H227742   6.123   0.381  15.557  2.0140  0.9011 -0.2854
 1183TIP3   OH227743   5.375   5.419  14.860  0.2890 -0.0386  0.6506
 1183TIP3    H127744   5.352   5.487  14.923  0.6768  0.2247  0.5112
 1183TIP3    H227745   5.465   5.440  14.834 -0.2788  0.5717 -0.9181
 1184TIP3   OH227746   0.006   4.090  14.301 -0.0127  0.1278 -0.3551
 1184TIP3    H127747  -0.059   4.118  14.236 -0.2198 -0.3826 -0.3759
 1184TIP3    H227748   0.082   4.145  14.285  0.0861 -0.2617 -1.3013
 1185TIP3   OH227749   3.267   3.835  17.342  0.6609 -0.4022  0.6130
 1185TIP3    H127750   3.354   3.872  17.358  0.5443  0.0081  0.3257
 1185TIP3    H227751   3.279   3.740  17.347  1.0276 -0.3344  1.0511
 1186TIP3   OH227752   6.472   0.290  15.545 -0.0089 -0.1980 -0.4186
 1186TIP3    H127753   6.381   0.263  15.532 -0.2534 -0.0839  0.9385
 1186TIP3    H227754   6.467   0.383  15.568  0.1278 -0.8565  2.7030
 1187TIP3   OH227755   1.033   1.335  14.546  0.8335 -0.3384 -0.3387
 1187TIP3    H127756   0.945   1.372  14.558  1.4089  0.4317  2.0361
 1187TIP3    H227757   1.031   1.254  14.596  1.3082 -0.6253 -0.7783
 1188TIP3   OH227758   2.082   1.060  14.868  0.4641 -0.5424 -0.2253
 1188TIP3    H127759   2.166   1.074  14.824  0.1621 -0.7207 -0.8705
 1188TIP3    H227760   2.084   0.968  14.894 -0.2074 -1.0214 -1.7415
 1189TIP3   OH227761   6.161   5.374  15.801 -0.0083  0.1674  0.1901
 1189TIP3    H127762   6.073   5.379  15.763 -0.4342  1.8901  1.2822
 1189TIP3    H227763   6.218   5.408  15.732 -0.1728 -0.9484 -0.5192
 1190TIP3   OH227764   5.271   5.618  15.023  0.2569  0.2595 -0.3982
 1190TIP3    H127765   5.325   5.690  14.990 -1.8914  0.4785 -3.9823
 1190TIP3    H227766   5.186   5.658  15.042 -0.1072 -0.8597  0.4146
 1191TIP3   OH227767   2.123   3.127  14.675  0.1039  0.0788 -0.1798
 1191TIP3    H127768   2.203   3.167  14.712 -0.3410 -0.3253  1.2911
 1191TIP3    H227769   2.152   3.088  14.593  1.3002  0.4449  0.0414
 1192TIP3   OH227770   0.480   1.445  14.228 -0.1819  0.5352  0.2937
 1192TIP3    H127771   0.403   1.436  14.172 -0.5139  1.8049  0.5148
 1192TIP3    H227772   0.446   1.433  14.317  0.2491 -0.9233  0.2933
 1193TIP3   OH227773   1.784   5.929  15.976  0.0517 -0.5466  0.0148
 1193TIP3    H127774   1.776   5.989  16.050 -0.1981 -0.8122  0.2078
 1193TIP3    H227775   1.830   5.853  16.011  1.2401 -0.0638 -0.4802
 1194TIP3   OH227776   4.461   3.945  14.104 -0.1904 -0.2395  0.7463
 1194TIP3    H127777   4.455   4.040  14.092  1.8611 -0.2136 -0.5247
 1194TIP3    H227778   4.429   3.908  14.022  0.6905 -0.5574  0.5319
 1195TIP3   OH227779   4.964   2.185  16.179  0.2965 -0.0310 -0.3556
 1195TIP3    H127780   4.881   2.142  16.199  0.5384 -0.8206 -0.9534
 1195TIP3    H227781   5.027   2.145  16.239  0.2770  0.4771  0.0123
 1196TIP3   OH227782   3.691   1.126  16.791 -0.6759 -0.3589 -0.2187
 1196TIP3    H127783   3.704   1.031  16.794  0.8019 -0.2114 -1.0584
 1196TIP3    H227784   3.634   1.141  16.716  0.5742 -0.4744 -1.2249
 1197TIP3   OH227785   4.130   1.582  13.544 -0.8965  0.1861  0.4014
 1197TIP3    H127786   4.074   1.658  13.562 -0.0662  0.8732  0.1642
 1197TIP3    H227787   4.086   1.509  13.586 -1.9292  0.7278  0.2852
 1198TIP3   OH227788   4.583   1.875  14.960 -0.0128  0.2955  0.1153
 1198TIP3    H127789   4.666   1.843  14.925 -0.6356  0.9874 -2.1362
 1198TIP3    H227790   4.589   1.970  14.954 -0.4360  0.4164  1.3087
 1199TIP3   OH227791   0.145   5.019  17.149  0.0119  0.6137 -0.4324
 1199TIP3    H127792   0.217   5.004  17.211  0.4466  1.5598 -0.6834
 1199TIP3    H227793   0.177   5.089  17.092 -1.7160  2.1906  0.4311
 1200TIP3   OH227794   1.871   4.496  15.092 -0.0375  0.6814 -0.1048
 1200TIP3    H127795   1.830   4.564  15.038 -2.2616 -0.2413  0.3399
 1200TIP3    H227796   1.858   4.526  15.182  0.1916  0.3134  0.0535
 1201TIP3   OH227797   0.758   6.339  15.055 -0.2969 -0.1297  0.2563
 1201TIP3    H127798   0.807   6.414  15.020  0.0109 -1.0372 -1.3223
 1201TIP3    H227799   0.809   6.262  15.028 -0.5344 -0.9295  1.9578
 1202TIP3   OH227800   4.813   5.062  17.029  0.0779  0.2784 -0.2872
 1202TIP3    H127801   4.859   5.090  16.950 -0.0450  0.2302 -0.3750
 1202TIP3    H227802   4.778   5.143  17.066 -2.0391  0.0574 -1.6412
 1203TIP3   OH227803   5.980   1.530  14.927  0.8140  0.6063  0.5276
 1203TIP3    H127804   6.063   1.486  14.909  0.2442 -0.0059 -0.7332
 1203TIP3    H227805   5.926   1.512  14.850 -0.8441  0.1578  1.7324
 1204TIP3   OH227806   2.475   0.352  15.103 -0.1106 -0.0583  0.2560
 1204TIP3    H127807   2.513   0.426  15.056  0.1838 -0.0973  0.4282
 1204TIP3    H227808   2.543   0.285  15.101 -0.5881 -0.5435 -0.4007
 1205TIP3   OH227809   1.617   0.843  14.667 -0.5454  0.1230  0.0330
 1205TIP3    H127810   1.598   0.769  14.609  0.2187 -0.4716  0.5281
 1205TIP3    H227811   1.697   0.882  14.632  1.1168 -1.4957  1.8316
 1206TIP3   OH227812   4.485   3.598  16.256 -0.0081 -0.2713 -0.2340
 1206TIP3    H127813   4.470   3.504  16.261  0.3266 -0.4183 -1.5197
 1206TIP3    H227814   4.408   3.637  16.298  0.9294 -1.1015  2.4150
 1207TIP3   OH227815   0.236   4.835  14.279 -0.1682  0.1770 -0.0529
 1207TIP3    H127816   0.234   4.740  14.289 -0.0509  0.0810 -0.9108
 1207TIP3    H227817   0.282   4.850  14.196 -0.9597  0.9489 -0.3691
 1208TIP3   OH227818   5.789   5.269  16.756 -0.3343  0.2055 -0.1369
 1208TIP3    H127819   5.719   5.204  16.746 -0.4368  0.3361 -0.2828
 1208TIP3    H227820   5.743   5.353  16.751  0.1228  0.3667 -2.7399
 1209TIP3   OH227821   2.068   1.628  14.361  0.1811 -0.0270  0.4102
 1209TIP3    H127822   1.994   1.574  14.332 -0.6709  1.0090  0.5623
 1209TIP3    H227823   2.145   1.588  14.322 -0.4779 -1.0883  0.1756
 1210TIP3   OH227824   3.193   5.752  13.612  0.4999 -0.3116  0.2246
 1210TIP3    H127825   3.241   5.799  13.680  1.8885  1.3640 -1.8151
 1210TIP3    H227826   3.106   5.793  13.612  0.0417 -1.1928  1.7752
 1211TIP3   OH227827   0.623   5.697  14.030 -0.4000 -0.1938  0.5307
 1211TIP3    H127828   0.577   5.780  14.017 -0.8426 -0.6649 -1.2471
 1211TIP3    H227829   0.662   5.679  13.945  1.5200 -0.7631  1.4782
 1212TIP3   OH227830   5.376   3.032  16.307  0.0917 -0.3014 -0.3495
 1212TIP3    H127831   5.380   2.940  16.281 -0.2043 -0.5744  0.5248
 1212TIP3    H227832   5.331   3.030  16.392  0.5839  0.5925 -0.0631
 1213TIP3   OH227833   5.613   5.878  16.737 -0.1234 -0.1282 -0.2369
 1213TIP3    H127834   5.580   5.954  16.690 -1.2326  0.4594  1.3952
 1213TIP3    H227835   5.676   5.915  16.800  0.8240 -0.8075 -0.7630
 1214TIP3   OH227836   3.712   0.964  17.119 -0.2531  0.6493 -0.0990
 1214TIP3    H127837   3.735   1.057  17.119 -0.3689  0.6764 -0.3683
 1214TIP3    H227838   3.792   0.920  17.091 -0.5558  0.7528 -1.1575
 1215TIP3   OH227839   4.052   1.348  15.927  0.0907  0.0566 -0.4894
 1215TIP3    H127840   3.980   1.373  15.869 -0.9742 -0.1169  0.6850
 1215TIP3    H227841   4.012   1.348  16.015  1.7795  0.9591  0.3265
 1216TIP3   OH227842   0.083   5.523  16.039 -0.1394  0.8129  0.4343
 1216TIP3    H127843   0.162   5.539  16.090 -0.7072  0.1045  1.5772
 1216TIP3    H227844   0.019   5.492  16.103 -0.2331 -2.3102 -0.9761
 1217TIP3   OH227845   1.016   5.857  16.566  0.4746 -0.3339 -0.1031
 1217TIP3    H127846   1.055   5.806  16.637  0.6742 -1.1200 -0.7614
 1217TIP3    H227847   1.032   5.805  16.488 -0.6888 -0.0100 -0.5818
 1218TIP3   OH227848   0.511   5.602  14.726 -0.6084  0.2271 -0.0169
 1218TIP3    H127849   0.465   5.679  14.692 -0.6336 -0.2946 -1.1928
 1218TIP3    H227850   0.537   5.553  14.649 -0.3399 -0.8154  0.7105
 1219TIP3   OH227851   5.936   5.499  13.703  0.1051  0.1981  0.2752
 1219TIP3    H127852   5.973   5.586  13.686 -0.4444  0.6019  1.0803
 1219TIP3    H227853   5.841   5.513  13.704  0.0387 -0.2674  1.1380
 1220TIP3   OH227854   5.267   0.813  17.035  0.0323  0.6580  0.5374
 1220TIP3    H127855   5.194   0.863  17.073 -2.0368  0.4333 -2.7559
 1220TIP3    H227856   5.336   0.877  17.021 -1.7220  2.2488 -1.4965
 1221TIP3   OH227857   2.320   1.806  14.264  0.1193  0.8608 -0.9934
 1221TIP3    H127858   2.341   1.748  14.337 -1.6584  0.9160 -0.4132
 1221TIP3    H227859   2.358   1.762  14.188  0.2322 -0.2157 -0.3359
 1222TIP3   OH227860   0.133   6.542  15.633  0.2970  0.6141 -0.0172
 1222TIP3    H127861   0.207   6.511  15.685  2.7512  2.6549 -2.0238
 1222TIP3    H227862   0.103   6.464  15.586 -1.0613 -0.9419  3.1527
 1223TIP3   OH227863   5.187   1.070  15.213  0.5167 -0.4780 -0.0189
 1223TIP3    H127864   5.208   1.036  15.299 -0.8305  0.8178  0.8814
 1223TIP3    H227865   5.259   1.042  15.157  2.4393  0.2748  1.9445
 1224TIP3   OH227866   4.173   4.373  16.207 -0.3785 -0.2283 -0.2638
 1224TIP3    H127867   4.118   4.447  16.181 -1.6847 -1.2351 -0.4678
 1224TIP3    H227868   4.246   4.376  16.145  1.0480  2.4256  1.3662
 1225TIP3   OH227869   3.502   2.376  13.373 -0.5140  0.4170 -0.4245
 1225TIP3    H127870   3.503   2.283  13.393 -1.8149  1.0039  3.2063
 1225TIP3    H227871   3.417   2.392  13.333 -0.6810  0.1834 -0.1614
 1226TIP3   OH227872   1.061   6.277  15.370 -0.2771  0.4449  0.1813
 1226TIP3    H127873   1.054   6.187  15.403  1.4060  0.7249  1.4157
 1226TIP3    H227874   0.973   6.296  15.336 -1.1131 -1.1291  1.2867
 1227TIP3   OH227875   6.256   5.957  14.032 -0.5608 -0.0110 -0.0457
 1227TIP3    H127876   6.332   5.933  13.978 -0.5485  2.7880 -1.4152
 1227TIP3    H227877   6.288   5.948  14.122  0.7602 -0.7796 -0.5546
 1228TIP3   OH227878   1.438   1.547  14.660  0.1979 -0.7672 -0.0664
 1228TIP3    H127879   1.345   1.562  14.678  0.0993  0.4459 -1.3522
 1228TIP3    H227880   1.438   1.485  14.586  0.4669 -1.8249  0.7944
 1229TIP3   OH227881   3.653   2.210  15.725  0.0992 -0.3824 -0.0231
 1229TIP3    H127882   3.599   2.156  15.783 -0.3387  0.3826  0.2888
 1229TIP3    H227883   3.716   2.252  15.782 -0.3120  0.3472 -0.0915
 1230TIP3   OH227884   3.992   0.037  15.972  0.2384 -0.5222  0.3061
 1230TIP3    H127885   3.977   0.100  16.042 -0.7712  1.1039 -1.2605
 1230TIP3    H227886   3.952   0.078  15.895  3.4546 -0.9535 -1.8174
 1231TIP3   OH227887   6.277   3.817  15.745 -0.2320  0.1069  0.1237
 1231TIP3    H127888   6.328   3.753  15.695 -0.6377 -0.0152 -0.1401
 1231TIP3    H227889   6.331   3.896  15.746  0.5147 -0.4030  0.9206
 1232TIP3   OH227890   5.260   0.827  14.144  0.0138 -0.0385  0.6203
 1232TIP3    H127891   5.331   0.779  14.187  0.1577 -0.5521 -0.1680
 1232TIP3    H227892   5.257   0.912  14.188 -0.7106 -0.9998  2.5396
 1233TIP3   OH227893   1.385   3.018  14.366  0.1176  0.2539 -0.5980
 1233TIP3    H127894   1.303   3.064  14.350 -0.1098  0.2523  0.4638
 1233TIP3    H227895   1.435   3.077  14.422  1.1844  0.5966 -1.8752
 1234TIP3   OH227896   1.325   4.696  14.529  0.4548 -0.4356 -0.4894
 1234TIP3    H127897   1.413   4.703  14.490  1.0543 -0.1276  0.8565
 1234TIP3    H227898   1.267   4.731  14.462  1.5802  1.1847 -0.6853
 1235TIP3   OH227899   0.321   3.348  13.670  0.1264 -0.8023 -0.0477
 1235TIP3    H127900   0.401   3.392  13.698 -0.7085  0.2512  0.7516
 1235TIP3    H227901   0.350   3.288  13.601  1.4986  0.0148 -0.2195
 1236TIP3   OH227902   2.554   3.482  16.575 -1.1327  0.5072  0.3391
 1236TIP3    H127903   2.465   3.510  16.593 -0.7862  1.2716  0.9372
 1236TIP3    H227904   2.548   3.387  16.566 -1.3990 -0.0787  4.6022
 1237TIP3   OH227905   5.494   6.553  15.001 -0.4172  0.3762  0.4012
 1237TIP3    H127906   5.586   6.577  15.013 -0.5729  0.3608  1.8447
 1237TIP3    H227907   5.488   6.523  14.910  1.4555 -1.5690  0.8425
 1238TIP3   OH227908   1.796   4.547  16.356 -0.1341  0.2825 -0.2252
 1238TIP3    H127909   1.845   4.624  16.386  0.9430 -0.7366  0.7312
 1238TIP3    H227910   1.863   4.482  16.337 -1.0587 -0.6369 -0.4283
 1239TIP3   OH227911   3.260   0.894  16.846  0.1423  0.3044  0.3046
 1239TIP3    H127912   3.303   0.980  16.840 -1.0699  0.8941 -0.3633
 1239TIP3    H227913   3.184   0.909  16.903 -0.2060 -0.2586 -0.0018
 1240TIP3   OH227914   1.579   0.658  15.022 -0.5728 -0.3596  0.3304
 1240TIP3    H127915   1.491   0.663  14.987 -0.1992 -1.7365 -0.9187
 1240TIP3    H227916   1.609   0.570  14.998  0.1709 -0.9478  3.0697
 1241TIP3   OH227917   2.872   2.912  13.514  0.1434 -0.2375 -0.0886
 1241TIP3    H127918   2.919   2.860  13.579  0.1917 -1.4014 -1.0204
 1241TIP3    H227919   2.839   2.848  13.451 -1.6973  0.6556 -0.1067
 1242TIP3   OH227920   0.997   1.474  16.885 -0.1370  0.7296 -0.2533
 1242TIP3    H127921   0.972   1.401  16.827 -0.2398  0.2907  0.3358
 1242TIP3    H227922   0.915   1.520  16.903 -0.2612  0.2946  0.3138
 1243TIP3   OH227923   3.795   5.458  15.460  0.0487 -0.0401  0.1306
 1243TIP3    H127924   3.888   5.463  15.438  0.2958 -2.0913  0.5543
 1243TIP3    H227925   3.764   5.549  15.452  2.0218  0.6584 -0.1902
 1244TIP3   OH227926   0.379   1.803  15.470  0.6610  0.2538  0.2750
 1244TIP3    H127927   0.439   1.840  15.534  0.0201  0.5720  0.6996
 1244TIP3    H227928   0.377   1.710  15.490  0.0413  0.4260  1.0923
 1245TIP3   OH227929   6.225   6.615  15.168 -0.4713 -0.2906 -0.2706
 1245TIP3    H127930   6.252   6.659  15.249 -0.3272  0.3639 -0.6707
 1245TIP3    H227931   6.307   6.596  15.123 -0.4405 -2.1270  0.4776
 1246TIP3   OH227932   5.105   3.897  14.986  0.1718 -0.0371  0.4858
 1246TIP3    H127933   5.193   3.900  15.022  0.1251 -0.0958  0.6073
 1246TIP3    H227934   5.116   3.917  14.894  0.4391 -1.0942  0.2696
 1247TIP3   OH227935   2.462   2.405  16.583  0.5690  0.3252 -0.4046
 1247TIP3    H127936   2.399   2.477  16.588 -0.2814 -0.4578  0.3016
 1247TIP3    H227937   2.428   2.348  16.515 -1.4194 -1.8458  2.1861
 1248TIP3   OH227938   2.876   0.016  16.450  0.4044 -0.3951  0.4699
 1248TIP3    H127939   2.796   0.068  16.462 -0.9345 -1.6858 -2.1587
 1248TIP3    H227940   2.878  -0.041  16.527 -0.6277  0.3279  1.0742
 1249TIP3   OH227941   0.936   5.139  15.872 -0.0266  0.2450 -0.0683
 1249TIP3    H127942   0.899   5.145  15.960 -0.6435 -0.3929 -0.2776
 1249TIP3    H227943   0.900   5.058  15.836  0.8177  0.1048 -0.6352
 1250TIP3   OH227944   2.477   5.412  15.125  0.1463 -0.1601  0.0123
 1250TIP3    H127945   2.397   5.417  15.073 -0.5075 -0.0532  1.0024
 1250TIP3    H227946   2.544   5.456  15.072 -0.6167  0.3668 -0.5218
 1251TIP3   OH227947   1.146   4.227  16.289 -0.3236 -0.7613 -0.2186
 1251TIP3    H127948   1.150   4.216  16.384  0.4592  1.5806  0.0834
 1251TIP3    H227949   1.237   4.231  16.261 -0.5395 -1.9587 -1.1778
 1252TIP3   OH227950   1.280   1.038  15.961 -0.0808 -0.0349 -0.0325
 1252TIP3    H127951   1.254   0.982  15.888 -0.2309  1.8214 -1.4756
 1252TIP3    H227952   1.332   0.981  16.018 -0.8821 -1.8208 -1.0056
 1253TIP3   OH227953   1.073   2.073  14.262  0.2339 -0.2741 -0.1049
 1253TIP3    H127954   1.154   2.026  14.242  0.7568  0.8225 -0.6039
 1253TIP3    H227955   1.096   2.165  14.259 -0.7263  0.0368  1.1207
 1254TIP3   OH227956   2.583   6.185  16.749  0.6059 -0.2017  0.2114
 1254TIP3    H127957   2.570   6.276  16.724 -1.0044  0.1185  2.0005
 1254TIP3    H227958   2.495   6.151  16.762  1.2320 -1.1894  2.2958
 1255TIP3   OH227959   1.841   6.357  14.434  0.2220 -0.4397 -0.0795
 1255TIP3    H127960   1.829   6.420  14.362  0.8787 -0.1542  0.0540
 1255TIP3    H227961   1.773   6.291  14.419 -1.0182  0.7154  0.2460
 1256TIP3   OH227962   0.158   2.349  16.209 -0.1498 -0.6506  0.0421
 1256TIP3    H127963   0.234   2.348  16.268  0.1892 -0.1493 -0.3704
 1256TIP3    H227964   0.102   2.279  16.240  0.5878 -1.1705  0.2220
 1257TIP3   OH227965   2.019   1.625  15.896 -0.3084 -0.2026 -0.6584
 1257TIP3    H127966   1.991   1.678  15.822  1.2749  2.1506  0.3061
 1257TIP3    H227967   2.113   1.642  15.905 -0.1530 -1.5893  0.9733
 1258TIP3   OH227968   0.145   0.321  15.226  0.0973 -0.4552 -0.1715
 1258TIP3    H127969   0.094   0.251  15.186  0.2103 -0.4061 -0.4067
 1258TIP3    H227970   0.216   0.276  15.272 -0.4314 -0.5524  0.5715
 1259TIP3   OH227971   2.750   4.067  15.619  0.7562  0.3149  0.2554
 1259TIP3    H127972   2.741   4.071  15.714 -0.4088 -0.1686  0.1747
 1259TIP3    H227973   2.718   3.981  15.594  1.0142  0.4449 -0.5828
 1260TIP3   OH227974   6.526   2.040  16.091 -0.3397  0.3914  0.6920
 1260TIP3    H127975   6.613   2.010  16.118  1.2285  2.6835 -1.3940
 1260TIP3    H227976   6.472   2.034  16.170  0.6199 -4.4070  1.3080
 1261TIP3   OH227977   3.868   6.125  15.235  0.6491 -0.1330  0.6101
 1261TIP3    H127978   3.897   6.036  15.214 -0.9184 -0.3569 -0.8577
 1261TIP3    H227979   3.773   6.118  15.243  0.5325  1.3579  0.8504
 1262TIP3   OH227980   6.705   0.711  16.459 -0.5742  0.1233 -0.2358
 1262TIP3    H127981   6.630   0.651  16.456  0.0476 -0.6301 -0.9846
 1262TIP3    H227982   6.758   0.678  16.532 -0.8404  0.5062  0.1356
 1263TIP3   OH227983   1.167   2.275  16.458 -0.0661  0.2265 -0.3443
 1263TIP3    H127984   1.161   2.297  16.551  0.2315  0.9505 -0.4865
 1263TIP3    H227985   1.241   2.327  16.427  1.7302 -2.1751 -0.3748
 1264TIP3   OH227986   5.745   5.699  13.480  0.8424  0.2579 -1.0441
 1264TIP3    H127987   5.838   5.712  13.467  1.3681 -1.2548  0.7464
 1264TIP3    H227988   5.738   5.613  13.523 -1.3078  0.6453 -0.4847
 1265TIP3   OH227989   2.421   0.346  15.998 -0.2906  0.1435  1.0524
 1265TIP3    H127990   2.486   0.279  16.021 -0.2658 -0.3401 -0.3815
 1265TIP3    H227991   2.457   0.390  15.921 -2.0117 -0.6940 -0.2985
 1266TIP3   OH227992   1.826   6.527  15.036  0.2650  0.1140 -0.6858
 1266TIP3    H127993   1.790   6.573  15.111 -0.8884  0.2063 -1.2662
 1266TIP3    H227994   1.852   6.596  14.975  1.2055  0.0416 -0.3748
 1267TIP3   OH227995   4.783   1.420  16.894 -0.3201 -0.2360  0.2985
 1267TIP3    H127996   4.828   1.430  16.809  3.4467 -3.4671  1.5716
 1267TIP3    H227997   4.834   1.473  16.955 -2.3073  1.1563  0.8315
 1268TIP3   OH227998   0.512   2.235  16.222  0.4907  0.0783  0.0131
 1268TIP3    H127999   0.526   2.330  16.230  0.5094 -0.0659  2.8491
 1268TIP3    H228000   0.429   2.219  16.267  0.4935 -1.2595 -0.4124
 1269TIP3   OH228001   3.922   4.005  16.911  0.0973  0.1521  0.6546
 1269TIP3    H128002   3.983   3.994  16.838 -1.4155  0.3196 -0.6938
 1269TIP3    H228003   3.873   3.923  16.914 -1.2861  0.9263  0.0794
 1270TIP3   OH228004   0.315   1.880  14.323  0.0851 -0.3130 -0.3106
 1270TIP3    H128005   0.250   1.818  14.290  0.9690 -0.7581 -1.2661
 1270TIP3    H228006   0.399   1.838  14.305  0.6955  1.0214 -0.6480
 1271TIP3   OH228007   2.292   6.651  16.840 -0.7177 -0.1862 -0.5025
 1271TIP3    H128008   2.363   6.700  16.880  1.0653 -2.4300 -0.7583
 1271TIP3    H228009   2.276   6.696  16.756 -0.4474  1.0303  0.0796
 1272TIP3   OH228010   3.193   4.770  15.946  0.4665  0.6656 -0.2016
 1272TIP3    H128011   3.122   4.754  16.008 -0.2288 -0.4620 -1.2323
 1272TIP3    H228012   3.272   4.770  16.000  0.0023 -1.4675  0.5930
 1273TIP3   OH228013   5.232   2.177  14.479 -0.2360 -0.3165 -0.2928
 1273TIP3    H128014   5.139   2.154  14.485 -0.5156  0.2790 -1.8597
 1273TIP3    H228015   5.261   2.137  14.397  1.5360 -2.5022  1.2777
 1274TIP3   OH228016   2.996   4.473  14.967 -0.3591  0.0132 -0.1187
 1274TIP3    H128017   3.052   4.460  14.891  0.3045 -0.1521  0.3834
 1274TIP3    H228018   3.046   4.532  15.023 -0.4808 -0.5020  0.5465
 1275TIP3   OH228019   2.897   0.700  16.075  0.7007 -0.3187 -0.3893
 1275TIP3    H128020   2.964   0.634  16.094 -0.9490 -2.4029 -1.4583
 1275TIP3    H228021   2.908   0.720  15.982  0.9538  0.7061 -0.1605
 1276TIP3   OH228022   3.202   3.403  16.697 -0.3818  0.0601  0.5368
 1276TIP3    H128023   3.192   3.352  16.617  0.1513  1.3020 -0.3496
 1276TIP3    H228024   3.138   3.365  16.758  0.1518 -1.7947  0.0129
 1277TIP3   OH228025   2.266   0.941  16.845 -0.2863 -0.1691 -0.5628
 1277TIP3    H128026   2.342   0.968  16.792 -0.7829 -0.8579 -1.6728
 1277TIP3    H228027   2.217   0.882  16.788 -1.1280 -0.5389  0.5074
 1278TIP3   OH228028   6.316   0.505  13.794  0.1589 -0.0991 -0.0658
 1278TIP3    H128029   6.268   0.442  13.741  1.8918 -0.8490 -0.8410
 1278TIP3    H228030   6.295   0.590  13.754 -1.6172 -0.2163  0.5354
 1279TIP3   OH228031   5.116   3.757  15.468  0.0328  0.0185  0.4172
 1279TIP3    H128032   5.071   3.803  15.397  0.2237 -2.5528 -1.5138
 1279TIP3    H228033   5.048   3.740  15.533 -0.3786  1.4979  0.4003
 1280TIP3   OH228034   1.341   0.973  13.641  0.3916 -0.4342 -0.5419
 1280TIP3    H128035   1.338   0.894  13.695  1.4146  0.1739  0.4456
 1280TIP3    H228036   1.306   0.946  13.556  0.8917 -1.9878 -0.2764
 1281TIP3   OH228037   0.615   0.464  15.008  0.0956  0.5520 -0.3087
 1281TIP3    H128038   0.698   0.490  15.048  0.5587 -0.1695 -0.7723
 1281TIP3    H228039   0.594   0.380  15.049 -1.2220  1.4513  0.9478
 1282TIP3   OH228040   2.764   2.916  15.332  0.0631  0.4372  0.1088
 1282TIP3    H128041   2.838   2.897  15.275 -1.0172  0.0949 -1.2242
 1282TIP3    H228042   2.699   2.958  15.275 -0.6969  0.9442  1.2862
 1283TIP3   OH228043   3.061   5.886  15.236  0.1786 -0.2803  0.2754
 1283TIP3    H128044   3.103   5.894  15.151  1.0139 -0.6020  0.6432
 1283TIP3    H228045   3.064   5.792  15.255 -0.8176 -0.3241  0.2591
 1284TIP3   OH228046   2.647   1.738  15.346 -0.4486 -0.4518 -0.1090
 1284TIP3    H128047   2.709   1.742  15.273  0.5379 -0.1290  0.7106
 1284TIP3    H228048   2.680   1.803  15.408 -1.6449 -0.2550  0.3408
 1285TIP3   OH228049   4.638   5.095  15.134 -0.0632  0.0776 -0.0474
 1285TIP3    H128050   4.695   5.019  15.125  1.1958  1.0401 -0.3876
 1285TIP3    H228051   4.641   5.116  15.227  1.1380  0.8651 -0.2516
 1286TIP3   OH228052   0.865   2.516  14.749  0.0817 -0.0761  0.3215
 1286TIP3    H128053   0.860   2.605  14.715 -0.6586 -1.0785 -2.4959
 1286TIP3    H228054   0.774   2.490  14.764  0.3398 -0.0819  1.9737
 1287TIP3   OH228055   3.561   2.968  15.630 -0.1041  0.0068 -0.3050
 1287TIP3    H128056   3.648   2.947  15.664  0.2331  1.4299 -0.2195
 1287TIP3    H228057   3.516   3.010  15.703 -0.3537  0.5636 -0.7677
 1288TIP3   OH228058   5.564   4.798  14.207 -0.5183  0.1710 -0.1308
 1288TIP3    H128059   5.610   4.778  14.289 -1.0596  0.2035  0.1832
 1288TIP3    H228060   5.483   4.747  14.213  0.3273 -1.4324 -1.5349
 1289TIP3   OH228061   4.917   5.225  15.967  0.3996 -0.2272 -0.0843
 1289TIP3    H128062   4.854   5.229  16.039 -0.5717 -1.9706 -0.7590
 1289TIP3    H228063   4.974   5.151  15.989  2.0817  1.1531  0.3770
 1290TIP3   OH228064   3.594   2.927  16.129 -0.1571  0.4012 -0.0389
 1290TIP3    H128065   3.557   2.947  16.043 -2.8183  0.7999  1.1107
 1290TIP3    H228066   3.643   3.006  16.153  0.2295  0.4559 -0.9581
 1291TIP3   OH228067   3.281   3.667  16.925  0.2918  0.0393 -0.3683
 1291TIP3    H128068   3.261   3.714  16.845  2.3567  1.5136 -0.0794
 1291TIP3    H228069   3.246   3.722  16.995  0.2759 -0.2468 -0.1452
 1292TIP3   OH228070   2.995   4.200  14.764 -0.5196  0.1848 -1.2413
 1292TIP3    H128071   3.072   4.243  14.727 -0.3188  2.9851  1.9260
 1292TIP3    H228072   3.030   4.143  14.833 -1.1657  0.3849 -0.7361
 1293TIP3   OH228073   5.565   0.030  15.411  0.0536 -0.4313  0.1826
 1293TIP3    H128074   5.513  -0.043  15.376  1.7253 -2.5979  1.9422
 1293TIP3    H228075   5.500   0.090  15.448 -1.3563 -1.1747 -0.9669
 1294TIP3   OH228076   4.766   2.429  14.245 -0.3266 -0.2294  0.2616
 1294TIP3    H128077   4.807   2.493  14.303 -0.7735  0.2540  0.0475
 1294TIP3    H228078   4.704   2.479  14.193  0.3696 -0.5799 -0.9478
 1295TIP3   OH228079   1.308   1.523  15.947  0.3893  0.0554 -0.8952
 1295TIP3    H128080   1.300   1.613  15.978 -1.8045 -1.0618  2.3766
 1295TIP3    H228081   1.276   1.526  15.857  0.2502  2.5027 -0.8311
 1296TIP3   OH228082   0.996   3.747  15.587 -0.2513  0.1480 -0.4565
 1296TIP3    H128083   1.004   3.830  15.633  1.1458  0.1257 -0.6003
 1296TIP3    H228084   0.914   3.709  15.618  0.1659  0.5790  1.2584
 1297TIP3   OH228085   3.505   1.800  16.054  0.2435 -0.0482  0.2929
 1297TIP3    H128086   3.461   1.735  16.108 -0.2711  0.6683  0.7566
 1297TIP3    H228087   3.578   1.753  16.014  0.8787 -0.5189  1.9121
 1298TIP3   OH228088   5.790   3.921  15.569 -0.0186  0.1142  0.1813
 1298TIP3    H128089   5.795   3.926  15.665 -3.1099  1.2832  0.3758
 1298TIP3    H228090   5.784   4.012  15.540 -1.0856 -0.2831 -0.9348
 1299TIP3   OH228091   0.781   2.573  13.830  0.1466 -0.0936  0.0758
 1299TIP3    H128092   0.701   2.525  13.807 -0.6844  1.2405  0.0540
 1299TIP3    H228093   0.756   2.665  13.823  1.4320  0.3520  0.9945
 1300TIP3   OH228094   4.427   0.347  15.329 -0.3252 -0.1660 -0.0942
 1300TIP3    H128095   4.360   0.305  15.276 -0.3994  0.0681 -0.1859
 1300TIP3    H228096   4.385   0.424  15.365  0.2930  0.7909 -1.3158
 1301TIP3   OH228097   4.978   4.693  13.633 -0.6841  0.0972  0.1333
 1301TIP3    H128098   5.062   4.704  13.677 -1.3170  0.0069  1.3941
 1301TIP3    H228099   4.940   4.781  13.630 -1.5336 -0.1902  1.6305
 1302TIP3   OH228100   4.158   2.815  16.308  0.3209  0.2594  0.5182
 1302TIP3    H128101   4.111   2.848  16.231  0.6052 -1.6128 -0.5201
 1302TIP3    H228102   4.144   2.721  16.305  3.1150 -0.2340  0.8818
 1303TIP3   OH228103   5.673   0.152  14.127  0.1935  0.7615  0.3495
 1303TIP3    H128104   5.691   0.220  14.191  0.2189 -0.2623  1.4509
 1303TIP3    H228105   5.681   0.070  14.175 -3.4243  0.0374  0.0035
 1304TIP3   OH228106   6.628   4.809  16.358 -0.1132  1.1738  0.0875
 1304TIP3    H128107   6.625   4.833  16.266  0.1159  1.6130  0.1889
 1304TIP3    H228108   6.579   4.878  16.403 -0.8093  0.5951  0.2223
 1305TIP3   OH228109   2.924   5.426  16.531  0.0283 -0.3890  0.0063
 1305TIP3    H128110   2.895   5.471  16.610  1.5121 -1.0880  1.0133
 1305TIP3    H228111   2.844   5.401  16.486 -1.0080 -2.4847  2.7352
 1306TIP3   OH228112   1.236   3.572  15.621 -0.4308  0.0368 -0.4918
 1306TIP3    H128113   1.286   3.636  15.570 -0.7222  1.8262  1.3648
 1306TIP3    H228114   1.145   3.602  15.614 -0.7421 -0.8889 -0.5776
 1307TIP3   OH228115   3.708   1.362  14.657 -0.3603 -0.5486 -0.7886
 1307TIP3    H128116   3.779   1.326  14.710 -1.0817 -1.5489 -0.4789
 1307TIP3    H228117   3.628   1.332  14.700 -0.9701 -1.1619 -2.2932
 1308TIP3   OH228118   0.692   0.173  16.511 -0.2798  0.1575 -0.3038
 1308TIP3    H128119   0.715   0.242  16.448  0.3701 -0.3744 -0.6544
 1308TIP3    H228120   0.628   0.119  16.465  0.1861 -0.2243 -0.5149
 1309TIP3   OH228121   5.960   2.324  16.773 -0.1415 -0.1606  0.5425
 1309TIP3    H128122   5.893   2.390  16.754  0.4661  0.4584  0.5150
 1309TIP3    H228123   5.935   2.289  16.859 -2.3465 -2.2829 -0.8474
 1310TIP3   OH228124   3.992   4.923  15.943  0.2604 -0.0978 -0.0387
 1310TIP3    H128125   3.938   4.915  16.022 -1.0058 -0.0276 -0.8666
 1310TIP3    H228126   3.992   4.835  15.905 -0.6638  0.2611 -0.9073
 1311TIP3   OH228127   2.635   4.799  14.849  0.6575  0.5963 -0.4304
 1311TIP3    H128128   2.617   4.891  14.868 -1.6471  0.1274 -0.0270
 1311TIP3    H228129   2.622   4.791  14.755 -0.7912  0.3964 -0.2360
 1312TIP3   OH228130   5.485   0.300  13.640  0.2330  0.3382  0.5145
 1312TIP3    H128131   5.411   0.273  13.586  0.2954  1.3555 -0.0868
 1312TIP3    H228132   5.554   0.237  13.619  0.0411  0.3223 -0.0833
 1313TIP3   OH228133   2.698   5.398  14.480 -0.4274 -0.5845  0.1169
 1313TIP3    H128134   2.689   5.385  14.385 -0.5746 -0.8915  0.1720
 1313TIP3    H228135   2.793   5.398  14.495 -0.3554  0.8534 -0.2156
 1314TIP3   OH228136   0.786   4.592  15.724 -0.0786  0.4333 -0.5173
 1314TIP3    H128137   0.874   4.624  15.745 -0.8135  2.7325 -0.7147
 1314TIP3    H228138   0.764   4.636  15.642 -1.6581  0.3454 -0.1559
 1315TIP3   OH228139   4.953   6.601  15.981  0.0357 -0.2535  0.5920
 1315TIP3    H128140   4.941   6.614  15.887  0.0784 -0.1567  0.6001
 1315TIP3    H228141   5.007   6.522  15.987  0.1767 -0.1621  0.5307
 1316TIP3   OH228142   6.029   5.669  15.744  0.1585  0.2124  0.2098
 1316TIP3    H128143   5.939   5.638  15.747  0.2304 -0.1399 -0.9404
 1316TIP3    H228144   6.027   5.752  15.793 -0.9433  0.5646 -0.3900
 1317TIP3   OH228145   5.416   0.813  16.158  0.0832  0.3955 -0.4724
 1317TIP3    H128146   5.486   0.825  16.095 -0.6946 -0.6721 -1.5952
 1317TIP3    H228147   5.411   0.718  16.170  1.0510  0.6051  2.2187
 1318TIP3   OH228148   4.775   0.292  14.282 -0.3687  0.5102  0.2102
 1318TIP3    H128149   4.852   0.348  14.276 -0.9608  1.4587  1.0115
 1318TIP3    H228150   4.808   0.209  14.314  0.4423  0.5954 -0.3674
 1319TIP3   OH228151   2.783   2.159  15.590 -0.6944  0.0771 -0.5434
 1319TIP3    H128152   2.842   2.110  15.532 -0.2576  1.0288 -0.9267
 1319TIP3    H228153   2.819   2.247  15.592 -2.2546  0.7659 -1.0152
 1320TIP3   OH228154   4.158   5.406  15.546  0.1285 -0.2476  0.3933
 1320TIP3    H128155   4.215   5.432  15.619 -0.1515 -0.3152  0.6397
 1320TIP3    H228156   4.143   5.313  15.560 -0.1674 -0.1970  0.4188
 1321TIP3   OH228157   5.409   0.060  16.185  0.0401 -0.0541  0.1588
 1321TIP3    H128158   5.441   0.084  16.099 -2.0415  2.9653  0.0689
 1321TIP3    H228159   5.318   0.091  16.187 -0.6857 -1.9129  2.7263
 1322TIP3   OH228160   1.670   5.126  16.771  0.0818  0.0378  0.3928
 1322TIP3    H128161   1.599   5.119  16.836 -0.4774 -0.7955 -0.2890
 1322TIP3    H228162   1.635   5.185  16.704  0.5042  0.5752  0.6372
 1323TIP3   OH228163   1.399   3.738  15.901  0.6363  0.0680 -0.2831
 1323TIP3    H128164   1.410   3.652  15.861 -0.3115  0.3408 -1.1811
 1323TIP3    H228165   1.399   3.720  15.995 -3.7208 -1.6295 -0.3662
 1324TIP3   OH228166   3.060   5.155  14.909  0.6600  0.0805 -0.1922
 1324TIP3    H128167   3.016   5.070  14.907  1.2208 -0.3165  1.6867
 1324TIP3    H228168   3.021   5.204  14.838  0.3657 -1.7673 -1.3850
 1325TIP3   OH228169   1.976   3.479  15.533  0.2439 -0.5614  0.0265
 1325TIP3    H128170   1.930   3.553  15.495 -1.1436 -1.1519  0.4920
 1325TIP3    H228171   2.007   3.510  15.618 -0.8910 -0.6956  0.4970
 1326TIP3   OH228172   6.530   3.132  16.058  0.4535  0.1570  0.5644
 1326TIP3    H128173   6.601   3.180  16.015 -0.8742  1.1735 -0.5795
 1326TIP3    H228174   6.476   3.098  15.987 -1.2732  1.0663  1.3730
 1327TIP3   OH228175   5.175   1.003  15.605 -0.0398  0.3720 -0.0300
 1327TIP3    H128176   5.231   0.946  15.657 -1.0296 -0.9718 -0.3966
 1327TIP3    H228177   5.161   0.956  15.523 -1.1507  0.9725 -0.2107
 1328TIP3   OH228178   0.159   2.885  15.198 -0.0630  0.7066  0.5297
 1328TIP3    H128179   0.161   2.830  15.276  0.5034 -1.5309 -0.9639
 1328TIP3    H228180   0.071   2.921  15.196 -1.0647 -1.5935  0.6591
 1329TIP3   OH228181   5.522   4.888  16.019  0.1478  0.6714  0.1222
 1329TIP3    H128182   5.445   4.945  16.016  0.2784  0.8917  0.8178
 1329TIP3    H228183   5.489   4.802  15.993 -0.1183  0.9864 -0.6105
 1330TIP3   OH228184   1.363   0.632  16.627 -0.3734  0.3713 -0.1454
 1330TIP3    H128185   1.366   0.556  16.686 -0.3647  1.3357  1.1644
 1330TIP3    H228186   1.450   0.635  16.588  0.0812  0.4650  0.8310
 1331TIP3   OH228187   1.335   4.982  14.435  0.2795  0.2295 -0.7184
 1331TIP3    H128188   1.376   4.976  14.348  1.4007 -1.9901 -0.1140
 1331TIP3    H228189   1.303   4.893  14.452 -0.3577  0.7455  0.9431
 1332TIP3   OH228190   1.689   1.832  15.431 -0.3131 -0.3797 -0.2537
 1332TIP3    H128191   1.700   1.738  15.438 -0.1600 -0.4753 -1.5059
 1332TIP3    H228192   1.775   1.864  15.402 -0.5246  0.0619 -0.4106
 1333TIP3   OH228193   4.026   2.282  16.259 -0.4274 -0.3715 -0.2160
 1333TIP3    H128194   4.059   2.221  16.193 -3.5227  1.6040 -4.0246
 1333TIP3    H228195   3.948   2.238  16.295 -1.6274  0.4769 -1.6659
 1334TIP3   OH228196   6.215   0.070  16.567 -0.2608  0.1088  0.3390
 1334TIP3    H128197   6.135   0.053  16.616 -0.1041  0.0346  0.5688
 1334TIP3    H228198   6.266   0.128  16.623 -0.6109  1.0106 -0.2604
 1335TIP3   OH228199   5.163   6.204  15.406  0.1898  0.0383 -0.6579
 1335TIP3    H128200   5.194   6.180  15.319 -0.5042 -0.8672 -0.6657
 1335TIP3    H228201   5.218   6.154  15.466  2.6929  2.8571 -0.3890
 1336TIP3   OH228202   3.982   3.976  13.794 -0.2416 -0.3653 -0.9825
 1336TIP3    H128203   3.898   3.939  13.821 -0.6602  0.7706 -0.6605
 1336TIP3    H228204   4.021   3.909  13.738 -0.2100 -1.9899  0.8786
 1337TIP3   OH228205   0.376   4.676  14.561 -0.4810 -0.1441  0.0916
 1337TIP3    H128206   0.342   4.586  14.558 -0.8724  0.0125 -0.4841
 1337TIP3    H228207   0.440   4.679  14.489 -0.7280  0.1320 -0.1204
 1338TIP3   OH228208   0.869   6.587  14.992 -0.7176 -0.1172 -0.2649
 1338TIP3    H128209   0.893   6.624  15.077 -1.1584 -0.2130 -0.0976
 1338TIP3    H228210   0.951   6.584  14.943 -0.2999 -0.8433  0.4514
 1339TIP3   OH228211   5.194   0.313  15.750 -0.2623 -0.2393 -0.3890
 1339TIP3    H128212   5.099   0.310  15.762 -0.3371  0.0264 -0.8901
 1339TIP3    H228213   5.210   0.250  15.680  0.1822 -1.8788  1.0951
 1340TIP3   OH228214   4.092   0.714  14.681  0.1306  0.5836  0.1219
 1340TIP3    H128215   4.093   0.658  14.603 -1.1011 -1.9561  1.7883
 1340TIP3    H228216   4.173   0.692  14.727 -0.4375 -0.0380  0.8650
 1341TIP3   OH228217   3.076   2.546  15.663 -0.0044 -0.3076 -0.5273
 1341TIP3    H128218   3.011   2.506  15.605  0.5804  0.1141 -1.5037
 1341TIP3    H228219   3.109   2.620  15.613 -0.2109  0.6979  0.7662
 1342TIP3   OH228220   4.689   3.159  16.044  0.0369 -0.4609 -0.5067
 1342TIP3    H128221   4.674   3.092  16.111  1.2457  0.5335  0.8173
 1342TIP3    H228222   4.762   3.126  15.993  2.3775  0.8700  1.7392
 1343TIP3   OH228223   0.923   6.469  17.078  0.2006 -0.4801  0.3407
 1343TIP3    H128224   0.953   6.521  17.152  0.2996  0.1743 -0.1473
 1343TIP3    H228225   0.956   6.516  17.001 -1.8431  0.1431 -0.2236
 1344TIP3   OH228226   0.818   5.754  14.597  0.0937 -0.8493 -0.3015
 1344TIP3    H128227   0.821   5.797  14.512 -0.7097  0.0338  0.0928
 1344TIP3    H228228   0.806   5.661  14.577  0.8822 -0.7776 -1.1539
 1345TIP3   OH228229   6.469   3.298  15.473  0.3075  0.1706 -0.6658
 1345TIP3    H128230   6.555   3.327  15.443 -0.0074  0.5352 -1.2334
 1345TIP3    H228231   6.424   3.271  15.394 -1.0210  2.3967 -0.7468
 1346TIP3   OH228232   4.043   6.212  17.082 -0.3895  0.1555 -0.3112
 1346TIP3    H128233   4.066   6.120  17.091  0.2187  0.0614 -2.2454
 1346TIP3    H228234   3.967   6.212  17.023 -0.3159  0.8808 -0.4152
 1347TIP3   OH228235   4.137   6.416  15.058  0.2602 -0.0376 -0.1928
 1347TIP3    H128236   4.198   6.487  15.077  4.3361 -3.2663  0.3130
 1347TIP3    H228237   4.160   6.387  14.969  1.2245 -2.7125  0.8134
 1348TIP3   OH228238   1.856   1.824  16.661  0.0159  0.5504 -0.3585
 1348TIP3    H128239   1.885   1.896  16.718 -0.5811  0.7374 -0.2837
 1348TIP3    H228240   1.776   1.856  16.620  0.9740  0.7985 -2.0952
 1349TIP3   OH228241   0.226   6.531  13.501 -0.1169 -0.2787 -0.1874
 1349TIP3    H128242   0.198   6.597  13.438  0.7731  1.4108  1.1293
 1349TIP3    H228243   0.145   6.491  13.531 -0.6184 -0.4084 -1.5983
 1350TIP3   OH228244   4.880   6.320  16.797  0.1449  0.1184  0.1503
 1350TIP3    H128245   4.816   6.255  16.822  1.5425 -1.0980  0.7241
 1350TIP3    H228246   4.965   6.279  16.816  1.0853  2.4843  1.5896
 1351TIP3   OH228247   4.374   1.255  14.749 -0.0358 -0.4659 -0.2378
 1351TIP3    H128248   4.425   1.217  14.821 -1.6327 -3.1024 -0.3535
 1351TIP3    H228249   4.283   1.243  14.775 -0.6540  1.8839 -1.1163
 1352TIP3   OH228250   3.704   6.691  15.165 -0.2364  0.0613 -1.0082
 1352TIP3    H128251   3.764   6.617  15.172 -0.0447  0.2853 -0.2984
 1352TIP3    H228252   3.759   6.763  15.134 -0.2158  0.1669 -0.7263
 1353TIP3   OH228253   6.236   6.681  15.575  0.2087 -0.4295  0.4023
 1353TIP3    H128254   6.258   6.750  15.513  1.1518  0.1952  1.3938
 1353TIP3    H228255   6.214   6.728  15.656  1.6927 -1.2787  1.3419
 1354TIP3   OH228256   1.006   6.312  16.663  0.1906 -0.2322  0.0264
 1354TIP3    H128257   0.929   6.364  16.638  1.7562  1.7437 -0.9627
 1354TIP3    H228258   0.980   6.270  16.745 -1.9079  0.4610 -0.2147
 1355TIP3   OH228259   6.153   4.801  16.116 -0.2683 -0.1119 -0.0187
 1355TIP3    H128260   6.077   4.828  16.168  0.6428  2.0937  0.2706
 1355TIP3    H228261   6.141   4.843  16.031  1.0608  1.0651  0.3445
 1356TIP3   OH228262   1.068   2.154  15.659  0.2969 -0.0968 -0.3773
 1356TIP3    H128263   1.083   2.248  15.649  0.9561  0.2560  2.9597
 1356TIP3    H228264   0.984   2.147  15.704 -0.6084 -1.2642 -2.1126
 1357TIP3   OH228265   2.362   6.305  15.988  0.2423 -0.2392 -0.1202
 1357TIP3    H128266   2.280   6.346  16.016  0.4588  0.2431 -0.1772
 1357TIP3    H228267   2.335   6.222  15.949 -0.5562  1.2236 -2.9778
 1358TIP3   OH228268   3.521   4.129  15.398 -0.3649 -0.6194 -0.4869
 1358TIP3    H128269   3.543   4.036  15.396  0.2125 -0.5403  0.8480
 1358TIP3    H228270   3.551   4.163  15.314  2.1118 -1.1023  0.1234
 1359TIP3   OH228271   2.065   4.199  14.188 -0.2363  0.2175 -0.3549
 1359TIP3    H128272   1.988   4.149  14.162 -1.1712  0.7877  1.1886
 1359TIP3    H228273   2.065   4.275  14.129 -1.3638  0.6445  0.1666
 1360TIP3   OH228274   3.628   2.226  14.773  0.0178 -0.3241  0.5482
 1360TIP3    H128275   3.692   2.223  14.703  0.8910 -0.0138  1.3144
 1360TIP3    H228276   3.558   2.283  14.740  1.1315  1.0536  0.4952
 1361TIP3   OH228277   5.947   5.162  14.349 -0.2904 -0.3166  0.4854
 1361TIP3    H128278   5.896   5.102  14.296  0.2510 -0.4962  0.1557
 1361TIP3    H228279   6.033   5.119  14.358  0.5956  1.0324 -0.9593
 1362TIP3   OH228280   0.014   5.505  16.910  0.4116  0.4195  0.3943
 1362TIP3    H128281   0.077   5.577  16.914  0.2850  0.5114  0.7608
 1362TIP3    H228282  -0.048   5.531  16.842  0.2396  0.7609  0.6803
 1363TIP3   OH228283   3.630   6.384  15.322  0.1276  0.2457  0.0907
 1363TIP3    H128284   3.573   6.308  15.319  0.3096  0.0514  1.1526
 1363TIP3    H228285   3.576   6.453  15.361  0.3256  0.3233  0.2293
 1364TIP3   OH228286   2.439   2.108  15.140  0.8187  0.3301 -0.3427
 1364TIP3    H128287   2.470   2.058  15.065 -0.5815 -0.3887 -0.4725
 1364TIP3    H228288   2.375   2.051  15.182 -0.0187  1.5817  0.1383
 1365TIP3   OH228289   1.768   3.063  15.396 -0.2039  0.0545  0.0768
 1365TIP3    H128290   1.732   3.002  15.460  2.4695 -0.7204  1.0016
 1365TIP3    H228291   1.745   3.027  15.311 -0.6346 -0.9707  0.6227
 1366TIP3   OH228292   4.535   5.063  15.960  0.4586 -0.2305  0.9347
 1366TIP3    H128293   4.589   5.064  15.882 -1.4803 -0.2399 -0.4944
 1366TIP3    H228294   4.593   5.035  16.030  3.3345  3.6195  0.3952
 1367TIP3   OH228295   0.295   5.911  16.549 -0.4959  0.8436 -0.0040
 1367TIP3    H128296   0.350   5.922  16.472  0.5805 -0.7643  0.4828
 1367TIP3    H228297   0.270   6.000  16.574 -0.2119  1.4448 -1.7153
 1368TIP3   OH228298   4.743   0.947  16.349 -0.1946  0.0220  0.0476
 1368TIP3    H128299   4.678   1.013  16.374  0.2690  0.3570  0.3816
 1368TIP3    H228300   4.690   0.872  16.320 -0.8835 -1.0576  3.5744
 1369TIP3   OH228301   4.830   0.523  17.005 -0.0897  0.1479 -0.1145
 1369TIP3    H128302   4.903   0.514  16.944  0.1369  0.7555  0.0632
 1369TIP3    H228303   4.796   0.611  16.990 -0.1320  0.2470  0.5194
 1370TIP3   OH228304   5.656   2.087  16.160  0.0622 -0.2145  0.6195
 1370TIP3    H128305   5.683   2.066  16.250 -0.6892 -0.9338  0.6914
 1370TIP3    H228306   5.623   2.004  16.125  1.3469 -0.2032 -0.7065
 1371TIP3   OH228307   1.465   0.480  16.836 -0.4189 -0.2794  0.1458
 1371TIP3    H128308   1.422   0.395  16.845  1.2348 -1.0959  0.6975
 1371TIP3    H228309   1.555   0.459  16.815  0.4626  1.3034  2.0171
 1372TIP3   OH228310   0.395   6.455  15.720 -0.4615 -0.4735  0.3902
 1372TIP3    H128311   0.434   6.369  15.704 -0.5186 -0.4372  0.0557
 1372TIP3    H228312   0.460   6.517  15.686  0.0071 -0.3412  1.4685
 1373TIP3   OH228313   3.045   0.961  14.249 -0.1568  0.1680  0.1848
 1373TIP3    H128314   2.987   0.899  14.293  2.0465 -0.5659  2.2606
 1373TIP3    H228315   3.126   0.958  14.299  1.6319  1.3168 -2.4339
 1374TIP3   OH228316   0.362   1.095  15.604 -0.4131  0.3436  0.1982
 1374TIP3    H128317   0.286   1.049  15.641 -0.5746 -0.2709 -0.8487
 1374TIP3    H228318   0.401   1.032  15.544  2.8680 -0.5597  2.9827
 1375TIP3   OH228319   3.967   3.162  15.483  0.3384 -0.4972 -0.3352
 1375TIP3    H128320   3.875   3.156  15.457  0.4825  0.3928 -1.1515
 1375TIP3    H228321   3.969   3.236  15.544  0.7115  0.4446 -1.4493
 1376TIP3   OH228322   6.304   1.759  15.188 -0.8346  0.0402  0.3866
 1376TIP3    H128323   6.330   1.721  15.272  0.8301  0.2956  0.0297
 1376TIP3    H228324   6.336   1.695  15.123 -2.4242 -0.3361 -0.0605
 1377TIP3   OH228325   0.961   3.775  15.323 -0.1307 -0.1267 -0.3054
 1377TIP3    H128326   0.982   3.868  15.332 -2.5815  0.4240  0.5395
 1377TIP3    H228327   0.967   3.740  15.413  1.0569 -0.8905 -0.6573
 1378TIP3   OH228328   3.934   5.324  15.860  0.1745 -0.3563 -0.1104
 1378TIP3    H128329   3.942   5.256  15.793 -0.1567 -0.2725 -0.2364
 1378TIP3    H228330   4.024   5.347  15.882  0.2825 -0.2660 -0.6446
 1379TIP3   OH228331   3.549   4.281  15.623  0.2976 -0.1273 -0.1651
 1379TIP3    H128332   3.583   4.234  15.699 -2.3767 -1.7002  0.2118
 1379TIP3    H228333   3.511   4.213  15.568 -0.1970  1.2363 -1.5850
 1380TIP3   OH228334   5.796   1.120  13.903  0.1774 -0.2426  0.5548
 1380TIP3    H128335   5.765   1.066  13.830  0.6794  0.7437 -0.4289
 1380TIP3    H228336   5.864   1.067  13.944  1.4316  0.0278 -1.0674
 1381TIP3   OH228337   3.948   3.576  16.796 -0.5791  0.3207  0.1957
 1381TIP3    H128338   3.883   3.646  16.803  0.7730  1.4856  1.6970
 1381TIP3    H228339   4.024   3.618  16.757 -1.1052 -1.3734 -2.9563
 1382TIP3   OH228340   1.360   1.350  14.866 -0.6246  0.6137  0.1987
 1382TIP3    H128341   1.397   1.284  14.807 -1.0287  1.3401 -0.9172
 1382TIP3    H228342   1.304   1.403  14.809 -2.5831  0.1685  1.6248
 1383TIP3   OH228343   4.881   5.210  15.284 -0.4025  0.4416 -0.0663
 1383TIP3    H128344   4.913   5.259  15.360 -0.9273  0.1840  0.3240
 1383TIP3    H228345   4.896   5.118  15.307 -1.1823  0.3329  0.0047
 1384TIP3   OH228346   1.484   3.436  16.064 -1.0236 -0.9339  0.0528
 1384TIP3    H128347   1.451   3.376  16.131 -3.2651 -0.7360 -0.8160
 1384TIP3    H228348   1.410   3.451  16.005 -0.5672  2.6072  0.1371
 1385TIP3   OH228349   3.328   4.625  14.236 -0.2002 -0.1131  0.3422
 1385TIP3    H128350   3.357   4.714  14.255 -2.0808  0.2759  1.7213
 1385TIP3    H228351   3.407   4.579  14.207  0.4930  2.4917 -2.4793
 1386TIP3   OH228352   1.786   0.255  15.616 -0.1376 -0.6419  0.2606
 1386TIP3    H128353   1.852   0.311  15.575 -1.9480  1.2879 -0.2183
 1386TIP3    H228354   1.832   0.174  15.636  1.8350 -0.1881 -1.9587
 1387TIP3   OH228355   5.326   4.618  15.189 -0.0194 -0.1956  0.0890
 1387TIP3    H128356   5.262   4.596  15.122  0.1736 -2.1427  0.4764
 1387TIP3    H228357   5.394   4.551  15.180  1.3283  1.0630  0.5296
 1388TIP3   OH228358   1.250   0.659  14.677 -0.1236 -0.1291 -0.0528
 1388TIP3    H128359   1.222   0.666  14.585  1.1401 -0.6174 -0.4949
 1388TIP3    H228360   1.278   0.568  14.687  1.7769  0.4359  0.1828
 1389TIP3   OH228361   6.485   4.979  16.541 -0.0899 -0.1880  0.2926
 1389TIP3    H128362   6.400   4.938  16.526  0.3295 -1.6100  1.6137
 1389TIP3    H228363   6.479   5.013  16.631  0.5240  0.2594  0.1652
 1390TIP3   OH228364   0.614   1.267  15.486  0.0157 -0.2766 -1.0216
 1390TIP3    H128365   0.653   1.258  15.573 -1.6910  0.9704 -0.0601
 1390TIP3    H228366   0.671   1.217  15.428  0.9658 -1.4953  0.8824
 1391TIP3   OH228367   6.471   6.528  15.539  0.1430 -0.1298 -0.5507
 1391TIP3    H128368   6.377   6.539  15.557 -0.0469 -0.0449 -1.5449
 1391TIP3    H228369   6.501   6.467  15.607 -0.8144 -0.8267 -0.7238
 1392TIP3   OH228370   6.147   0.673  16.587 -0.0669 -0.4203 -0.7402
 1392TIP3    H128371   6.167   0.764  16.610 -0.3066 -0.8955  1.6900
 1392TIP3    H228372   6.069   0.678  16.533 -0.4299  0.8117 -0.1443
 1393TIP3   OH228373   2.575   5.342  15.396 -0.3095  0.1403 -0.4297
 1393TIP3    H128374   2.522   5.275  15.438  0.8617 -1.9101 -2.0229
 1393TIP3    H228375   2.523   5.370  15.320 -0.3418  0.2409 -0.3702
 1394TIP3   OH228376   1.133   3.064  14.668 -0.1726  0.4443  0.4982
 1394TIP3    H128377   1.169   3.135  14.614 -1.4494  0.9085  0.2364
 1394TIP3    H228378   1.190   2.990  14.650  0.3737  1.0311 -0.2710
 1395TIP3   OH228379   5.866   5.968  16.896  0.0070  0.4510  0.2450
 1395TIP3    H128380   5.923   5.932  16.828 -1.4551  0.3177 -0.9603
 1395TIP3    H228381   5.851   6.059  16.868 -0.3830  0.4770  0.5350
 1396TIP3   OH228382   0.293   5.987  14.784  0.5299  0.2289 -0.2699
 1396TIP3    H128383   0.286   5.970  14.690 -0.2843  0.7481 -0.3105
 1396TIP3    H228384   0.349   5.916  14.817 -1.2441 -1.4875 -0.7334
 1397TIP3   OH228385   0.659   3.303  16.058  0.5975 -0.1080  0.5269
 1397TIP3    H128386   0.664   3.336  15.968  1.1425  1.6234  1.1604
 1397TIP3    H228387   0.660   3.382  16.113 -1.7820 -0.9997  2.0083
 1398TIP3   OH228388   0.455   0.132  17.032 -0.7752  0.3690 -0.4897
 1398TIP3    H128389   0.388   0.068  17.011  0.0336 -0.7749  0.3086
 1398TIP3    H228390   0.532   0.104  16.981 -0.7448  1.3831 -1.0308
 1399TIP3   OH228391   6.099   6.546  16.335 -0.0710 -0.7133  0.1316
 1399TIP3    H128392   6.185   6.539  16.294  0.6965  0.0710  1.5572
 1399TIP3    H228393   6.102   6.486  16.409  0.0881  0.9268  1.5227
 1400TIP3   OH228394   1.920   4.011  15.154  0.3687 -0.4687  0.5814
 1400TIP3    H128395   1.981   3.965  15.211 -0.1002 -0.5359  1.0376
 1400TIP3    H228396   1.897   4.091  15.202 -0.2592 -0.6682  0.6273
 1401TIP3   OH228397   1.208   4.715  15.537 -0.2084  0.4399 -0.0282
 1401TIP3    H128398   1.146   4.739  15.606 -0.9379 -2.5584  0.5246
 1401TIP3    H228399   1.153   4.678  15.468  0.7953 -0.0153 -0.5987
 1402TIP3   OH228400   2.070   6.089  16.953  0.0698  0.3376  0.1548
 1402TIP3    H128401   1.979   6.062  16.942  0.3499 -0.4909 -0.2771
 1402TIP3    H228402   2.096   6.050  17.037  0.2095  0.0175 -0.0332
 1403TIP3   OH228403   2.345   0.535  14.097  0.3176 -0.8700  0.3724
 1403TIP3    H128404   2.432   0.497  14.088 -0.3674 -2.2164 -1.2290
 1403TIP3    H228405   2.334   0.589  14.018  0.4414  1.0058  1.5660
 1404TIP3   OH228406   5.377   5.717  15.739  0.0468 -0.3251 -0.1374
 1404TIP3    H128407   5.441   5.701  15.671 -1.0602 -0.4333 -1.1960
 1404TIP3    H228408   5.394   5.807  15.768  0.2847 -0.1388 -0.8396
 1405TIP3   OH228409   6.141   5.090  15.739  0.3559  0.4992 -0.2973
 1405TIP3    H128410   6.148   5.114  15.646  0.7228  2.4227  0.1721
 1405TIP3    H228411   6.229   5.108  15.774  0.3513 -0.6645  0.3469
 1406TIP3   OH228412   5.530   5.223  16.743  0.1792  0.1310  0.0483
 1406TIP3    H128413   5.456   5.218  16.804 -2.1542  2.4662 -2.3463
 1406TIP3    H228414   5.538   5.134  16.709 -1.6131 -0.1884  0.3339
 1407TIP3   OH228415   4.290   4.055  15.994 -0.4685 -1.2138  0.1599
 1407TIP3    H128416   4.305   3.995  15.921  1.8416 -0.8545  0.2900
 1407TIP3    H228417   4.237   4.004  16.056 -0.7266 -2.2120 -0.8377
 1408TIP3   OH228418   4.269   2.979  16.808  0.0986  0.8951 -0.6400
 1408TIP3    H128419   4.364   2.984  16.799  0.3564 -0.0398  1.1754
 1408TIP3    H228420   4.242   2.912  16.745  1.0658 -1.1174  0.9722
 1409TIP3   OH228421   1.990   6.301  17.322 -0.4271 -0.5034 -0.9070
 1409TIP3    H128422   1.973   6.219  17.370 -0.8185  0.5683  0.8722
 1409TIP3    H228423   1.906   6.322  17.281 -0.7838 -0.1669 -0.0229
 1410TIP3   OH228424   0.852   5.667  17.133  0.7931  0.1313 -0.1986
 1410TIP3    H128425   0.766   5.689  17.170  1.9334 -0.7756  3.4020
 1410TIP3    H228426   0.833   5.642  17.043 -2.5877  0.8168  0.1726
 1411TIP3   OH228427   1.652   5.085  14.074  0.1346  0.4591  0.2291
 1411TIP3    H128428   1.609   5.121  13.997  0.0143  2.5554  1.2089
 1411TIP3    H228429   1.745   5.089  14.055  0.1417  1.7376  0.4845
 1412TIP3   OH228430   1.680   2.592  16.730  0.0744  0.2819 -0.2685
 1412TIP3    H128431   1.744   2.607  16.799  1.1633 -1.9851 -0.6823
 1412TIP3    H228432   1.723   2.622  16.650 -0.0658  0.3296 -0.3259
 1413TIP3   OH228433   5.118   4.327  16.626  0.0256 -0.3688 -0.2075
 1413TIP3    H128434   5.189   4.276  16.586 -2.3461 -2.4968 -2.1431
 1413TIP3    H228435   5.125   4.309  16.719  1.3819 -1.4104 -0.4693
 1414TIP3   OH228436   1.811   0.667  17.266 -0.3276 -0.3732  0.6617
 1414TIP3    H128437   1.723   0.693  17.293 -0.1833  0.9406 -0.0529
 1414TIP3    H228438   1.829   0.721  17.189  1.0802 -0.6688  0.7624
 1415TIP3   OH228439   0.218   5.300  17.056 -0.4806 -0.3808 -0.4410
 1415TIP3    H128440   0.169   5.361  17.112  0.5906  0.6291 -0.5731
 1415TIP3    H228441   0.250   5.354  16.984  2.2792 -0.6002  0.5256
 1416TIP3   OH228442   2.326   4.879  16.178 -0.5495  0.2403  0.4294
 1416TIP3    H128443   2.296   4.951  16.122 -0.7442 -0.6081 -0.6117
 1416TIP3    H228444   2.366   4.922  16.253 -0.4834  1.4335 -0.2509
 1417TIP3   OH228445   0.314   2.331  15.018  0.2689 -0.5716  0.1284
 1417TIP3    H128446   0.342   2.274  15.089 -0.4074 -1.7776 -0.5323
 1417TIP3    H228447   0.247   2.388  15.057  0.5906 -0.5688  0.6757
 1418TIP3   OH228448   1.495   6.603  17.211  0.0939 -0.6662 -0.1449
 1418TIP3    H128449   1.486   6.664  17.284 -0.0804  1.1514 -1.5870
 1418TIP3    H228450   1.585   6.616  17.180 -0.6321  0.6561 -1.8839
 1419TIP3   OH228451   4.541   0.022  15.123  0.3370  0.5071  0.5039
 1419TIP3    H128452   4.608   0.065  15.175  0.8089  0.9267 -0.4233
 1419TIP3    H228453   4.550   0.060  15.036  0.8025 -1.4548 -0.3710
 1420TIP3   OH228454   3.602   3.515  14.337 -0.0811 -0.5455 -0.5285
 1420TIP3    H128455   3.543   3.474  14.274 -1.1160  0.2408 -0.1142
 1420TIP3    H228456   3.614   3.604  14.303 -0.6681 -0.1090  0.3795
 1421TIP3   OH228457   5.037   2.121  14.005  0.2935 -0.5850  0.6274
 1421TIP3    H128458   4.961   2.097  14.059  0.6960 -0.0308  1.4666
 1421TIP3    H228459   4.999   2.172  13.933 -0.2822 -1.5658  0.2228
 1422TIP3   OH228460   1.903   0.851  14.561 -0.0085 -0.4980  0.2388
 1422TIP3    H128461   1.998   0.851  14.571  0.0176 -2.0375  0.3080
 1422TIP3    H228462   1.889   0.827  14.469 -0.3359  0.0663  0.1379
 1423TIP3   OH228463   4.545   6.506  16.363 -0.0011  0.4235  0.3070
 1423TIP3    H128464   4.553   6.422  16.408  0.1045 -0.1906 -0.8125
 1423TIP3    H228465   4.580   6.489  16.275 -2.9192  0.7322 -1.0403
 1424TIP3   OH228466   4.401   4.280  16.771  0.0757 -0.6183  0.0808
 1424TIP3    H128467   4.461   4.325  16.832  0.0635 -1.0420  0.4102
 1424TIP3    H228468   4.366   4.350  16.716  0.4118 -0.2850  0.2869
 1425TIP3   OH228469   3.830   0.480  15.980  0.6059  0.3151 -0.1073
 1425TIP3    H128470   3.897   0.547  15.997 -1.1297  1.9008  0.8912
 1425TIP3    H228471   3.871   0.398  16.008  2.8483  0.8716 -1.4702
 1426TIP3   OH228472   2.552   1.695  16.630  1.0909 -0.0144  0.3293
 1426TIP3    H128473   2.581   1.619  16.681 -0.8965 -0.6437  0.6305
 1426TIP3    H228474   2.513   1.754  16.695 -1.5863 -0.8841 -0.3612
 1427TIP3   OH228475   5.115   5.552  15.265  0.3473  0.3673  0.3163
 1427TIP3    H128476   5.052   5.482  15.252 -0.3957  0.8333  1.3119
 1427TIP3    H228477   5.168   5.552  15.185  0.2574 -1.2044  0.2342
 1428TIP3   OH228478   2.642   3.182  14.197 -0.3003  0.3800 -0.5034
 1428TIP3    H128479   2.698   3.252  14.230 -1.3754  0.7865  0.5329
 1428TIP3    H228480   2.568   3.226  14.155 -1.4416 -0.0607  0.9365
 1429TIP3   OH228481   6.645   1.736  17.063 -0.5213 -0.2319  0.0279
 1429TIP3    H128482   6.681   1.812  17.110 -0.6943 -0.7424  1.0179
 1429TIP3    H228483   6.568   1.771  17.018  0.1878  0.4780 -0.6644
 1430TIP3   OH228484   2.624   3.759  13.933  0.1029 -0.2218  0.2129
 1430TIP3    H128485   2.581   3.679  13.905  1.7101 -0.2896 -2.4545
 1430TIP3    H228486   2.712   3.731  13.959 -0.5192  0.2346  3.1295
 1431TIP3   OH228487   2.448   5.976  16.480 -0.2455  0.2110 -0.3949
 1431TIP3    H128488   2.435   5.996  16.387  1.6228  1.4326 -0.4352
 1431TIP3    H228489   2.521   5.914  16.481 -1.7443 -1.6478  0.1644
 1432TIP3   OH228490   4.810   0.132  17.106 -0.4469  0.1658 -0.3388
 1432TIP3    H128491   4.796   0.198  17.173 -0.7638  0.3070 -0.5449
 1432TIP3    H228492   4.723   0.104  17.080 -0.3395 -2.1278  1.4791
 1433TIP3   OH228493   2.055   6.534  14.825 -0.4166  0.4447  0.1869
 1433TIP3    H128494   2.030   6.461  14.769  0.7902  0.4572 -0.3946
 1433TIP3    H228495   2.080   6.494  14.908  2.1807 -0.0753 -0.7461
 1434TIP3   OH228496   5.078   4.197  15.148  0.7605  0.4624  0.1850
 1434TIP3    H128497   5.164   4.213  15.187  0.8836 -0.1911  0.1879
 1434TIP3    H228498   5.090   4.214  15.055  0.3465  2.5143  0.4573
 1435TIP3   OH228499   0.613   5.496  16.496  0.5212 -0.2789 -0.7876
 1435TIP3    H128500   0.605   5.571  16.555 -0.0252  0.2620 -1.5278
 1435TIP3    H228501   0.569   5.425  16.542  0.9977 -0.1383 -0.0978
 1436TIP3   OH228502   1.282   1.529  15.617 -0.1795  0.1080  0.7147
 1436TIP3    H128503   1.311   1.443  15.585  1.7359  0.1033  2.3075
 1436TIP3    H228504   1.221   1.559  15.550  0.1061 -1.9112 -0.5532
 1437TIP3   OH228505   4.108   2.144  16.571  0.0529  0.6162  0.0467
 1437TIP3    H128506   4.030   2.199  16.563  0.2161  1.0136  1.0515
 1437TIP3    H228507   4.099   2.079  16.501 -0.2069  1.8310 -1.0684
 1438TIP3   OH228508   5.175   0.366  13.752  0.3414  1.4011  0.0903
 1438TIP3    H128509   5.223   0.432  13.701 -1.7471  1.2187 -2.3777
 1438TIP3    H228510   5.220   0.284  13.734  0.2140  1.4968 -0.7096
 1439TIP3   OH228511   3.252   0.132  15.456 -0.0349 -0.1251  0.3153
 1439TIP3    H128512   3.234   0.147  15.549 -0.2977  0.9250  0.1095
 1439TIP3    H228513   3.347   0.123  15.451  0.1319  1.2249  0.5302
 1440TIP3   OH228514   4.736   5.609  14.706 -0.5422 -0.0515 -0.5160
 1440TIP3    H128515   4.779   5.578  14.785 -1.8640  0.4850  0.4471
 1440TIP3    H228516   4.801   5.595  14.637  0.8675 -0.0011  0.7336
 1441TIP3   OH228517   4.547   5.885  14.625  0.1914 -0.1742 -0.0731
 1441TIP3    H128518   4.492   5.938  14.568 -1.1897 -1.6666 -0.1846
 1441TIP3    H228519   4.587   5.948  14.686 -1.9364  0.9245  0.2609
 1442TIP3   OH228520   3.318   4.796  16.215  0.3029 -0.4161  0.4484
 1442TIP3    H128521   3.230   4.806  16.250  0.4339 -0.0716  0.6835
 1442TIP3    H228522   3.333   4.876  16.165  0.1547 -0.8577 -0.3223
 1443TIP3   OH228523   1.530   5.618  15.374 -0.1170 -0.0734 -0.4441
 1443TIP3    H128524   1.594   5.683  15.401  0.4636 -0.8086 -0.0335
 1443TIP3    H228525   1.521   5.631  15.279 -0.0717  0.6521 -0.3544
 1444TIP3   OH228526   1.164   6.101  16.234  0.2721  0.2920  0.2031
 1444TIP3    H128527   1.100   6.110  16.304 -0.3318  1.7549 -0.5091
 1444TIP3    H228528   1.248   6.123  16.275  0.4119 -1.8122  1.1879
 1445TIP3   OH228529   0.009   0.081  16.784 -0.8719  0.3028 -0.7732
 1445TIP3    H128530   0.016   0.158  16.728 -0.7495 -0.0514 -1.2576
 1445TIP3    H228531  -0.079   0.085  16.821 -0.4348  1.3376  0.1983
 1446TIP3   OH228532   4.335   3.268  15.431 -0.4259 -0.0612  0.3099
 1446TIP3    H128533   4.393   3.192  15.422  1.3200  1.2223  0.2007
 1446TIP3    H228534   4.331   3.305  15.343  1.2102  1.6500  0.8917
 1447TIP3   OH228535   1.615   3.715  15.097  0.2904 -0.1938  0.3455
 1447TIP3    H128536   1.591   3.692  15.187  0.7592 -0.2336  0.4633
 1447TIP3    H228537   1.601   3.635  15.046  1.0224 -0.4785  0.5799
 1448TIP3   OH228538   0.337   3.430  15.208  0.5119 -0.4360  0.0663
 1448TIP3    H128539   0.345   3.478  15.126 -1.1223  2.0735  1.2465
 1448TIP3    H228540   0.320   3.498  15.274  2.2578 -2.2785  2.5943
 1449TIP3   OH228541   4.245   2.263  14.133 -0.1761 -0.3517 -0.4208
 1449TIP3    H128542   4.239   2.205  14.058  1.5770 -1.4463  0.2366
 1449TIP3    H228543   4.208   2.213  14.206  1.7979 -0.8999  0.2541
 1450TIP3   OH228544   2.706   4.743  15.816  0.3293 -0.3288  0.2589
 1450TIP3    H128545   2.713   4.795  15.896 -0.9855  1.3498 -0.6490
 1450TIP3    H228546   2.616   4.712  15.815  0.3851 -0.4940 -0.4651
 1451TIP3   OH228547   5.916   2.199  15.133  0.4002  0.0267  0.0352
 1451TIP3    H128548   5.926   2.161  15.220  0.2991  2.7324  1.3598
 1451TIP3    H228549   5.823   2.193  15.114  0.1832  0.7246  0.8198
 1452TIP3   OH228550   0.228   0.441  15.541 -0.0065  0.1953  1.1137
 1452TIP3    H128551   0.190   0.528  15.556  1.0517  0.6746  1.1355
 1452TIP3    H228552   0.252   0.442  15.448  1.0745  0.3719  1.3872
 1453TIP3   OH228553   4.922   5.855  14.576  0.0511 -0.8113  0.3609
 1453TIP3    H128554   5.012   5.833  14.552  0.2603 -0.6231  0.9451
 1453TIP3    H228555   4.868   5.816  14.507  0.6482  0.0587 -0.6314
 1454TIP3   OH228556   0.016   4.046  15.858  0.4686 -0.3431 -0.4832
 1454TIP3    H128557   0.087   4.080  15.911  0.3385  1.2216 -1.2675
 1454TIP3    H228558   0.045   4.057  15.768 -0.8529  0.6146 -0.8311
 1455TIP3   OH228559   1.887   0.921  16.082  0.2863 -0.4252 -0.3752
 1455TIP3    H128560   1.817   0.894  16.023  0.9654  0.1884 -1.4900
 1455TIP3    H228561   1.842   0.956  16.159 -0.6338  0.3128 -1.2322
 1456TIP3   OH228562   0.765   5.618  16.888 -0.1656 -0.3190 -0.6561
 1456TIP3    H128563   0.687   5.674  16.889  1.3567  2.0224 -2.0692
 1456TIP3    H228564   0.766   5.578  16.801 -1.6266 -3.3222  0.5782
 1457TIP3   OH228565   4.575   2.769  15.644  0.8839 -0.1671  0.3563
 1457TIP3    H128566   4.531   2.727  15.718  0.2984 -0.5177 -0.1745
 1457TIP3    H228567   4.556   2.711  15.570 -0.1150  1.1414 -0.4401
 1458TIP3   OH228568   0.966   4.484  15.047 -0.3575 -0.1046  0.6586
 1458TIP3    H128569   0.925   4.426  15.111  0.7411 -0.3227  1.1890
 1458TIP3    H228570   0.895   4.510  14.988 -0.8297 -2.2317  0.2224
 1459TIP3   OH228571   6.057   3.176  14.372 -0.3927  0.1546  0.4441
 1459TIP3    H128572   6.096   3.089  14.365  0.2916  0.4332  0.6913
 1459TIP3    H228573   6.131   3.236  14.367 -0.6934  0.6697  1.6682
 1460TIP3   OH228574   2.603   3.175  16.950 -0.2794  0.5663  0.0703
 1460TIP3    H128575   2.693   3.151  16.932 -0.7319  0.5883 -2.6212
 1460TIP3    H228576   2.564   3.096  16.989  0.2382 -0.3890 -1.2871
 1461TIP3   OH228577   6.644   4.108  15.419 -0.1246 -0.9746 -0.5252
 1461TIP3    H128578   6.661   4.175  15.353  0.9019 -0.2307  0.4519
 1461TIP3    H228579   6.589   4.044  15.375  1.4896 -1.1049 -2.4787
 1462TIP3   OH228580   2.475   6.270  16.464 -0.1214 -0.1218 -0.3086
 1462TIP3    H128581   2.503   6.190  16.508 -0.7317 -0.5078 -0.5915
 1462TIP3    H228582   2.383   6.280  16.489  0.1098  0.8487  0.2316
 1463TIP3   OH228583   6.332   3.054  15.583  0.6537  0.0063  0.5852
 1463TIP3    H128584   6.380   3.128  15.547  2.8354 -0.0629  3.0838
 1463TIP3    H228585   6.261   3.094  15.635  1.1990  0.3287  1.0917
 1464TIP3   OH228586   5.635   0.997  16.795 -0.0191 -0.1942  0.0727
 1464TIP3    H128587   5.541   1.011  16.789 -0.0391 -0.2923  0.1530
 1464TIP3    H228588   5.648   0.958  16.881 -0.1306 -2.0287 -0.7037
 1465TIP3   OH228589   0.501   5.870  15.161  0.1214 -0.1343  0.0948
 1465TIP3    H128590   0.595   5.856  15.170  0.0730 -1.4622 -1.0750
 1465TIP3    H228591   0.480   5.835  15.074 -1.2559  1.2014 -0.1549
 1466TIP3   OH228592   3.006   3.801  16.780  0.0623 -0.2786 -0.0386
 1466TIP3    H128593   2.960   3.741  16.839  1.2647  0.5721  1.8763
 1466TIP3    H228594   3.028   3.876  16.835  0.5808  0.9113 -1.8011
 1467TIP3   OH228595   1.212   6.486  14.549  0.0920 -0.2048 -0.4238
 1467TIP3    H128596   1.260   6.520  14.625  0.3758 -0.2208 -0.5922
 1467TIP3    H228597   1.127   6.529  14.552  0.3902  0.4028 -0.5465
 1468TIP3   OH228598   2.465   5.048  15.848 -0.4800 -0.0832 -0.1044
 1468TIP3    H128599   2.400   5.103  15.805 -0.5193 -0.3315 -0.3666
 1468TIP3    H228600   2.417   4.970  15.875 -0.6752  0.4867  1.2748
 1469TIP3   OH228601   6.364   3.046  16.265 -0.2046 -0.4360  0.4468
 1469TIP3    H128602   6.408   3.075  16.185  2.0136 -0.8701  1.4286
 1469TIP3    H228603   6.371   3.121  16.324 -2.3835  0.1102  0.1034
 1470TIP3   OH228604   1.285   5.943  16.470  0.5178  0.4429 -0.4097
 1470TIP3    H128605   1.222   6.014  16.468  2.5696  2.3732 -1.5662
 1470TIP3    H228606   1.288   5.911  16.379  0.6405 -0.1552 -0.2017
 1471TIP3   OH228607   0.602   3.370  15.521  0.6333 -0.0499  0.1268
 1471TIP3    H128608   0.614   3.345  15.429  0.6477 -0.4557  0.2405
 1471TIP3    H228609   0.527   3.430  15.519 -0.5728 -1.5097  0.0789
 1472TIP3   OH228610   3.940   4.510  14.963  0.1034 -0.1070 -0.0071
 1472TIP3    H128611   3.882   4.469  14.899 -1.0869 -0.2032  1.0978
 1472TIP3    H228612   3.978   4.585  14.916 -0.5655 -0.3077 -0.8926
 1473TIP3   OH228613   0.171   6.491  13.787  0.1380 -0.6926 -0.0371
 1473TIP3    H128614   0.256   6.496  13.831  1.1482 -0.6718 -1.9000
 1473TIP3    H228615   0.174   6.561  13.722 -1.7435 -0.0332  0.5256
 1474TIP3   OH228616   2.649   3.035  15.084  0.0957  0.4911  0.1635
 1474TIP3    H128617   2.683   2.984  15.010 -1.3088  0.4950 -0.5030
 1474TIP3    H228618   2.572   3.081  15.049 -0.6944  0.3634  1.6669
 1475TIP3   OH228619   1.188   2.531  15.063  0.5442 -0.4504 -0.1038
 1475TIP3    H128620   1.213   2.600  15.002 -0.7235  0.7738  0.7338
 1475TIP3    H228621   1.264   2.472  15.063  1.0140  0.0686 -2.0229
 1476TIP3   OH228622   2.971   2.615  15.375 -0.0391  0.0151 -0.2686
 1476TIP3    H128623   3.044   2.558  15.353  0.9682  1.4794 -0.8317
 1476TIP3    H228624   3.011   2.698  15.401 -1.4158  0.1946  1.5437
 1477TIP3   OH228625   4.927   0.956  15.777  0.0782 -0.3126 -0.1207
 1477TIP3    H128626   5.016   0.975  15.747  0.3196  0.4002  0.9824
 1477TIP3    H228627   4.877   1.035  15.755 -0.4471 -0.9381 -1.2722
 1478TIP3   OH228628   2.959   6.588  14.510 -0.1535  0.2893  0.5828
 1478TIP3    H128629   2.888   6.525  14.497  0.0444  0.0838  0.4921
 1478TIP3    H228630   3.010   6.585  14.429 -0.9213  1.5684  0.0358
 1479TIP3   OH228631   3.631   3.864  15.233 -0.1449  0.1663  0.0396
 1479TIP3    H128632   3.645   3.822  15.148 -0.6953  0.0901 -0.0167
 1479TIP3    H228633   3.557   3.923  15.219 -1.2409 -0.9661  0.8406
 1480TIP3   OH228634   4.330   1.103  15.789 -0.1977  0.4322  0.0665
 1480TIP3    H128635   4.417   1.087  15.824  1.0536 -1.9255 -3.6213
 1480TIP3    H228636   4.336   1.190  15.748  0.6495  0.0275 -0.6950
 1481TIP3   OH228637   1.567   5.328  16.081  0.2178  0.0530 -0.4422
 1481TIP3    H128638   1.622   5.403  16.104 -0.2573  0.2511  0.0579
 1481TIP3    H228639   1.530   5.351  15.996 -1.4780  1.2814  0.5897
 1482TIP3   OH228640   4.804   0.444  15.558  0.3593  0.2832 -0.3309
 1482TIP3    H128641   4.870   0.511  15.575  1.3469 -0.8576  0.4721
 1482TIP3    H228642   4.820   0.416  15.467  0.0192  1.0301 -0.6267
 1483TIP3   OH228643   4.877   1.449  16.593  0.0055 -0.3743 -0.1875
 1483TIP3    H128644   4.817   1.521  16.573  0.2727 -0.2551 -0.5724
 1483TIP3    H228645   4.922   1.432  16.510 -1.0024 -1.8925 -0.4836
 1484TIP3   OH228646   5.567   4.290  15.676  0.3295  0.5566 -0.1828
 1484TIP3    H128647   5.617   4.342  15.740  0.3646  1.7442 -1.1437
 1484TIP3    H228648   5.489   4.262  15.724 -0.8164  3.4075 -0.2254
 1485TIP3   OH228649   3.757   3.022  16.749 -0.1584  0.2507  0.3887
 1485TIP3    H128650   3.767   3.106  16.704  0.7501  0.0773  0.2422
 1485TIP3    H228651   3.845   2.999  16.778 -0.2998 -0.8848  0.0038
 1486TIP3   OH228652   1.288   5.809  17.178  0.5511 -0.0510 -0.0372
 1486TIP3    H128653   1.352   5.775  17.241 -0.3788 -1.7242  0.0692
 1486TIP3    H228654   1.256   5.890  17.218  0.0741 -0.9979  1.6204
 1487TIP3   OH228655   2.806   3.220  14.807 -0.8157 -0.1095  0.7752
 1487TIP3    H128656   2.876   3.223  14.741 -1.1146 -0.5934  0.4278
 1487TIP3    H228657   2.754   3.144  14.783 -1.0708 -0.1519  1.4386
 1488TIP3   OH228658   1.130   4.018  14.827 -0.7544  0.2330 -0.1108
 1488TIP3    H128659   1.146   4.038  14.735 -0.8723 -0.3784 -0.2638
 1488TIP3    H228660   1.036   4.001  14.832 -0.5390 -1.0777 -0.1387
 1489TIP3   OH228661   1.829   6.076  15.290 -0.7751 -0.2855 -0.3447
 1489TIP3    H128662   1.795   6.165  15.285 -1.3736 -0.4292  0.9149
 1489TIP3    H228663   1.923   6.086  15.274 -0.7727  0.6194  0.1961
 1490TIP3   OH228664   4.233   3.619  16.112 -0.2503  0.9994 -0.3421
 1490TIP3    H128665   4.207   3.656  16.028  0.4127  0.2779 -0.8921
 1490TIP3    H228666   4.318   3.578  16.094 -1.0352 -0.9486  0.1493
 1491TIP3   OH228667   6.693   3.648  16.182 -0.3862  0.1277 -0.3205
 1491TIP3    H128668   6.724   3.669  16.270 -1.2776 -1.1022  0.3359
 1491TIP3    H228669   6.628   3.579  16.196 -0.8304  0.1750 -1.9217
 1492TIP3   OH228670   4.834   5.153  14.741 -0.2688  0.2683  0.2270
 1492TIP3    H128671   4.793   5.216  14.800 -1.1315 -1.3411  1.4428
 1492TIP3    H228672   4.928   5.166  14.752 -0.4286  0.5435  1.3435
 1493TIP3   OH228673   0.676   1.350  14.037 -0.4572 -0.5542  0.3565
 1493TIP3    H128674   0.646   1.440  14.023  0.7084 -0.1769  0.1835
 1493TIP3    H228675   0.641   1.327  14.123 -0.6835  0.1000  0.4467
 1494TIP3   OH228676   2.160   0.563  15.441  0.3390 -0.2546 -0.6639
 1494TIP3    H128677   2.232   0.507  15.414  0.7743  0.3748 -0.8400
 1494TIP3    H228678   2.168   0.569  15.537  1.0807  0.5469 -0.7664
 1495TIP3   OH228679   4.584   1.829  16.680 -0.0259 -0.5328  0.2276
 1495TIP3    H128680   4.563   1.915  16.644 -0.6565 -0.7804 -0.0007
 1495TIP3    H228681   4.545   1.766  16.619  0.2952 -0.9818  0.4727
 1496TIP3   OH228682   3.040   2.834  13.988  0.1113 -0.2120 -0.5157
 1496TIP3    H128683   3.092   2.774  14.041 -0.6942 -0.1167  0.4087
 1496TIP3    H228684   2.966   2.782  13.959  0.5056 -0.2424 -1.5087
 1497TIP3   OH228685   5.044   4.425  14.129 -0.6205 -0.0037 -0.1202
 1497TIP3    H128686   5.118   4.366  14.124 -0.9806 -0.5068  0.3062
 1497TIP3    H228687   5.049   4.478  14.049  1.2957  1.3170  0.7860
 1498TIP3   OH228688   2.673   4.876  16.087  0.6106 -0.5657  0.8739
 1498TIP3    H128689   2.681   4.850  16.179  0.2157  0.1619  1.1264
 1498TIP3    H228690   2.600   4.937  16.086  1.3061  0.2856  0.2645
 1499TIP3   OH228691   0.520   4.640  14.350 -0.1619 -0.2834  0.1929
 1499TIP3    H128692   0.450   4.605  14.295  0.3393 -2.2523  0.7324
 1499TIP3    H228693   0.587   4.668  14.288 -1.4004  1.7012 -0.3372
 1500TIP3   OH228694   5.543   1.056  14.657  0.1382 -0.0198  0.2956
 1500TIP3    H128695   5.450   1.059  14.678 -0.0869 -1.3049 -0.4707
 1500TIP3    H228696   5.581   1.000  14.724  0.0235 -1.0936 -0.5149
 1501TIP3   OH228697   2.678   0.254  16.201 -0.8939 -0.2133 -0.4024
 1501TIP3    H128698   2.647   0.229  16.289 -0.6186  0.6978 -0.0377
 1501TIP3    H228699   2.717   0.341  16.213 -0.7671 -0.1211 -1.4150
 1502TIP3   OH228700   5.203   4.546  16.978 -0.5128 -0.1734 -0.0987
 1502TIP3    H128701   5.148   4.593  16.916 -0.1554  1.3106  0.6452
 1502TIP3    H228702   5.288   4.590  16.972 -0.3382 -0.3238  1.0765
 1503TIP3   OH228703   0.818   0.431  16.874 -0.2580  0.3045 -0.1637
 1503TIP3    H128704   0.838   0.477  16.793 -2.9636 -0.5976 -1.4370
 1503TIP3    H228705   0.773   0.351  16.847 -1.6274  0.1618  2.2350
 1504TIP3   OH228706   5.199   0.172  15.291  0.3808  0.1061 -0.8564
 1504TIP3    H128707   5.217   0.179  15.197  0.5573 -1.3731 -0.9592
 1504TIP3    H228708   5.116   0.124  15.295 -0.3977  1.4524 -0.2670
 1505TIP3   OH228709   2.977   0.632  14.793  0.2721  0.4547 -0.1598
 1505TIP3    H128710   3.058   0.586  14.815 -0.6125 -0.5001  1.3162
 1505TIP3    H228711   2.927   0.569  14.742  0.6803  1.2610 -1.5902
 1506TIP3   OH228712   5.020   1.824  14.623 -0.1342  0.2008  0.4758
 1506TIP3    H128713   4.988   1.775  14.698 -0.2549 -1.0357 -0.3549
 1506TIP3    H228714   5.110   1.795  14.611 -0.1857  0.2172  0.0156
 1507TIP3   OH228715   4.431   1.420  15.435  0.0575 -0.0716  0.4568
 1507TIP3    H128716   4.340   1.449  15.434  0.6440  1.9333 -0.8770
 1507TIP3    H228717   4.449   1.396  15.344  0.5512 -1.6127  0.9320
 1508TIP3   OH228718   1.002   6.405  15.669 -0.1490  0.1881 -0.1386
 1508TIP3    H128719   1.095   6.394  15.652  0.1202 -0.4803  1.5461
 1508TIP3    H228720   0.998   6.460  15.747 -1.0259 -2.0545  1.5067
 1509TIP3   OH228721   5.506   4.609  15.972 -0.1277 -0.2299  0.1492
 1509TIP3    H128722   5.483   4.564  16.054  0.7836 -0.3298  0.3557
 1509TIP3    H228723   5.437   4.582  15.911  1.6564 -3.9588 -0.4856
 1510TIP3   OH228724   2.826   0.517  14.563  0.0415  0.4717  0.2020
 1510TIP3    H128725   2.745   0.513  14.511 -0.4856 -0.2445  1.0320
 1510TIP3    H228726   2.857   0.427  14.565  0.5185  0.6387  0.4148
 1511TIP3   OH228727   1.617   0.428  17.156 -0.6034  0.0903  0.3882
 1511TIP3    H128728   1.528   0.417  17.189 -0.0292  1.0400  2.4349
 1511TIP3    H228729   1.642   0.516  17.185  2.2217 -1.3796  3.1023
 1512TIP3   OH228730   6.073   0.648  16.847  0.4775  0.1886 -0.0139
 1512TIP3    H128731   6.089   0.631  16.754  0.0959  0.3081 -0.1034
 1512TIP3    H228732   6.050   0.741  16.851  0.5069  0.1862  0.2010
 1513TIP3   OH228733   4.362   0.498  14.297  1.3004  0.0648  0.1560
 1513TIP3    H128734   4.270   0.492  14.274  1.0725 -0.0062  1.0427
 1513TIP3    H228735   4.369   0.579  14.348  1.2427 -1.0712  2.1057
 1514TIP3   OH228736   0.411   5.158  15.907 -0.3339  0.5967 -0.1723
 1514TIP3    H128737   0.470   5.102  15.958 -1.6420 -0.2084  0.5098
 1514TIP3    H228738   0.329   5.159  15.957 -1.0047  1.4596 -1.2342
 1515TIP3   OH228739   3.571   5.307  15.476  0.2553 -0.1630 -0.1937
 1515TIP3    H128740   3.524   5.363  15.415  0.9972 -2.0585 -2.6949
 1515TIP3    H228741   3.662   5.336  15.470  0.1234  0.6630  1.3026
 1516TIP3   OH228742   4.152   2.720  15.113  0.1054 -0.2605 -0.9009
 1516TIP3    H128743   4.179   2.771  15.189 -0.7159 -3.1289  1.4901
 1516TIP3    H228744   4.073   2.674  15.141  0.2629 -2.1077 -3.1906
 1517TIP3   OH228745   0.709   5.852  16.263 -0.2983  0.4792  0.3727
 1517TIP3    H128746   0.728   5.938  16.226 -0.9563  0.4587 -0.0210
 1517TIP3    H228747   0.645   5.869  16.332  0.6417  0.4718  1.2808
 1518TIP3   OH228748   4.302   5.903  13.774 -0.5894  0.0358 -0.4092
 1518TIP3    H128749   4.250   5.970  13.729 -0.7443  0.8313  0.9302
 1518TIP3    H228750   4.242   5.828  13.782 -0.6504 -0.0241 -1.2476
 1519TIP3   OH228751   0.046   0.967  14.427 -0.5672  0.2020 -0.1628
 1519TIP3    H128752   0.062   0.926  14.342  1.0548 -1.8863  1.0594
 1519TIP3    H228753  -0.020   0.913  14.468  0.0941  0.0043  0.6660
 1520TIP3   OH228754   6.197   5.971  14.894 -0.5071  0.2512  0.4211
 1520TIP3    H128755   6.222   5.923  14.973 -0.3834 -0.2678  0.0661
 1520TIP3    H228756   6.144   6.044  14.927 -0.4485  0.0455  0.9859
 1521TIP3   OH228757   5.551   3.219  15.603 -0.3721  0.0359 -0.2581
 1521TIP3    H128758   5.464   3.212  15.563 -1.1682  0.7174  1.2605
 1521TIP3    H228759   5.565   3.312  15.615 -0.1753 -0.1458  1.0439
 1522TIP3   OH228760   4.620   3.890  15.773  0.4698 -0.0309  0.1764
 1522TIP3    H128761   4.672   3.827  15.822  0.9778 -0.4050 -0.8197
 1522TIP3    H228762   4.664   3.897  15.688 -0.1012  0.9754 -0.0566
 1523TIP3   OH228763   1.946   1.076  14.103 -0.2699  0.1058 -0.2971
 1523TIP3    H128764   2.039   1.057  14.097  0.1623  1.2091  1.9973
 1523TIP3    H228765   1.913   1.016  14.169 -1.1791 -0.1735 -0.9817
 1524TIP3   OH228766   1.632   1.142  16.752  0.1466  0.5701 -0.3259
 1524TIP3    H128767   1.573   1.068  16.739  1.0506  0.0086 -1.5056
 1524TIP3    H228768   1.587   1.198  16.814 -1.0417 -0.4566 -0.2102
 1525TIP3   OH228769   6.106   1.081  15.412 -0.1418  0.6968  0.0563
 1525TIP3    H128770   6.097   1.045  15.324 -0.7046  1.5990 -0.2649
 1525TIP3    H228771   6.196   1.113  15.416  0.2695 -0.4177  0.2394
 1526TIP3   OH228772   4.223   3.617  14.565  0.0725 -0.4344 -0.4846
 1526TIP3    H128773   4.283   3.561  14.615 -0.4731 -1.2030 -0.6746
 1526TIP3    H228774   4.218   3.574  14.479  0.8177  0.7355 -1.1449
 1527TIP3   OH228775   1.592   1.401  14.978 -0.3285 -0.9495 -0.1362
 1527TIP3    H128776   1.603   1.378  15.070 -0.1659 -3.1011 -0.6414
 1527TIP3    H228777   1.502   1.375  14.958 -0.8540  0.8032 -0.2894
 1528TIP3   OH228778   0.674   1.878  16.246  0.4488 -0.2421  0.1815
 1528TIP3    H128779   0.638   1.944  16.306  0.9562 -0.7114  1.0299
 1528TIP3    H228780   0.603   1.858  16.186  0.0596  0.5560  0.3641
 1529TIP3   OH228781   6.528   2.739  13.890  0.4898  0.4209 -0.7047
 1529TIP3    H128782   6.590   2.683  13.844  1.2545  0.6338  0.0362
 1529TIP3    H228783   6.448   2.735  13.838  1.1875  0.3080 -1.7888
 1530TIP3   OH228784   4.577   2.721  16.390  0.3099 -0.1034 -0.1387
 1530TIP3    H128785   4.518   2.713  16.465 -0.4414 -0.0881 -0.7104
 1530TIP3    H228786   4.585   2.632  16.356  2.9238 -0.6383  1.6050
 1531TIP3   OH228787   2.436   5.746  16.996  0.1158 -0.3923  0.0549
 1531TIP3    H128788   2.419   5.812  16.928 -0.6309 -2.3878 -1.8103
 1531TIP3    H228789   2.442   5.796  17.077  0.8213  2.0960 -1.4227
 1532TIP3   OH228790   5.674   2.026  15.486 -0.3204 -0.5864 -0.5667
 1532TIP3    H128791   5.679   2.094  15.553 -0.8996 -1.8928  0.8749
 1532TIP3    H228792   5.766   2.003  15.469 -0.1741 -0.6223  0.2128
 1533TIP3   OH228793   0.535   1.078  16.706 -0.2788  0.1309 -0.0732
 1533TIP3    H128794   0.472   1.023  16.753 -1.1328  1.0386 -0.1072
 1533TIP3    H228795   0.601   1.101  16.771 -0.6078  0.0927  0.2787
 1534TIP3   OH228796   1.976   3.567  16.299 -0.4099 -0.2634 -0.2286
 1534TIP3    H128797   1.888   3.583  16.266  0.0004 -0.4563 -1.4362
 1534TIP3    H228798   1.972   3.478  16.335 -1.1250  0.3188  1.2172
 1535TIP3   OH228799   1.726   2.946  14.337  0.2624 -0.2754 -0.0854
 1535TIP3    H128800   1.769   2.879  14.389  1.0701  1.3209  1.3971
 1535TIP3    H228801   1.795   3.008  14.313 -0.6970  0.8558 -0.0650
 1536TIP3   OH228802   5.419   4.424  14.572  0.1296  0.2809  0.2163
 1536TIP3    H128803   5.334   4.392  14.541 -0.0675  1.3781 -0.4122
 1536TIP3    H228804   5.482   4.392  14.507  0.4898 -2.0770  1.6240
 1537TIP3   OH228805   6.328   1.663  15.438  0.7870  0.8128  0.0751
 1537TIP3    H128806   6.264   1.703  15.496  2.2878  2.2973  0.7895
 1537TIP3    H228807   6.398   1.633  15.497  1.1989  0.0885 -0.7567
 1538TIP3   OH228808   5.563   3.686  15.884  0.9242 -0.1797 -0.7863
 1538TIP3    H128809   5.561   3.779  15.859  0.2587 -0.2333 -0.9445
 1538TIP3    H228810   5.487   3.648  15.841 -0.8510 -0.0963  1.9810
 1539TIP3   OH228811   4.834   6.500  14.742 -0.1042 -0.3279 -0.2639
 1539TIP3    H128812   4.898   6.550  14.792 -1.6267  0.9737  0.4751
 1539TIP3    H228813   4.798   6.437  14.805 -1.0171  0.3614 -0.0776
 1540TIP3   OH228814   3.304   5.872  16.652 -0.2307  0.3269 -0.4778
 1540TIP3    H128815   3.366   5.843  16.585  1.0697 -0.0077  0.8136
 1540TIP3    H228816   3.323   5.817  16.728 -1.7780  0.5826  0.1335
 1541TIP3   OH228817   0.218   6.402  15.324 -0.0127  0.6107  0.2772
 1541TIP3    H128818   0.309   6.425  15.345 -0.4991  1.9583  0.9925
 1541TIP3    H228819   0.166   6.473  15.360 -1.2841  0.4382 -1.1147
 1542TIP3   OH228820   5.678   4.770  13.918  0.0342  0.2580 -0.3827
 1542TIP3    H128821   5.600   4.811  13.882  0.1563  0.8426  0.0090
 1542TIP3    H228822   5.665   4.773  14.013  0.3367 -0.0268 -0.3327
 1543TIP3   OH228823   1.658   4.569  16.698 -0.5947 -0.0353 -0.4127
 1543TIP3    H128824   1.603   4.569  16.619  1.1723  1.8281 -1.7423
 1543TIP3    H228825   1.657   4.660  16.728 -0.4527 -0.5324  1.1678
 1544TIP3   OH228826   4.200   2.060  16.095  0.0476 -0.3513  0.5474
 1544TIP3    H128827   4.284   2.017  16.111  1.1514  1.2966 -0.5371
 1544TIP3    H228828   4.189   2.058  16.000  1.0638  3.1945  0.2081
 1545TIP3   OH228829   4.795   3.639  17.225  0.1880 -0.0540  0.1038
 1545TIP3    H128830   4.822   3.720  17.182 -0.1449 -1.3080 -2.7698
 1545TIP3    H228831   4.768   3.665  17.313 -4.0920  3.7327 -1.9183
 1546TIP3   OH228832   3.232   1.055  14.486  0.0643  0.0859  0.1520
 1546TIP3    H128833   3.277   0.970  14.484  1.5771  0.8697 -1.2850
 1546TIP3    H228834   3.297   1.116  14.522 -0.4736  0.9116 -0.2449
 1547TIP3   OH228835   3.205   5.703  15.847 -0.0987 -0.2204 -0.7283
 1547TIP3    H128836   3.256   5.636  15.892 -2.0287 -1.5849 -0.4259
 1547TIP3    H228837   3.202   5.776  15.909 -1.2062 -1.3937  0.6937
 1548TIP3   OH228838   0.655   1.995  13.998  0.2563 -0.3864  0.0810
 1548TIP3    H128839   0.645   2.089  13.986  0.0070 -0.4987 -0.6282
 1548TIP3    H228840   0.740   1.985  14.041 -0.2699  0.2339  1.3045
 1549TIP3   OH228841   3.246   6.485  16.634 -0.3500  0.3098  0.5288
 1549TIP3    H128842   3.246   6.559  16.574 -0.3532  0.0380  0.1895
 1549TIP3    H228843   3.174   6.503  16.694 -0.0631  0.8003  0.7247
 1550TIP3   OH228844   4.364   4.034  17.044  0.3187 -0.0493  0.2864
 1550TIP3    H128845   4.341   4.113  16.995  0.1733 -1.2801 -1.7641
 1550TIP3    H228846   4.457   4.022  17.028  0.6219  0.3593  1.6340
 1551TIP3   OH228847   4.074   2.216  14.646 -0.4306  0.2903  0.2730
 1551TIP3    H128848   4.071   2.294  14.702 -0.2477  0.6811 -0.2518
 1551TIP3    H228849   4.117   2.246  14.566  1.1583 -0.7733  0.7015
 1552TIP3   OH228850   6.665   6.094  16.680 -0.4190  0.2716 -0.0874
 1552TIP3    H128851   6.597   6.031  16.699 -1.3410  0.7488 -1.6132
 1552TIP3    H228852   6.619   6.178  16.671  0.6817  1.0664  1.2181
 1553TIP3   OH228853   2.621   5.483  15.795  0.1927  0.2541  0.1458
 1553TIP3    H128854   2.634   5.388  15.795  2.4639  0.5076  0.1421
 1553TIP3    H228855   2.578   5.501  15.711 -0.9510 -0.8288  0.4722
 1554TIP3   OH228856   5.984   3.848  14.565  0.4697  0.4267  0.3541
 1554TIP3    H128857   6.067   3.881  14.531 -0.3633  0.5475 -1.7084
 1554TIP3    H228858   5.995   3.753  14.568  0.8084  0.4686  0.4214
 1555TIP3   OH228859   2.163   3.182  15.190  0.4231  0.0343  0.0229
 1555TIP3    H128860   2.175   3.273  15.214 -2.4475  0.6020 -0.2805
 1555TIP3    H228861   2.108   3.146  15.260  0.2570 -1.0234 -0.6222
 1556TIP3   OH228862   5.330   3.257  15.436 -0.4495 -0.2796  0.6844
 1556TIP3    H128863   5.312   3.351  15.436 -0.3295 -0.1496  3.9104
 1556TIP3    H228864   5.260   3.220  15.383 -0.2919  1.6093 -0.9740
 1557TIP3   OH228865   6.309   4.248  14.464  0.0019  0.4158 -0.2424
 1557TIP3    H128866   6.266   4.316  14.517  0.8506  0.3442  0.5593
 1557TIP3    H228867   6.385   4.222  14.516  0.3181 -0.3454 -1.0711
 1558TIP3   OH228868   5.275   1.732  14.607 -0.0305  0.1547  0.2860
 1558TIP3    H128869   5.339   1.764  14.543  0.1195  1.4808  1.0644
 1558TIP3    H228870   5.312   1.755  14.692 -1.0707  0.0461  0.7828
 1559TIP3   OH228871   3.133   2.185  14.039 -0.1229 -0.1370 -0.2709
 1559TIP3    H128872   3.093   2.098  14.048 -0.2384 -0.0838 -0.2794
 1559TIP3    H228873   3.188   2.177  13.961 -2.9151  0.8488 -2.5084
 1560TIP3   OH228874   0.429   0.826  15.210  0.1426 -0.4065 -0.0084
 1560TIP3    H128875   0.463   0.811  15.121  0.7737 -1.5427  0.3969
 1560TIP3    H228876   0.348   0.875  15.197 -1.5097 -3.2569 -1.4739
 1561TIP3   OH228877   2.356   5.426  14.882 -0.1066  0.0342 -0.0268
 1561TIP3    H128878   2.436   5.392  14.843 -0.5952 -2.3529  0.8850
 1561TIP3    H228879   2.288   5.409  14.817 -0.2898 -0.4254  0.2756
 1562TIP3   OH228880   3.523   0.020  15.391 -0.1399  0.0535  0.4375
 1562TIP3    H128881   3.595   0.056  15.339  0.3268 -1.5372 -0.0995
 1562TIP3    H228882   3.459  -0.008  15.326 -1.7411  2.3387  0.9426
 1563TIP3   OH228883   4.145   1.932  16.338 -0.1855  0.0384  0.3569
 1563TIP3    H128884   4.145   1.976  16.252  0.0108 -0.3515  0.1549
 1563TIP3    H228885   4.069   1.873  16.334 -0.9579  0.9667  0.9496
 1564TIP3   OH228886   5.442   5.744  16.390  0.7259 -0.5632 -0.0847
 1564TIP3    H128887   5.464   5.769  16.300 -0.5449  2.1641  0.2656
 1564TIP3    H228888   5.366   5.686  16.381  0.9975 -0.8166 -0.7821
 1565TIP3   OH228889   1.203   0.859  16.354 -0.0502 -0.2989  0.2739
 1565TIP3    H128890   1.159   0.786  16.399 -1.6764  0.5932  0.2010
 1565TIP3    H228891   1.189   0.934  16.412  1.1459  0.0767  0.0914
 1566TIP3   OH228892   1.283   1.914  14.225  0.3898 -0.0702 -0.4626
 1566TIP3    H128893   1.265   1.849  14.293  0.2547 -1.8886 -2.1389
 1566TIP3    H228894   1.281   1.864  14.143 -0.3122  2.1664 -1.9132
 1567TIP3   OH228895   4.770   5.961  14.778 -0.5498  0.1819 -0.2947
 1567TIP3    H128896   4.812   5.920  14.703  0.0732  2.5348 -1.3251
 1567TIP3    H228897   4.839   5.964  14.845  0.1005  1.4499 -0.9826
 1568TIP3   OH228898   5.411   2.580  14.282 -0.3421  0.3502  0.7140
 1568TIP3    H128899   5.400   2.663  14.330 -1.6155  0.5602  0.1131
 1568TIP3    H228900   5.340   2.525  14.315 -1.5155  0.6401 -1.1627
 1569TIP3   OH228901   5.756   3.970  14.230  0.4074 -0.1068  0.7181
 1569TIP3    H128902   5.830   4.017  14.270  0.1330  0.3418  0.7037
 1569TIP3    H228903   5.756   3.999  14.139  1.2179 -1.3592  0.2987
 1570TIP3   OH228904   0.651   2.913  16.552 -0.2600  0.0749  0.1925
 1570TIP3    H128905   0.562   2.915  16.517 -0.2791  1.3050  0.2543
 1570TIP3    H228906   0.696   2.985  16.507  0.3165  0.3296  1.1430
 1571TIP3   OH228907   3.160   1.875  13.913  0.9006 -0.0935 -0.0948
 1571TIP3    H128908   3.148   1.811  13.842 -2.0500  2.2172 -1.8959
 1571TIP3    H228909   3.238   1.925  13.886  1.3397 -0.8680 -0.3121
 1572TIP3   OH228910   0.132   0.593  15.224 -0.1692 -0.0523  0.6893
 1572TIP3    H128911   0.112   0.595  15.318  0.1707  0.3558  0.7583
 1572TIP3    H228912   0.146   0.501  15.205 -1.0220 -0.2266  0.8666
 1573TIP3   OH228913   2.719   0.888  17.238 -0.5679  0.2111 -0.0832
 1573TIP3    H128914   2.681   0.897  17.326 -0.6365  1.3988 -0.2196
 1573TIP3    H228915   2.644   0.898  17.179 -0.2594  1.2347 -0.3193
 1574TIP3   OH228916   0.987   2.578  15.831  0.1448 -0.1524  0.0950
 1574TIP3    H128917   1.043   2.506  15.802 -0.7352 -0.7187 -0.2620
 1574TIP3    H228918   0.971   2.630  15.753  1.6499  1.0758  0.5649
 1575TIP3   OH228919   5.311   5.849  16.656  0.0562  0.4861 -0.0572
 1575TIP3    H128920   5.345   5.841  16.567 -1.0311  1.7135 -0.6188
 1575TIP3    H228921   5.222   5.816  16.651  0.1028  0.2459  0.6547
 1576TIP3   OH228922   6.231   4.656  15.287 -0.2643 -0.0322 -1.0821
 1576TIP3    H128923   6.223   4.585  15.350  2.6236 -0.4455 -1.0798
 1576TIP3    H228924   6.186   4.730  15.328 -1.6784 -1.2992 -0.2496
 1577TIP3   OH228925   1.317   0.449  16.044  0.3991  0.2714  0.3976
 1577TIP3    H128926   1.403   0.411  16.058  0.8812  1.4313  0.7534
 1577TIP3    H228927   1.307   0.453  15.949  0.6300 -0.1041  0.3573
 1578TIP3   OH228928   6.594   4.499  14.702 -0.0329  0.0899  0.5344
 1578TIP3    H128929   6.681   4.482  14.738  1.0839 -0.0450 -2.0244
 1578TIP3    H228930   6.552   4.414  14.699  0.2746 -0.0656  0.5554
 1579TIP3   OH228931   2.371   0.427  16.870  0.1375 -0.1261 -0.2620
 1579TIP3    H128932   2.365   0.507  16.817  2.4715 -0.0256 -0.4756
 1579TIP3    H228933   2.459   0.429  16.906 -0.2970 -1.8518  1.0089
 1580TIP3   OH228934   0.451   6.401  14.529  1.3446 -0.6773 -0.0183
 1580TIP3    H128935   0.495   6.476  14.569  1.0759 -1.1494  1.2111
 1580TIP3    H228936   0.437   6.341  14.602  0.8793 -1.5960 -0.8536
 1581TIP3   OH228937   4.426   0.312  16.957  0.4675 -0.1002  0.2777
 1581TIP3    H128938   4.515   0.334  16.930  0.7630 -0.4561  0.9330
 1581TIP3    H228939   4.407   0.372  17.030  0.8061 -1.1227  1.2419
 1582TIP3   OH228940   0.390   5.223  15.094  0.0413 -0.2316 -0.5712
 1582TIP3    H128941   0.442   5.270  15.029  0.7123 -1.3678 -0.8876
 1582TIP3    H228942   0.299   5.237  15.067  0.2948 -0.3484 -1.5118
 1583TIP3   OH228943   0.135   2.746  16.759 -0.2349 -0.4061 -0.0053
 1583TIP3    H128944   0.196   2.809  16.721 -0.9000  0.0202 -0.3788
 1583TIP3    H228945   0.148   2.666  16.708  0.0486 -0.3340 -0.0473
 1584TIP3   OH228946   6.246   2.421  16.256 -0.4319  0.0050 -0.1176
 1584TIP3    H128947   6.340   2.438  16.249 -0.3063 -1.0941 -1.2901
 1584TIP3    H228948   6.219   2.472  16.333  1.4654 -1.1183  1.4119
 1585TIP3   OH228949   2.220   5.389  16.347  0.6118  0.3098 -0.0551
 1585TIP3    H128950   2.191   5.331  16.277  0.1362 -1.2640  1.3898
 1585TIP3    H228951   2.139   5.422  16.386  0.8483  0.3754  0.3906
 1586TIP3   OH228952   4.351   1.826  16.097  0.4637  0.0628 -0.2731
 1586TIP3    H128953   4.268   1.778  16.091 -0.7955  1.9167  1.1425
 1586TIP3    H228954   4.370   1.851  16.007  0.3433 -1.6866 -0.8305
 1587TIP3   OH228955   1.085   3.643  16.848 -0.1879  0.5926  0.2897
 1587TIP3    H128956   1.165   3.696  16.846 -0.7951  1.5264 -0.8052
 1587TIP3    H228957   1.055   3.649  16.939  1.8997 -1.2655  1.1939
 1588TIP3   OH228958   2.974   4.062  15.938  0.4797  0.0719  0.0035
 1588TIP3    H128959   3.029   4.037  15.863 -1.2071  0.0493 -1.2766
 1588TIP3    H228960   3.024   4.130  15.982  2.0337 -0.7102 -0.4669
 1589TIP3   OH228961   5.054   3.526  14.188  0.3267  0.3825  0.1018
 1589TIP3    H128962   5.108   3.451  14.213 -0.7321  0.1386  1.8622
 1589TIP3    H228963   5.117   3.589  14.152  1.4518 -0.7505  0.0017
 1590TIP3   OH228964   6.203   0.122  16.909  0.3732  0.0993 -0.7345
 1590TIP3    H128965   6.202   0.029  16.930 -0.3960  0.1038 -0.7168
 1590TIP3    H228966   6.116   0.139  16.873  0.1060  1.0389  0.3048
 1591TIP3   OH228967   4.896   4.380  16.462 -0.2479 -0.4332 -0.3316
 1591TIP3    H128968   4.908   4.372  16.367  2.3435  1.3565 -0.2578
 1591TIP3    H228969   4.985   4.374  16.498 -0.7982  1.9590  1.6897
 1592TIP3   OH228970   5.178   0.163  14.146  0.1325 -0.4178 -0.5861
 1592TIP3    H128971   5.103   0.111  14.175  0.4560 -0.4404  0.2421
 1592TIP3    H228972   5.253   0.127  14.194  0.5897 -0.0786 -1.0347
 1593TIP3   OH228973   6.143   2.136  15.911  0.1514  0.6446 -0.0562
 1593TIP3    H128974   6.048   2.134  15.900  0.0825  1.9469  0.0891
 1593TIP3    H228975   6.170   2.044  15.906 -1.1648  0.2089  0.4386
 1594TIP3   OH228976   5.481   1.969  15.918  0.1090 -0.0584 -0.2998
 1594TIP3    H128977   5.516   2.057  15.909  0.3012 -0.2046 -1.0959
 1594TIP3    H228978   5.516   1.922  15.842 -0.4372 -0.6671 -0.1800
 1595TIP3   OH228979   2.770   5.128  15.102  0.5171 -0.2952  0.3379
 1595TIP3    H128980   2.755   5.069  15.028 -0.2951  2.7177 -2.1038
 1595TIP3    H228981   2.859   5.106  15.131  0.9627 -1.4466 -1.6631
 1596TIP3   OH228982   4.119   0.924  16.852 -0.5942 -0.4682 -0.2492
 1596TIP3    H128983   4.189   0.940  16.789  0.6548 -0.9035  1.0008
 1596TIP3    H228984   4.141   0.977  16.928 -2.1035  0.0729 -0.1561
 1597TIP3   OH228985   2.715   2.688  16.276  0.0223 -0.0389  0.5781
 1597TIP3    H128986   2.810   2.692  16.270  0.0497 -0.0149  0.9814
 1597TIP3    H228987   2.699   2.644  16.360 -0.3273  0.8115  0.9660
 1598TIP3   OH228988   4.291   6.416  15.643 -0.4760 -0.0792  0.3219
 1598TIP3    H128989   4.348   6.383  15.574  1.5647 -0.2438  1.9829
 1598TIP3    H228990   4.219   6.459  15.596  1.3814  0.8284 -1.9138
 1599TIP3   OH228991   2.207   2.915  15.539 -0.3735  0.0906  0.0533
 1599TIP3    H128992   2.235   2.865  15.462 -1.4261 -3.5283  1.7649
 1599TIP3    H228993   2.281   2.907  15.600 -1.2417 -1.0089  1.0004
 1600TIP3   OH228994   4.201   3.773  13.748  0.2493  0.0407  0.4673
 1600TIP3    H128995   4.283   3.817  13.771  0.7448 -0.5002 -0.2246
 1600TIP3    H228996   4.211   3.684  13.782 -0.0570 -0.0258  0.3856
 1601TIP3   OH228997   5.204   3.718  14.086 -0.3465 -0.3102  0.0169
 1601TIP3    H128998   5.230   3.711  13.994  0.1228 -1.3117  0.2032
 1601TIP3    H228999   5.215   3.810  14.107  1.2173 -0.3474 -0.4750
 1602TIP3   OH229000   1.171   1.981  14.590  0.4139  0.3365 -0.4535
 1602TIP3    H129001   1.140   1.913  14.531  1.0929  0.1022 -0.5504
 1602TIP3    H229002   1.108   2.052  14.581  0.4271  0.2426 -1.3389
 1603TIP3   OH229003   3.187   0.388  14.797 -0.1365  0.6089  0.1512
 1603TIP3    H129004   3.122   0.318  14.792  1.0966 -0.5369 -0.4316
 1603TIP3    H229005   3.205   0.398  14.890 -2.6066  2.4010  0.5364
 1604TIP3   OH229006   2.584   2.595  17.050 -0.3206  0.4779 -0.0559
 1604TIP3    H129007   2.527   2.588  17.126  0.7558  1.7884  0.9255
 1604TIP3    H229008   2.615   2.505  17.035 -0.6617  0.1795  0.9536
 1605TIP3   OH229009   0.834   1.900  15.801 -0.1966 -0.2903 -0.4903
 1605TIP3    H129010   0.886   1.942  15.870 -0.5631 -0.3543 -0.1735
 1605TIP3    H229011   0.895   1.839  15.758  0.5096  0.9472 -1.3208
 1606TIP3   OH229012   0.179   5.918  15.989 -0.0512  0.2432  0.2045
 1606TIP3    H129013   0.224   5.834  15.983 -0.7236 -0.3240  2.3165
 1606TIP3    H229014   0.224   5.974  15.925 -0.6161 -2.1021 -2.4368
 1607TIP3   OH229015   4.651   5.118  14.523 -0.2821 -0.0531  0.0311
 1607TIP3    H129016   4.713   5.115  14.449 -0.3419  0.6164 -0.0516
 1607TIP3    H229017   4.706   5.130  14.600 -0.2609 -0.1921  0.0387
 1608TIP3   OH229018   5.269   5.989  13.824  0.3224 -0.1475 -0.4912
 1608TIP3    H129019   5.220   6.055  13.775  0.4894  0.0870 -0.3387
 1608TIP3    H229020   5.361   6.011  13.810  0.3787  0.8512  1.1862
 1609TIP3   OH229021   0.105   5.299  16.532  0.0365 -0.3778  0.6032
 1609TIP3    H129022   0.021   5.322  16.573 -0.0096  2.3033 -0.7943
 1609TIP3    H229023   0.088   5.305  16.438  1.6026 -0.6044  0.2797
 1610TIP3   OH229024   0.445   1.318  15.740  0.0303 -0.0926 -0.0947
 1610TIP3    H129025   0.459   1.261  15.816  1.8322  0.3244 -0.0592
 1610TIP3    H229026   0.446   1.258  15.665  0.9740 -0.2436  0.0195
 1611TIP3   OH229027   4.257   3.795  17.136  0.1747  0.5727 -0.3623
 1611TIP3    H129028   4.324   3.729  17.122 -0.0346  0.4107 -0.5980
 1611TIP3    H229029   4.292   3.874  17.095  0.4038  0.5973 -0.1216
 1612TIP3   OH229030   5.304   0.962  16.397 -0.1429  0.3134  0.1100
 1612TIP3    H129031   5.221   0.939  16.440 -0.0744 -0.6683 -0.2617
 1612TIP3    H229032   5.294   0.931  16.307  0.6368  0.1520  0.0720
 1613TIP3   OH229033   5.675   2.791  16.411  0.7553  0.1448  0.2715
 1613TIP3    H129034   5.646   2.867  16.461 -0.0344  0.3622 -0.4924
 1613TIP3    H229035   5.765   2.776  16.439  0.2737  0.1218  1.9201
 1614TIP3   OH229036   0.504   3.117  15.623  0.3287 -0.1133  0.2693
 1614TIP3    H129037   0.541   3.203  15.606  0.1993 -0.3033 -1.1308
 1614TIP3    H229038   0.496   3.077  15.536  1.7306 -2.0956  0.9673
 1615TIP3   OH229039   2.228   3.851  14.340  0.0821  0.1820 -0.5042
 1615TIP3    H129040   2.280   3.786  14.387  0.0179 -0.8443 -1.7793
 1615TIP3    H229041   2.271   3.934  14.358 -0.5606  0.0181  2.1857
 1616TIP3   OH229042   1.028   2.837  14.461 -0.5263 -0.2231 -0.2990
 1616TIP3    H129043   1.038   2.928  14.434 -0.1173 -0.0862  0.2881
 1616TIP3    H229044   0.968   2.799  14.396 -0.6693  0.4479 -0.5717
 1617TIP3   OH229045   5.593   3.538  15.334 -0.5143 -0.1510  0.0254
 1617TIP3    H129046   5.570   3.512  15.424 -1.4276  1.2436  0.2223
 1617TIP3    H229047   5.619   3.630  15.341 -0.9800  0.0949 -1.1907
 1618TIP3   OH229048   2.309   5.751  14.166 -0.5963 -0.1315  0.0011
 1618TIP3    H129049   2.270   5.769  14.081  0.3530 -0.3400 -0.4894
 1618TIP3    H229050   2.373   5.821  14.178  1.3517 -1.6845 -0.7965
 1619TIP3   OH229051   0.466   3.752  15.454  0.3662  0.2643  0.0426
 1619TIP3    H129052   0.386   3.792  15.419  1.0144  1.6417  0.0954
 1619TIP3    H229053   0.436   3.700  15.529 -0.6534 -0.3852 -0.7779
 1620TIP3   OH229054   4.083   4.109  15.789 -0.4860 -0.0287  0.6894
 1620TIP3    H129055   4.156   4.154  15.831 -0.4738  0.3553  0.2622
 1620TIP3    H229056   4.011   4.114  15.853 -0.1478 -0.4021  1.1059
 1621TIP3   OH229057   0.825   5.091  14.328 -0.1976  0.7872  0.0852
 1621TIP3    H129058   0.741   5.056  14.356 -1.0380  2.7428  0.1860
 1621TIP3    H229059   0.852   5.151  14.398  0.5494  1.3010 -0.6122
 1622TIP3   OH229060   3.445   0.082  14.830 -0.6017  0.4552 -0.9479
 1622TIP3    H129061   3.437   0.176  14.817 -1.2822  0.0520 -4.0612
 1622TIP3    H229062   3.488   0.049  14.751 -0.7571 -1.9117 -0.1523
 1623TIP3   OH229063   1.585   1.999  13.454  0.2389  0.4603 -0.3391
 1623TIP3    H129064   1.659   1.958  13.499 -0.8199 -1.3672 -0.1653
 1623TIP3    H229065   1.540   1.927  13.410 -0.2486  1.8327 -2.2117
 1624TIP3   OH229066   2.370   5.955  16.225  0.5548 -0.4789  0.4755
 1624TIP3    H129067   2.357   5.998  16.141  0.9111  2.6891  1.9016
 1624TIP3    H229068   2.448   5.901  16.213  1.4737  1.0572 -0.8596
 1625TIP3   OH229069   6.269   6.034  14.643 -0.1276  0.3002  0.0627
 1625TIP3    H129070   6.313   6.117  14.625 -0.2824  0.1370 -1.1600
 1625TIP3    H229071   6.254   6.035  14.738  0.5278  1.3305  0.1740
 1626TIP3   OH229072   0.994   2.513  14.013 -0.4360 -0.3117  0.2595
 1626TIP3    H129073   1.007   2.592  14.066  0.4842 -0.0461 -0.3352
 1626TIP3    H229074   0.921   2.534  13.956  0.8457  0.7692 -1.0628
 1627TIP3   OH229075   5.679   5.676  16.504  0.1536  0.1351  0.5600
 1627TIP3    H129076   5.698   5.766  16.531  2.5434  0.3976 -1.6661
 1627TIP3    H229077   5.614   5.685  16.434 -1.7961 -0.1788  2.2076
 1628TIP3   OH229078   4.120   1.677  15.727  0.1413 -0.5269 -0.0928
 1628TIP3    H129079   4.144   1.697  15.818 -0.9000  0.4976 -0.0331
 1628TIP3    H229080   4.199   1.697  15.677  0.7330 -1.1232  0.5759
 1629TIP3   OH229081   6.259   2.390  15.182 -0.0329 -0.7547 -0.0240
 1629TIP3    H129082   6.195   2.428  15.243  0.1750 -0.6694  0.1435
 1629TIP3    H229083   6.237   2.297  15.178 -1.2914 -0.4215 -1.3551
 1630TIP3   OH229084   2.656   1.473  16.768 -0.2564  0.1446 -0.6138
 1630TIP3    H129085   2.645   1.438  16.856 -0.2741  0.8286 -0.3439
 1630TIP3    H229086   2.745   1.447  16.743  0.5383  1.7474  0.4287
 1631TIP3   OH229087   3.864   5.440  14.521  0.3285 -0.0878  0.4413
 1631TIP3    H129088   3.930   5.476  14.462 -0.9316  0.0303 -0.9453
 1631TIP3    H229089   3.883   5.481  14.606  1.0651  1.1480 -0.2877
 1632TIP3   OH229090   4.457   2.261  15.309  0.4120 -0.5689  0.0604
 1632TIP3    H129091   4.463   2.166  15.306 -1.2759 -0.6998 -0.5335
 1632TIP3    H229092   4.398   2.279  15.382 -0.2129 -0.0617 -0.5467
 1633TIP3   OH229093   4.200   3.373  15.641  0.4294 -0.3462 -0.3025
 1633TIP3    H129094   4.196   3.468  15.625  0.3544 -0.3919 -0.5557
 1633TIP3    H229095   4.240   3.337  15.562 -0.4064 -0.6216 -0.6089
 1634TIP3   OH229096   2.937   4.062  13.945 -0.3805  0.2966  0.0448
 1634TIP3    H129097   2.864   4.106  13.902  0.6654 -1.4525 -3.9125
 1634TIP3    H229098   3.004   4.054  13.877  1.5519 -2.6025  2.0780
 1635TIP3   OH229099   5.776   0.536  15.714  0.3269  0.5320  0.0193
 1635TIP3    H129100   5.717   0.568  15.782  0.6102 -0.3036  0.6683
 1635TIP3    H229101   5.862   0.570  15.739  0.8433 -1.5418  1.3265
 1636TIP3   OH229102   0.345   4.962  14.770 -0.4556 -0.1616 -0.0239
 1636TIP3    H129103   0.257   4.993  14.790 -0.8487 -0.0400 -1.8244
 1636TIP3    H229104   0.335   4.912  14.689  0.8977 -1.3802  0.5092
 1637TIP3   OH229105   3.224   5.229  16.769  0.5576 -0.7659 -0.0265
 1637TIP3    H129106   3.289   5.184  16.824  0.3920 -0.3616  0.5045
 1637TIP3    H229107   3.187   5.296  16.826 -0.0917 -0.7761 -0.4335
 1638TIP3   OH229108   2.056   4.398  16.337 -0.4370  0.2354  0.2975
 1638TIP3    H129109   2.061   4.465  16.268  1.3225 -0.9636 -0.8267
 1638TIP3    H229110   2.101   4.437  16.412  1.2186  0.1014 -0.5799
 1639TIP3   OH229111   0.504   4.981  16.430  0.1462 -0.1511  0.4806
 1639TIP3    H129112   0.521   4.902  16.379  2.1106  0.8345 -0.5050
 1639TIP3    H229113   0.436   4.955  16.493 -0.1957 -2.2300 -0.6534
 1640TIP3   OH229114   4.737   1.439  14.615  0.8457 -0.3211  0.3007
 1640TIP3    H129115   4.709   1.530  14.625 -1.6440 -0.8843 -0.9294
 1640TIP3    H229116   4.794   1.423  14.690  1.2526  2.1985  0.6004
 1641TIP3   OH229117   0.053   2.749  16.098  0.2201  0.1647 -0.1816
 1641TIP3    H129118  -0.011   2.760  16.169  1.8827  1.4829  1.2213
 1641TIP3    H229119   0.130   2.713  16.141  0.3609 -1.7870 -1.9106
 1642TIP3   OH229120   2.200   5.090  14.968 -0.3526 -0.3302 -0.2180
 1642TIP3    H129121   2.271   5.122  15.024  0.8189 -2.3213 -0.4870
 1642TIP3    H229122   2.157   5.170  14.937 -1.1687  0.9111  3.5219
 1643TIP3   OH229123   6.695   0.350  16.428  0.3409  0.4901  0.1654
 1643TIP3    H129124   6.774   0.383  16.385  0.8916  0.1469  0.8915
 1643TIP3    H229125   6.713   0.357  16.521 -0.3596  0.0947  0.3441
 1644TIP3   OH229126   2.003   1.410  14.679 -0.3853  0.0513  0.0209
 1644TIP3    H129127   1.970   1.332  14.635 -0.5590 -2.3044  3.8365
 1644TIP3    H229128   1.925   1.453  14.714 -0.1656  1.1901 -0.8203
 1645TIP3   OH229129   4.287   4.990  15.024 -0.6220  0.4573 -0.4226
 1645TIP3    H129130   4.282   4.902  14.986 -0.2236  0.5657 -0.7329
 1645TIP3    H229131   4.299   5.048  14.949  1.7230  0.5335 -0.0753
 1646TIP3   OH229132   5.788   0.010  16.922 -0.2130 -0.1233 -0.6747
 1646TIP3    H129133   5.803  -0.046  16.846  2.1677  0.0118 -0.3792
 1646TIP3    H229134   5.762   0.094  16.886  0.8229 -0.0855 -1.3626
 1647TIP3   OH229135   1.032   1.086  16.457 -0.3281 -0.2064 -0.1681
 1647TIP3    H129136   1.000   1.092  16.367 -0.4626  0.1686 -0.0944
 1647TIP3    H229137   1.019   1.173  16.494 -1.0573 -0.5748  0.4752
 1648TIP3   OH229138   3.994   0.303  15.574  0.2555  0.5589  0.0236
 1648TIP3    H129139   3.935   0.248  15.625 -0.4806  0.0249 -1.3566
 1648TIP3    H229140   3.994   0.387  15.620  0.0311 -0.0549  1.1742
 1649TIP3   OH229141   2.493   4.212  14.940  0.4176  0.2529 -0.3381
 1649TIP3    H129142   2.429   4.283  14.935 -1.1633 -1.1067 -0.1306
 1649TIP3    H229143   2.548   4.224  14.862  0.5160  1.9761 -0.0434
 1650TIP3   OH229144   5.758   1.472  15.880 -1.0697  0.2399  0.2082
 1650TIP3    H129145   5.826   1.439  15.822  0.3181 -0.2237  2.0007
 1650TIP3    H229146   5.686   1.495  15.822  0.3679  0.1650 -1.7108
 1651TIP3   OH229147   0.469   0.634  14.500 -0.3154 -0.0485 -0.5761
 1651TIP3    H129148   0.514   0.580  14.565  0.2730  0.8605 -0.2193
 1651TIP3    H229149   0.376   0.629  14.526  0.1080  1.9851  1.6558
 1652TIP3   OH229150   5.324   6.549  15.745 -0.6443  0.0746 -0.3786
 1652TIP3    H129151   5.315   6.524  15.653 -2.5839 -0.6859 -0.0213
 1652TIP3    H229152   5.376   6.479  15.783  0.1613  0.3866 -0.8697
 1653TIP3   OH229153   6.561   0.754  13.970  0.1050 -0.0300  0.2626
 1653TIP3    H129154   6.468   0.738  13.989  0.1754 -0.8503 -0.0258
 1653TIP3    H229155   6.561   0.791  13.882  0.1347 -1.6122 -0.4470
 1654TIP3   OH229156   5.101   6.516  17.093 -0.2737  0.2439  0.7834
 1654TIP3    H129157   5.011   6.484  17.083  0.4301 -1.2815 -1.9651
 1654TIP3    H229158   5.094   6.611  17.091 -1.7863  0.1374 -0.0700
 1655TIP3   OH229159   4.984   3.633  14.959  0.5238  0.4436 -0.3830
 1655TIP3    H129160   5.050   3.702  14.953  1.1672 -0.1527 -0.3335
 1655TIP3    H229161   4.938   3.636  14.876  0.3283  1.1416 -0.2554
 1656TIP3   OH229162   1.987   1.955  16.434 -0.3320  0.0474 -0.0203
 1656TIP3    H129163   1.966   2.043  16.466  0.3437  0.2232 -0.0332
 1656TIP3    H229164   2.005   1.904  16.513 -0.6573 -0.0647 -0.0164
 1657TIP3   OH229165   4.820   2.837  16.362 -0.2856 -0.7045 -0.4882
 1657TIP3    H129166   4.737   2.794  16.385  0.7958 -1.3974  2.8219
 1657TIP3    H229167   4.887   2.775  16.393  1.4162  0.8946 -0.8195
 1658TIP3   OH229168   6.295   1.001  16.799 -0.4058 -0.0994  0.4472
 1658TIP3    H129169   6.327   1.000  16.708 -1.2586 -0.1486  0.1375
 1658TIP3    H229170   6.206   0.966  16.793 -0.3488 -0.4115  1.3551
 1659TIP3   OH229171   2.302   2.678  14.940 -0.0187  0.8122 -0.0837
 1659TIP3    H129172   2.262   2.655  15.024  1.1246 -1.1903 -0.0281
 1659TIP3    H229173   2.241   2.644  14.875  0.8705 -1.0657 -0.0015
 1660TIP3   OH229174   2.078   0.052  16.964  0.1953  0.2722  0.2583
 1660TIP3    H129175   2.105   0.116  17.029 -1.2743 -0.3607  1.5778
 1660TIP3    H229176   2.159   0.018  16.927  1.0348  1.2306  1.1856
 1661TIP3   OH229177   3.192   0.548  16.946  0.0707 -0.4089 -0.2640
 1661TIP3    H129178   3.263   0.595  16.990 -0.8678 -1.3549  2.4303
 1661TIP3    H229179   3.235   0.476  16.901  1.1533  1.0678 -1.7134
 1662TIP3   OH229180   4.794   3.823  16.131 -0.1252  0.8795 -0.3358
 1662TIP3    H129181   4.782   3.751  16.192  0.3895 -0.6001 -1.9123
 1662TIP3    H229182   4.716   3.878  16.143 -0.7956 -0.2072  0.5060
 1663TIP3   OH229183   6.153   4.864  15.439  0.5556  0.3205 -0.0727
 1663TIP3    H129184   6.124   4.955  15.443 -2.2625 -0.4917  0.9446
 1663TIP3    H229185   6.231   4.861  15.494  2.1233  2.4873 -1.9777
 1664TIP3   OH229186   1.804   0.557  15.182  0.2653 -0.8230 -0.0121
 1664TIP3    H129187   1.795   0.555  15.277  0.0373  0.9280  0.0336
 1664TIP3    H229188   1.740   0.623  15.154  0.5924 -1.0545 -1.3453
 1665TIP3   OH229189   0.418   2.134  15.970 -0.0604  0.2531  0.8311
 1665TIP3    H129190   0.461   2.135  16.055 -0.8054  1.9835  1.2221
 1665TIP3    H229191   0.490   2.131  15.907  0.4942 -1.5088  1.4746
 1666TIP3   OH229192   1.612   5.826  16.249  0.1791  0.0320 -0.3874
 1666TIP3    H129193   1.637   5.914  16.276 -0.4183  0.3432 -0.8139
 1666TIP3    H229194   1.522   5.835  16.218  0.1202 -0.7239 -0.4642
 1667TIP3   OH229195   5.810   4.125  16.085 -0.5741 -0.0380  0.1863
 1667TIP3    H129196   5.778   4.209  16.051  1.2762  0.0645 -1.4700
 1667TIP3    H229197   5.902   4.140  16.104 -0.3649 -1.5238  0.4868
 1668TIP3   OH229198   1.267   3.546  14.976  0.2949 -0.2935 -0.6598
 1668TIP3    H129199   1.280   3.541  15.071  0.9666 -0.1562 -0.7402
 1668TIP3    H229200   1.356   3.552  14.940  0.0435 -0.3866 -1.2995
 1669TIP3   OH229201   3.496   5.508  16.355 -0.6975 -0.3147  0.4212
 1669TIP3    H129202   3.585   5.474  16.346 -0.9725 -0.7823 -0.6549
 1669TIP3    H229203   3.503   5.579  16.419  0.4502 -0.3408  0.3315
 1670TIP3   OH229204   1.546   1.070  13.825  0.5768  0.4619 -0.3902
 1670TIP3    H129205   1.515   1.099  13.740  0.9367  0.0397 -0.6700
 1670TIP3    H229206   1.610   1.137  13.851  0.4929  0.5726 -0.4695
 1671TIP3   OH229207   5.827   4.870  15.183 -0.2567  0.0281  0.0804
 1671TIP3    H129208   5.828   4.782  15.220 -0.7973  0.6044  1.5303
 1671TIP3    H229209   5.904   4.913  15.220 -0.5334  0.4611  0.1616
 1672TIP3   OH229210   0.146   1.727  14.852  0.5814 -0.9619  0.4181
 1672TIP3    H129211   0.152   1.784  14.776 -0.3188  0.8122  1.5779
 1672TIP3    H229212   0.181   1.779  14.924  0.0263 -1.9933  1.4819
 1673TIP3   OH229213   6.522   1.055  16.557  0.3515  0.4868 -0.3014
 1673TIP3    H129214   6.611   1.020  16.553  0.8510  1.7639 -1.1740
 1673TIP3    H229215   6.528   1.141  16.515 -1.4509  0.3036 -1.0361
 1674TIP3   OH229216   1.499   6.304  17.217  0.2571  0.2307 -0.2776
 1674TIP3    H129217   1.496   6.400  17.217 -0.0867  0.2211 -0.1538
 1674TIP3    H229218   1.466   6.279  17.131 -0.5473  0.2015  0.0311
 1675TIP3   OH229219   1.520   2.835  16.710  0.7846 -0.6326  1.0451
 1675TIP3    H129220   1.588   2.897  16.687 -0.7146  1.3120  1.6077
 1675TIP3    H229221   1.567   2.754  16.731  2.7007 -0.2044 -1.1750
 1676TIP3   OH229222   2.704   0.950  13.641 -0.1580  0.2460 -0.1025
 1676TIP3    H129223   2.704   1.043  13.617 -0.3036 -0.0169 -1.2120
 1676TIP3    H229224   2.723   0.904  13.559  1.0616 -0.6684  0.6524
 1677TIP3   OH229225   5.733   2.072  14.159  0.2520 -0.3490  0.0913
 1677TIP3    H129226   5.642   2.047  14.144 -0.0216  0.1393  0.8582
 1677TIP3    H229227   5.776   2.060  14.074 -0.6843  0.0773 -0.4640
 1678TIP3   OH229228   2.442   4.719  15.896 -0.4263 -0.0655 -0.6843
 1678TIP3    H129229   2.378   4.651  15.873 -1.4782  0.6215  0.1484
 1678TIP3    H229230   2.434   4.728  15.991  0.1426  0.7910 -0.7134
 1679TIP3   OH229231   3.027   6.368  14.271  0.6487 -0.4570 -0.4904
 1679TIP3    H129232   3.103   6.337  14.320  0.1926 -0.7225  0.0544
 1679TIP3    H229233   2.953   6.318  14.306  0.6721 -2.8247 -3.4206
 1680TIP3   OH229234   5.288   2.195  16.012  0.5971 -0.4666  0.3438
 1680TIP3    H129235   5.300   2.101  16.020 -1.5606 -0.8227  0.1454
 1680TIP3    H229236   5.295   2.228  16.102 -2.4405 -1.4433  1.0671
 1681TIP3   OH229237   1.530   1.389  15.796 -0.5989 -0.8157 -0.2873
 1681TIP3    H129238   1.618   1.390  15.833 -0.0807 -0.7605 -1.4598
 1681TIP3    H229239   1.474   1.429  15.863  0.9333  3.0918 -1.0933
 1682TIP3   OH229240   5.587   4.747  15.419 -0.3519 -0.2644  0.5064
 1682TIP3    H129241   5.633   4.787  15.493  0.4596  1.9794 -1.0926
 1682TIP3    H229242   5.625   4.659  15.412  5.1833  1.7932 -1.5723
 1683TIP3   OH229243   0.697   0.673  16.796  0.5140 -0.6519 -0.0000
 1683TIP3    H129244   0.685   0.675  16.701 -3.6596  0.5720  0.3390
 1683TIP3    H229245   0.655   0.591  16.823 -1.4084  0.5876  0.9581
 1684TIP3   OH229246   4.965   0.305  14.785 -0.7176  0.3261  0.6580
 1684TIP3    H129247   4.968   0.211  14.803 -2.0101  0.2008  0.2993
 1684TIP3    H229248   4.929   0.344  14.865 -1.8320  0.3049  0.1889
 1685TIP3   OH229249   6.167   3.172  15.771  0.4962  0.3564 -0.0125
 1685TIP3    H129250   6.100   3.241  15.771  0.2245  0.1230 -1.4679
 1685TIP3    H229251   6.137   3.109  15.837 -1.1344 -0.1152 -1.1463
 1686TIP3   OH229252   0.968   5.336  15.491  0.0232  0.3779  0.1470
 1686TIP3    H129253   0.920   5.365  15.569  1.6229  3.4373  0.1319
 1686TIP3    H229254   1.025   5.266  15.523 -1.3299 -0.3484  1.0677
 1687TIP3   OH229255   1.986   4.315  15.498 -0.6455  0.1174  0.4984
 1687TIP3    H129256   2.061   4.357  15.456 -1.2590  3.5407  2.3967
 1687TIP3    H229257   2.012   4.224  15.508  2.0913  0.5713 -1.3811
 1688TIP3   OH229258   4.565   2.177  14.975  0.1476  0.0412 -0.4682
 1688TIP3    H129259   4.475   2.192  15.004  0.1917  0.7793 -0.6786
 1688TIP3    H229260   4.610   2.260  14.993  0.6057 -0.0765 -1.0295
 1689TIP3   OH229261   2.876   1.414  15.614 -0.0647 -0.1837  0.0243
 1689TIP3    H129262   2.810   1.450  15.674  1.2214 -1.3265  2.2325
 1689TIP3    H229263   2.930   1.489  15.590 -0.5013  0.2729  0.4498
 1690TIP3   OH229264   1.914   3.763  15.457  0.0762 -0.0154  0.0130
 1690TIP3    H129265   1.890   3.739  15.367  0.5502 -0.3985 -0.0130
 1690TIP3    H229266   1.860   3.840  15.476 -0.7119 -0.4844 -0.2677
 1691TIP3   OH229267   1.681   4.567  16.084  0.2255 -0.5577 -0.2164
 1691TIP3    H129268   1.727   4.571  16.168 -2.5565 -1.7589  1.4993
 1691TIP3    H229269   1.718   4.491  16.040  2.2493  0.5207 -0.5250
 1692TIP3   OH229270   2.916   1.976  15.808 -0.0881  0.1109  0.1343
 1692TIP3    H129271   3.007   1.998  15.787 -0.3523  0.5009 -0.6396
 1692TIP3    H229272   2.867   2.056  15.791 -0.6691 -0.2810 -0.0897
 1693TIP3   OH229273   0.726   0.705  14.676  0.2088  0.2741 -0.0058
 1693TIP3    H129274   0.690   0.719  14.764  0.8003  1.4302  0.0739
 1693TIP3    H229275   0.654   0.726  14.617 -0.3229 -0.9259  0.1979
 1694TIP3   OH229276   2.193   5.727  16.322  0.5822  0.3413 -0.1782
 1694TIP3    H129277   2.288   5.738  16.334  1.1578 -2.1484 -1.7094
 1694TIP3    H229278   2.171   5.654  16.380 -0.5437  1.2492  0.5664
 1695TIP3   OH229279   2.839   3.650  14.104 -0.1102 -0.4754 -0.1553
 1695TIP3    H129280   2.784   3.572  14.098  1.8855 -2.0538  0.8011
 1695TIP3    H229281   2.896   3.645  14.027  0.0398  0.0363 -0.0821
 1696TIP3   OH229282   0.059   0.810  16.174  0.5689  0.4680 -0.1730
 1696TIP3    H129283   0.057   0.782  16.266  0.0275  2.2467  0.3879
 1696TIP3    H229284   0.037   0.731  16.125  2.9044 -1.0701  1.0593
 1697TIP3   OH229285   4.344   0.730  14.400  0.0389  0.3524 -0.3435
 1697TIP3    H129286   4.286   0.795  14.440  1.4279  0.3265  1.9173
 1697TIP3    H229287   4.408   0.782  14.352 -0.1852  0.5322 -0.4501
 1698TIP3   OH229288   4.082   0.814  16.525 -0.5292 -0.1276  0.8026
 1698TIP3    H129289   4.151   0.872  16.493 -1.9586 -0.0006 -2.3822
 1698TIP3    H229290   4.001   0.864  16.516 -1.3464 -1.1545  2.0291
 1699TIP3   OH229291   2.448   2.495  15.839 -0.4864 -0.2248 -0.3519
 1699TIP3    H129292   2.464   2.575  15.789  2.7718 -0.1322  0.6559
 1699TIP3    H229293   2.413   2.526  15.923 -0.7055  0.0081 -0.5253
 1700TIP3   OH229294   5.034   0.675  14.096  0.2150  0.5046 -0.1897
 1700TIP3    H129295   5.067   0.585  14.092  1.0099  0.6207  2.2026
 1700TIP3    H229296   5.109   0.727  14.124 -1.0693  1.3206  1.9662
 1701TIP3   OH229297   1.404   2.444  14.258  0.5582 -0.2596 -0.1005
 1701TIP3    H129298   1.465   2.379  14.291  0.8915  0.2088  0.2134
 1701TIP3    H229299   1.332   2.393  14.221  1.1436 -0.8201 -0.4971
 1702TIP3   OH229300   4.608   5.857  14.089 -0.2013 -0.4792  0.4938
 1702TIP3    H129301   4.591   5.908  14.011  0.4891  0.0920  0.7034
 1702TIP3    H229302   4.558   5.899  14.158  0.4712  0.0083  0.6947
 1703TIP3   OH229303   2.285   4.430  17.118  0.1530 -0.4782 -0.0847
 1703TIP3    H129304   2.257   4.341  17.097 -0.4411 -0.3766  0.2529
 1703TIP3    H229305   2.362   4.419  17.174  0.2627 -0.7754 -0.2932
 1704TIP3   OH229306   5.942   5.493  15.434 -0.4159 -0.0893 -0.7237
 1704TIP3    H129307   5.929   5.460  15.523 -1.7557 -1.2558 -1.3289
 1704TIP3    H229308   6.027   5.457  15.408  0.0971  0.4390  0.1210
 1705TIP3   OH229309   4.314   0.611  14.844 -0.3262 -0.0605  0.7839
 1705TIP3    H129310   4.267   0.529  14.857  0.6742 -0.4615  2.0536
 1705TIP3    H229311   4.405   0.585  14.831 -0.3673  0.7010 -1.6504
 1706TIP3   OH229312   6.516   6.362  15.765 -0.1148 -0.1545  0.0139
 1706TIP3    H129313   6.544   6.317  15.844  0.0511  0.0584  0.0765
 1706TIP3    H229314   6.530   6.298  15.695  0.1891 -0.1775  0.0920
 1707TIP3   OH229315   1.676   1.574  13.383 -0.3897 -0.3103  0.4713
 1707TIP3    H129316   1.700   1.580  13.291  1.4403  4.8923  0.9395
 1707TIP3    H229317   1.582   1.589  13.385 -0.5658 -1.1583 -0.4925
 1708TIP3   OH229318   5.646   4.973  16.693 -0.1709  0.4606  0.2787
 1708TIP3    H129319   5.728   4.924  16.676  0.2205  1.0401  0.4756
 1708TIP3    H229320   5.588   4.946  16.622 -0.0607 -0.5136  0.5400
 1709TIP3   OH229321   5.649   3.839  16.663 -0.2382  0.2185 -0.3858
 1709TIP3    H129322   5.702   3.816  16.587  0.3826  0.8691 -0.1586
 1709TIP3    H229323   5.628   3.755  16.704  1.3017 -0.0270 -0.0224
 1710TIP3   OH229324   3.450   0.157  16.219 -0.4110 -0.7146  0.3672
 1710TIP3    H129325   3.454   0.240  16.171  0.3083 -0.9130  0.0721
 1710TIP3    H229326   3.382   0.170  16.285 -0.4707  0.0253  0.1650
 1711TIP3   OH229327   6.669   0.476  14.416  0.6010 -0.0901 -0.3511
 1711TIP3    H129328   6.730   0.429  14.359 -0.4230 -2.8947  0.7046
 1711TIP3    H229329   6.595   0.497  14.359  0.2700 -1.4719 -0.4721
 1712TIP3   OH229330   3.463   3.118  14.962 -0.0716  0.3330  0.0168
 1712TIP3    H129331   3.479   3.023  14.956  2.1802  0.6829 -0.3487
 1712TIP3    H229332   3.486   3.140  15.052  2.8072  0.9957 -0.7620
 1713TIP3   OH229333   4.046   4.037  16.642 -0.5383  0.1489 -0.1436
 1713TIP3    H129334   4.036   4.130  16.621 -0.5540 -0.0623 -1.1229
 1713TIP3    H229335   4.140   4.022  16.644 -0.5009  0.4792  1.4216
 1714TIP3   OH229336   1.692   5.756  15.745  0.7621 -0.7176  0.1066
 1714TIP3    H129337   1.731   5.790  15.826  1.3066 -0.2988 -0.3185
 1714TIP3    H229338   1.600   5.742  15.767  0.8441 -0.3470  0.7233
 1715TIP3   OH229339   3.952   0.956  14.662  0.0525  0.7863  0.2425
 1715TIP3    H129340   3.891   0.944  14.735 -0.2496  1.0797  0.0459
 1715TIP3    H229341   3.988   0.869  14.645  0.5766  0.8151  1.1280
 1716TIP3   OH229342   4.187   3.710  15.852  0.2936  0.0658 -0.0405
 1716TIP3    H129343   4.234   3.791  15.831 -0.3387  0.5061  0.1998
 1716TIP3    H229344   4.254   3.642  15.849  1.0273  0.7292  0.6672
 1717TIP3   OH229345   1.737   0.269  13.914  0.0043 -0.0343 -0.3399
 1717TIP3    H129346   1.795   0.196  13.936 -0.1017  0.2814  1.0480
 1717TIP3    H229347   1.695   0.293  13.996 -1.1597  0.5725 -1.0734
 1718TIP3   OH229348   4.158   2.790  14.332 -0.4789 -0.2558  0.2653
 1718TIP3    H129349   4.121   2.827  14.413  0.6514 -0.1567  0.7458
 1718TIP3    H229350   4.092   2.727  14.303 -1.2048  0.1830  0.9003
 1719TIP3   OH229351   4.468   1.172  14.293  0.0164 -0.3644  0.7966
 1719TIP3    H129352   4.380   1.134  14.300 -1.8168  3.1701 -0.1553
 1719TIP3    H229353   4.477   1.226  14.371  0.1136  1.3872 -0.3632
 1720TIP3   OH229354   6.706   2.102  14.209 -0.2951  0.5480 -0.1404
 1720TIP3    H129355   6.643   2.167  14.240  0.3817  1.0929  0.1162
 1720TIP3    H229356   6.788   2.125  14.254 -0.4946 -1.6910  1.5626
 1721TIP3   OH229357   3.216   4.319  15.429  0.4326 -0.1536  0.7220
 1721TIP3    H129358   3.266   4.250  15.385 -1.3202 -0.1939 -1.4590
 1721TIP3    H229359   3.259   4.400  15.404  0.3209 -0.2767  0.0929
 1722TIP3   OH229360   2.874   1.662  14.564 -0.2091  0.3549  0.1092
 1722TIP3    H129361   2.852   1.700  14.649  0.3440 -0.6429  0.7203
 1722TIP3    H229362   2.810   1.699  14.504 -0.3448  1.4167  0.8727
 1723TIP3   OH229363   1.951   2.677  16.120 -0.8409 -0.2315  0.7236
 1723TIP3    H129364   1.895   2.613  16.076 -4.5587  1.1952  2.8155
 1723TIP3    H229365   1.949   2.754  16.062  0.6051 -0.7811 -0.0867
 1724TIP3   OH229366   4.918   4.761  14.055 -0.1962  0.0916  0.8080
 1724TIP3    H129367   4.946   4.737  14.143  1.3254  0.0829  0.3585
 1724TIP3    H229368   4.953   4.692  13.999 -0.0816  0.7366  0.0680
 1725TIP3   OH229369   5.244   2.117  13.718  0.1603  0.6597 -0.0541
 1725TIP3    H129370   5.176   2.183  13.728 -1.1360 -0.7577  0.7422
 1725TIP3    H229371   5.215   2.064  13.644 -0.3904 -0.8227  1.1754
 1726TIP3   OH229372   4.891   1.496  15.201 -0.4450 -0.0258 -0.2063
 1726TIP3    H129373   4.879   1.584  15.237 -0.8749  0.3754 -1.3113
 1726TIP3    H229374   4.977   1.498  15.160  0.1070 -0.5292  0.8685
 1727TIP3   OH229375   1.707   3.024  16.608  0.4267 -0.1847  0.1747
 1727TIP3    H129376   1.693   2.946  16.554 -0.7539  0.7925 -0.9810
 1727TIP3    H229377   1.802   3.033  16.614  0.6681  0.7163 -3.3379
 1728TIP3   OH229378   5.508   2.905  14.990  0.2309 -0.1329  0.1746
 1728TIP3    H129379   5.568   2.830  14.986  0.2019 -0.1264 -0.4551
 1728TIP3    H229380   5.562   2.980  14.965  0.2230  0.0310  0.6545
 1729TIP3   OH229381   5.023   2.114  14.917 -0.3265 -0.0750  0.0425
 1729TIP3    H129382   4.967   2.080  14.847  1.0525 -0.8125 -0.7394
 1729TIP3    H229383   5.065   2.036  14.953  2.7188  0.6535 -1.6147
 1730TIP3   OH229384   6.434   5.908  16.731  0.4072 -0.2509  0.0180
 1730TIP3    H129385   6.374   5.839  16.703 -1.0511 -0.0515  2.3896
 1730TIP3    H229386   6.381   5.987  16.734  0.6653 -0.1010  2.3349
 1731TIP3   OH229387   5.760   6.408  14.907 -0.3798 -0.2526  0.3016
 1731TIP3    H129388   5.722   6.339  14.961 -2.5097 -0.8054 -1.7310
 1731TIP3    H229389   5.689   6.436  14.850  0.9091  2.4274 -0.1558
 1732TIP3   OH229390   6.276   2.907  14.338 -0.1158 -0.0227 -0.3540
 1732TIP3    H129391   6.323   2.984  14.306  0.3015 -0.3623 -0.5575
 1732TIP3    H229392   6.216   2.885  14.266 -0.0636 -0.0337 -0.3952
 1733TIP3   OH229393   4.107   6.329  16.354  0.7277 -0.1613  0.2752
 1733TIP3    H129394   4.164   6.405  16.343 -0.7193  0.8333 -0.7848
 1733TIP3    H229395   4.148   6.260  16.302  1.4806  0.2329  0.3320
 1734TIP3   OH229396   2.345   6.024  15.942 -0.0922 -0.3589 -0.2427
 1734TIP3    H129397   2.398   6.039  15.864 -2.1913  0.0592 -1.6752
 1734TIP3    H229398   2.299   5.942  15.925  0.1765 -0.7955  1.0306
 1735TIP3   OH229399   1.522   3.476  14.911  0.5361  0.6497 -0.3059
 1735TIP3    H129400   1.501   3.451  14.821  0.4037  0.0537 -0.1119
 1735TIP3    H229401   1.593   3.418  14.937 -1.1257 -0.9694  0.8385
 1736TIP3   OH229402   4.909   6.383  14.342  0.2732  0.3735 -0.4310
 1736TIP3    H129403   4.847   6.347  14.279  0.6371  0.1803 -0.6795
 1736TIP3    H229404   4.975   6.426  14.289  0.3973  0.5064 -0.1692
 1737TIP3   OH229405   6.215   4.153  15.270  0.5918 -0.2984  0.1865
 1737TIP3    H129406   6.228   4.063  15.301  2.1015  0.0289  0.5958
 1737TIP3    H229407   6.286   4.203  15.311  0.1936  0.9444 -0.5897
 1738TIP3   OH229408   1.634   4.788  15.192  0.0925  0.1132 -0.3848
 1738TIP3    H129409   1.552   4.773  15.237 -0.5104  1.5919 -0.9293
 1738TIP3    H229410   1.663   4.875  15.221  0.3856  0.5051 -1.7617
 1739TIP3   OH229411   6.451   5.572  14.687  0.0419  0.1563  0.3186
 1739TIP3    H129412   6.474   5.607  14.774 -1.3678  1.4427  0.2144
 1739TIP3    H229413   6.397   5.496  14.706 -0.0755  0.3017  0.5714
 1740TIP3   OH229414   3.507   0.142  14.010 -0.1968 -0.2737 -0.2325
 1740TIP3    H129415   3.558   0.090  13.949 -0.3342  0.7900 -1.2832
 1740TIP3    H229416   3.537   0.232  13.998 -1.4997  0.2178 -0.0689
 1741TIP3   OH229417   3.610   2.402  16.134 -0.2396  0.5211  0.0529
 1741TIP3    H129418   3.566   2.318  16.124  1.7729 -0.5966  0.2584
 1741TIP3    H229419   3.693   2.393  16.087  0.4327  2.0538  0.8663
 1742TIP3   OH229420   1.634   2.262  13.477  0.2999 -0.2369 -0.2304
 1742TIP3    H129421   1.545   2.298  13.485  0.8590  0.9984  0.8910
 1742TIP3    H229422   1.621   2.169  13.458 -1.2168  0.3044 -2.2486
 1743TIP3   OH229423   6.140   0.011  13.839 -0.0615  0.1235  0.5242
 1743TIP3    H129424   6.201  -0.003  13.911 -1.7252  0.8047  2.1145
 1743TIP3    H229425   6.142  -0.072  13.790  2.5586  0.3411  0.1489
 1744TIP3   OH229426   0.382   5.105  16.751 -0.4711  0.1647  0.0243
 1744TIP3    H129427   0.397   5.103  16.845 -1.7920  0.4657  0.2603
 1744TIP3    H229428   0.326   5.182  16.737 -1.4402 -0.6594 -0.8093
 1745TIP3   OH229429   5.078   1.128  13.562 -0.2117  0.3200 -0.7689
 1745TIP3    H129430   5.119   1.097  13.482  2.4039 -1.7753  1.2209
 1745TIP3    H229431   5.098   1.061  13.628 -2.8370  1.5672  1.5326
 1746TIP3   OH229432   4.206   5.668  13.599 -0.2571  0.6061 -0.6727
 1746TIP3    H129433   4.191   5.574  13.598 -0.1202  0.5762 -0.1794
 1746TIP3    H229434   4.272   5.683  13.531 -0.6349  0.4120 -1.0842
 1747TIP3   OH229435   4.185   1.509  15.447 -0.5764 -0.2924 -0.1005
 1747TIP3    H129436   4.127   1.583  15.431 -0.8992 -0.4027  0.5164
 1747TIP3    H229437   4.134   1.433  15.419 -0.3824 -0.3097 -0.4036
 1748TIP3   OH229438   6.592   2.870  16.830 -0.2774  0.1241 -0.0028
 1748TIP3    H129439   6.676   2.827  16.850 -1.1594 -1.7231 -0.0405
 1748TIP3    H229440   6.616   2.945  16.776  1.3980 -0.0840  0.3901
 1749TIP3   OH229441   3.069   4.823  16.307 -0.4241 -0.2707  0.5823
 1749TIP3    H129442   3.034   4.866  16.385 -0.4409 -0.8178  0.8879
 1749TIP3    H229443   3.022   4.864  16.234 -3.0384 -2.1062  1.0609
 1750TIP3   OH229444   2.365   4.076  15.186  0.2121  0.1229  0.3675
 1750TIP3    H129445   2.451   4.059  15.223  1.0045 -0.0499 -1.4295
 1750TIP3    H229446   2.375   4.055  15.093 -1.7498  0.1863  0.1044
 1751TIP3   OH229447   6.185   6.184  13.210  0.0358 -0.1722 -0.2751
 1751TIP3    H129448   6.193   6.230  13.126  1.2106  0.4909  0.1823
 1751TIP3    H229449   6.270   6.197  13.253 -1.0567  0.8616  1.7022
 1752TIP3   OH229450   6.581   2.847  13.523 -0.4397 -0.3224  0.2732
 1752TIP3    H129451   6.521   2.772  13.527 -2.6315  0.9322 -3.5965
 1752TIP3    H229452   6.548   2.900  13.450  1.2960  4.1674  2.3647
 1753TIP3   OH229453   3.700   2.745  16.853  0.4417  0.3248 -0.1783
 1753TIP3    H129454   3.723   2.833  16.823 -1.7376  0.8057 -0.6463
 1753TIP3    H229455   3.614   2.755  16.893 -0.1388 -1.6924 -0.7998
 1754TIP3   OH229456   5.901   2.704  13.834 -0.0017  0.3123  0.3526
 1754TIP3    H129457   5.854   2.732  13.913  1.2895  0.2386  1.1794
 1754TIP3    H229458   5.933   2.786  13.795 -2.9298  0.6396 -1.6867
 1755TIP3   OH229459   2.716   4.878  15.449 -0.3425 -0.1736 -0.3012
 1755TIP3    H129460   2.699   4.966  15.415  0.2012 -0.8516 -2.4305
 1755TIP3    H229461   2.700   4.886  15.543 -0.4894  2.1466 -0.4643
 1756TIP3   OH229462   2.136   2.667  15.139 -0.3870  0.1357 -0.4709
 1756TIP3    H129463   2.048   2.690  15.108 -1.3132 -0.9763  1.1328
 1756TIP3    H229464   2.121   2.628  15.225  1.8485  1.4961  0.6371
 1757TIP3   OH229465   4.881   2.676  15.027 -0.3070  0.5518  0.5151
 1757TIP3    H129466   4.879   2.741  15.097  1.6988  1.7836 -0.4599
 1757TIP3    H229467   4.863   2.726  14.947  0.7856 -0.1531 -0.2069
 1758TIP3   OH229468   0.255   3.618  14.743  0.5512  0.3519  0.2307
 1758TIP3    H129469   0.266   3.585  14.654  0.6296 -0.1328  0.4170
 1758TIP3    H229470   0.199   3.695  14.733  0.2011  0.0492 -0.1876
 1759TIP3   OH229471   6.676   5.421  16.302  0.0471  0.1293 -0.6059
 1759TIP3    H129472   6.663   5.326  16.309 -1.4406  0.4385  2.3902
 1759TIP3    H229473   6.592   5.455  16.274  0.4695  0.6159 -1.3045
 1760TIP3   OH229474   4.000   3.394  14.741 -0.7277  0.1174 -0.0053
 1760TIP3    H129475   3.916   3.387  14.786 -0.3573 -2.1374  0.4488
 1760TIP3    H229476   3.979   3.386  14.648 -0.9889 -1.1659  0.1442
 1761TIP3   OH229477   2.706   2.480  15.316 -0.3313 -0.2188 -0.2179
 1761TIP3    H129478   2.650   2.543  15.272  0.5032  1.0218  0.4480
 1761TIP3    H229479   2.791   2.524  15.324  0.5454 -1.7618 -0.5459
 1762TIP3   OH229480   1.151   2.953  15.688 -0.1068  0.0578  0.1802
 1762TIP3    H129481   1.089   2.887  15.718  0.4910 -0.3787  0.4682
 1762TIP3    H229482   1.156   3.015  15.761  1.2219 -0.9165  0.9387
 1763TIP3   OH229483   4.303   5.380  14.879 -0.5843  0.7859 -0.1819
 1763TIP3    H129484   4.337   5.375  14.968 -1.8195 -1.7159  0.2309
 1763TIP3    H229485   4.350   5.454  14.839  0.6865  1.3635  2.2151
 1764TIP3   OH229486   6.495   6.323  16.681  0.0592 -0.0818  1.0186
 1764TIP3    H129487   6.506   6.368  16.764 -0.9356 -0.3339  1.3005
 1764TIP3    H229488   6.452   6.387  16.624 -2.6348 -1.0084  1.8331
 1765TIP3   OH229489   4.546   0.878  14.289 -0.5663  0.5234  0.6662
 1765TIP3    H129490   4.619   0.822  14.263 -0.2666  0.1875  2.1068
 1765TIP3    H229491   4.588   0.957  14.322 -0.8395  0.3415  1.4714
 1766TIP3   OH229492   1.618   5.907  16.757 -0.7210 -0.9090  0.2449
 1766TIP3    H129493   1.598   5.817  16.781 -0.2038 -0.5532  2.1506
 1766TIP3    H229494   1.697   5.900  16.702 -1.3992 -1.6798 -0.6620
 1767TIP3   OH229495   3.303   5.006  16.614  0.3436  0.1087  0.0175
 1767TIP3    H129496   3.311   5.101  16.623  0.5698  0.2362 -1.3236
 1767TIP3    H229497   3.211   4.988  16.631  0.3461  0.5315  0.5126
 1768TIP3   OH229498   4.498   3.087  15.713 -0.3134 -0.1568  0.1280
 1768TIP3    H129499   4.541   3.033  15.779 -0.3141 -0.8595 -0.4447
 1768TIP3    H229500   4.406   3.090  15.741 -0.4211 -0.8983 -0.1254
 1769TIP3   OH229501   1.586   2.106  15.756 -0.2487  0.5442 -0.1440
 1769TIP3    H129502   1.627   2.023  15.732 -2.1661 -1.0874  1.7074
 1769TIP3    H229503   1.495   2.096  15.728 -0.4122  2.2222 -0.2627
 1770TIP3   OH229504   6.076   4.354  15.740  0.0260 -0.7162 -0.6134
 1770TIP3    H129505   6.146   4.335  15.802 -1.5385 -0.5144  1.3032
 1770TIP3    H229506   6.050   4.269  15.705  2.6058 -0.6477 -3.0746
 1771TIP3   OH229507   3.735   1.626  15.359  0.0825  0.3301 -0.1088
 1771TIP3    H129508   3.737   1.536  15.392  0.2516 -0.1645 -1.4136
 1771TIP3    H229509   3.667   1.626  15.292  0.3808  1.0588 -0.4223
 1772TIP3   OH229510   1.411   5.360  14.899 -0.4381 -0.3345  0.4226
 1772TIP3    H129511   1.325   5.323  14.879 -0.6889  0.9922 -1.2149
 1772TIP3    H229512   1.414   5.365  14.994 -1.3528 -2.2094  0.5976
 1773TIP3   OH229513   1.168   6.306  14.072 -0.7661  0.0400  0.1908
 1773TIP3    H129514   1.117   6.242  14.121  0.2673  0.2372  1.5877
 1773TIP3    H229515   1.206   6.257  13.999 -1.6584 -0.4521  0.0453
 1774TIP3   OH229516   5.218   4.290  14.914 -0.2616  0.0359  0.5774
 1774TIP3    H129517   5.188   4.266  14.826  1.2943  0.2387 -0.0584
 1774TIP3    H229518   5.302   4.244  14.923 -1.0700 -1.1752  2.5725
 1775TIP3   OH229519   6.045   6.710  14.638 -0.3271  0.1934 -0.1671
 1775TIP3    H129520   5.984   6.639  14.657  1.5456 -1.4868 -0.1553
 1775TIP3    H229521   6.112   6.703  14.706 -0.3847  2.3755  0.1925
 1776TIP3   OH229522   0.448   0.641  15.642  0.1051  0.2382 -0.0949
 1776TIP3    H129523   0.356   0.667  15.633  0.1752  0.4284 -0.2838
 1776TIP3    H229524   0.473   0.610  15.555  0.0556 -0.3641  0.1030
 1777TIP3   OH229525   6.568   0.523  16.717 -0.1770 -0.4276  0.0191
 1777TIP3    H129526   6.481   0.485  16.725  0.1299 -1.2354 -0.4274
 1777TIP3    H229527   6.574   0.551  16.625 -0.0251 -0.2212  0.0897
 1778TIP3   OH229528   3.214   3.958  15.330  0.5090  0.2334 -0.1819
 1778TIP3    H129529   3.229   3.989  15.419 -1.1590  0.9347 -0.1272
 1778TIP3    H229530   3.281   4.002  15.277  0.4131  1.1498  0.4539
 1779TIP3   OH229531   4.081   5.335  14.317 -0.4143 -0.4432  0.1962
 1779TIP3    H129532   3.994   5.341  14.357 -0.8365 -1.5414 -0.5166
 1779TIP3    H229533   4.093   5.420  14.273 -0.4641  0.2999  1.5723
 1780TIP3   OH229534   2.421   3.923  14.948  0.3461 -0.2565 -0.6194
 1780TIP3    H129535   2.346   3.871  14.918  1.1464 -0.7856 -1.7640
 1780TIP3    H229536   2.414   4.005  14.899  1.2038 -0.8059 -1.7024
 1781TIP3   OH229537   4.503   3.337  16.387  0.2122  0.0367 -0.0742
 1781TIP3    H129538   4.454   3.291  16.455 -0.2784 -0.4171 -0.7243
 1781TIP3    H229539   4.594   3.310  16.401  0.1439  0.1171  0.5358
 1782TIP3   OH229540   4.455   0.950  14.678  0.2017  0.7838 -0.1773
 1782TIP3    H129541   4.430   0.943  14.771 -0.4803  1.1670 -0.3202
 1782TIP3    H229542   4.547   0.924  14.676 -0.1219 -0.4871  0.4108
 1783TIP3   OH229543   0.988   2.775  15.116  0.2048 -0.1891  0.1866
 1783TIP3    H129544   1.037   2.716  15.059  1.0250 -0.1241  0.8077
 1783TIP3    H229545   0.901   2.781  15.076  0.6719 -0.3792 -0.8785
 1784TIP3   OH229546   5.684   5.868  14.332 -0.6796 -0.6390  0.5255
 1784TIP3    H129547   5.638   5.952  14.337  1.0730  0.3425  1.1654
 1784TIP3    H229548   5.773   5.891  14.304 -0.3854 -2.3773 -0.0761
 1785TIP3   OH229549   4.578   2.671  14.758 -0.0644 -0.2416  0.2906
 1785TIP3    H129550   4.516   2.612  14.801  0.8478  0.0376  2.0663
 1785TIP3    H229551   4.646   2.613  14.724  0.9332 -0.2759  2.2044
 1786TIP3   OH229552   6.509   6.150  14.225  0.0602 -0.3304 -0.0163
 1786TIP3    H129553   6.541   6.172  14.313  0.9408 -0.4874 -0.2854
 1786TIP3    H229554   6.496   6.055  14.228 -1.9775 -0.0785  0.5834
 1787TIP3   OH229555   4.686   5.584  16.134 -0.4171 -0.1705 -0.0254
 1787TIP3    H129556   4.709   5.551  16.047 -0.6299  0.3632 -0.2908
 1787TIP3    H229557   4.591   5.593  16.133 -0.4771 -0.6868  0.4579
 1788TIP3   OH229558   3.159   1.124  16.998 -0.3516 -0.4835 -0.3048
 1788TIP3    H129559   3.168   1.213  17.031  0.0502 -0.9968  1.0349
 1788TIP3    H229560   3.192   1.128  16.908  1.4716  0.3264  0.3474
 1789TIP3   OH229561   3.261   5.207  13.684 -0.4701  0.0447  0.0898
 1789TIP3    H129562   3.273   5.204  13.778 -2.0064  1.4183  0.3667
 1789TIP3    H229563   3.295   5.123  13.653 -0.7289 -0.7937  1.9502
 1790TIP3   OH229564   4.807   2.839  13.479 -0.4538  0.2610  0.0003
 1790TIP3    H129565   4.880   2.886  13.518 -0.5361  0.6277 -0.2802
 1790TIP3    H229566   4.848   2.773  13.422 -0.3173 -0.8806  1.3638
 1791TIP3   OH229567   0.648   3.031  16.066  0.0944  0.5313  0.0313
 1791TIP3    H129568   0.674   3.123  16.069  0.8112  0.3023  1.3764
 1791TIP3    H229569   0.553   3.032  16.070 -0.0260  1.2581 -1.7490
 1792TIP3   OH229570   1.558   3.211  15.847 -0.5709  0.4830 -0.1857
 1792TIP3    H129571   1.653   3.210  15.863 -0.6765 -1.9819  0.7478
 1792TIP3    H229572   1.528   3.294  15.885  1.1054  0.9727  0.1448
 1793TIP3   OH229573   6.252   2.999  13.374 -0.3576  0.1772  0.2387
 1793TIP3    H129574   6.273   2.965  13.461  1.1119  0.4047  0.0022
 1793TIP3    H229575   6.194   2.933  13.336 -0.5194 -0.2232  1.1592
 1794TIP3   OH229576   3.160   3.973  14.859  0.4078 -0.0125  0.4076
 1794TIP3    H129577   3.148   3.878  14.857  2.1137 -0.2518 -0.0726
 1794TIP3    H229578   3.105   4.003  14.931 -0.2690 -1.3452  0.4651
 1795TIP3   OH229579   3.265   6.439  15.433  0.3339  0.1755  0.4704
 1795TIP3    H129580   3.338   6.487  15.472  0.2160  0.0289  0.8757
 1795TIP3    H229581   3.225   6.392  15.507  0.7977 -1.0080  0.0023
 1796TIP3   OH229582   4.777   6.165  15.370  0.4382 -0.0032 -0.0993
 1796TIP3    H129583   4.797   6.203  15.285  1.7232 -0.0475  0.1644
 1796TIP3    H229584   4.714   6.095  15.351 -1.9812  2.1365 -0.5962
 1797TIP3   OH229585   3.179   6.029  16.464  0.2948  0.0458  0.6559
 1797TIP3    H129586   3.215   5.982  16.539  1.0417 -0.5973 -0.0905
 1797TIP3    H229587   3.085   6.037  16.484  0.7166  1.3596  2.4082
 1798TIP3   OH229588   6.556   6.486  16.302  0.1905  0.7015  0.4880
 1798TIP3    H129589   6.615   6.531  16.242  1.0318  0.2572  0.9637
 1798TIP3    H229590   6.610   6.418  16.343 -0.8570 -0.2687  0.3253
 1799TIP3   OH229591   4.585   2.410  15.844 -0.4929 -0.2629 -0.5403
 1799TIP3    H129592   4.606   2.331  15.794 -0.8479  0.0396 -1.1829
 1799TIP3    H229593   4.518   2.382  15.906 -0.0579 -0.6405 -0.2386
 1800TIP3   OH229594   1.416   0.276  15.218  0.1767 -0.4497 -0.8009
 1800TIP3    H129595   1.380   0.315  15.298  1.5625 -0.3182 -0.1969
 1800TIP3    H229596   1.503   0.245  15.244  0.2136 -1.4282 -1.9872
 1801TIP3   OH229597   2.940   4.937  16.063  0.4148  0.3190  0.1616
 1801TIP3    H129598   2.941   5.025  16.027 -1.1575  1.1610  2.0101
 1801TIP3    H229599   2.849   4.922  16.088  0.4304 -2.2185 -0.9139
 1802TIP3   OH229600   1.449   4.934  16.049 -0.6467 -0.5556 -0.1603
 1802TIP3    H129601   1.485   4.865  15.992  0.5555 -1.6329  1.8022
 1802TIP3    H229602   1.468   5.015  16.002  1.2672 -1.3361 -0.8454
 1803TIP3   OH229603   0.663   0.224  16.782 -0.0663  0.1844 -0.8025
 1803TIP3    H129604   0.672   0.145  16.836  0.9309  0.5662 -0.3901
 1803TIP3    H229605   0.690   0.197  16.695 -0.5159 -0.1255 -0.8532
 1804TIP3   OH229606   6.181   6.024  14.367  0.0132  0.1056  0.2550
 1804TIP3    H129607   6.221   6.077  14.436 -0.8762 -0.2369  1.0564
 1804TIP3    H229608   6.145   6.088  14.305  0.4795  0.4201  0.3085
 1805TIP3   OH229609   1.023   0.872  14.851 -0.1475 -0.6066 -0.6766
 1805TIP3    H129610   1.117   0.857  14.837  0.2779  0.2765  0.9328
 1805TIP3    H229611   0.992   0.909  14.769  1.3866  0.9930 -0.5866
 1806TIP3   OH229612   0.314   5.151  16.347  0.0251 -0.2056  0.4397
 1806TIP3    H129613   0.385   5.091  16.372 -0.5574 -0.8410  0.5952
 1806TIP3    H229614   0.262   5.161  16.426 -0.4646 -0.3094  0.1310
 1807TIP3   OH229615   2.124   5.187  16.826 -0.1020 -0.0067  0.0759
 1807TIP3    H129616   2.078   5.179  16.743  2.4624  1.7002 -1.6704
 1807TIP3    H229617   2.136   5.281  16.838 -0.3638 -0.2097  2.4110
 1808TIP3   OH229618   2.399   5.147  14.628 -0.2054  0.1061  0.2305
 1808TIP3    H129619   2.459   5.120  14.698 -0.6560 -2.4506 -0.2809
 1808TIP3    H229620   2.334   5.201  14.673  0.2005 -0.4623  1.5704
 1809TIP3   OH229621   2.921   2.370  14.556  0.5097 -0.2085 -0.1128
 1809TIP3    H129622   2.883   2.283  14.556 -1.9221  0.7785 -0.2455
 1809TIP3    H229623   2.978   2.372  14.479  1.0055 -1.7861  0.1739
 1810TIP3   OH229624   1.294   0.470  15.035  0.5560  0.4474  0.0759
 1810TIP3    H129625   1.325   0.391  15.080 -0.9636 -0.3650 -0.2362
 1810TIP3    H229626   1.304   0.449  14.942  0.4599  0.7652 -0.0055
 1811TIP3   OH229627   3.053   5.037  16.728  0.0217  0.0719  0.3413
 1811TIP3    H129628   3.074   4.999  16.813  0.8571 -0.1166  0.0606
 1811TIP3    H229629   3.094   5.123  16.729  0.2139 -0.0166  0.0437
 1812TIP3   OH229630   0.363   0.221  15.026  0.2305 -0.2202  0.3333
 1812TIP3    H129631   0.317   0.304  15.042  0.3607  0.0299 -0.5392
 1812TIP3    H229632   0.338   0.196  14.937  0.1716 -1.1385  0.5983
 1813TIP3   OH229633   3.438   0.423  13.748 -0.6667 -0.4148  0.1812
 1813TIP3    H129634   3.431   0.330  13.727 -0.3362 -0.6195  0.9476
 1813TIP3    H229635   3.388   0.467  13.679 -1.6451 -1.2235  0.3411
 1814TIP3   OH229636   2.653   3.085  13.590 -0.6927 -0.7108 -0.5252
 1814TIP3    H129637   2.715   3.014  13.575 -0.1814 -0.9456  2.1795
 1814TIP3    H229638   2.694   3.161  13.550  0.7199 -1.1394  0.0470
 1815TIP3   OH229639   1.678   0.256  16.717 -0.3523  0.3123  0.4995
 1815TIP3    H129640   1.711   0.331  16.766 -1.4389  1.8202 -0.9583
 1815TIP3    H229641   1.612   0.217  16.774  0.3158  0.3752  1.3307
 1816TIP3   OH229642   5.926   0.489  14.178  0.0031  0.2210  0.4680
 1816TIP3    H129643   5.949   0.570  14.223 -1.6985  1.6453 -1.0696
 1816TIP3    H229644   5.849   0.456  14.225 -0.3088  0.4159  0.1052
 1817TIP3   OH229645   5.565   4.500  14.044  0.0610  0.1366 -0.0680
 1817TIP3    H129646   5.556   4.574  13.984  0.6338  1.4715  1.4298
 1817TIP3    H229647   5.476   4.464  14.051 -0.5296  1.5908  0.2727
 1818TIP3   OH229648   4.228   5.806  15.439 -0.1296 -0.2584  0.1052
 1818TIP3    H129649   4.166   5.790  15.510 -1.0266 -1.3112 -0.8829
 1818TIP3    H229650   4.249   5.719  15.405  2.4593 -0.0076  0.8467
 1819TIP3   OH229651   2.917   0.930  13.943 -0.3705  0.6222  0.0998
 1819TIP3    H129652   2.828   0.896  13.943 -0.4080  0.6118  2.4065
 1819TIP3    H229653   2.909   1.019  13.977  0.6202  0.1815  1.5595
 1820TIP3   OH229654   1.394   1.608  15.334 -0.3412 -0.4689 -0.1463
 1820TIP3    H129655   1.407   1.700  15.358  0.7836 -0.4150 -0.8646
 1820TIP3    H229656   1.480   1.568  15.344 -0.4186 -1.0378 -1.4612
 1821TIP3   OH229657   3.074   1.257  14.835 -0.1229  0.0781  0.2179
 1821TIP3    H129658   3.065   1.254  14.739 -1.2583  1.2386  0.2656
 1821TIP3    H229659   3.014   1.190  14.866  1.0044 -1.0325  0.1246
 1822TIP3   OH229660   6.634   1.050  16.168  0.5374 -0.1908  0.4060
 1822TIP3    H129661   6.632   0.955  16.153 -0.0977 -0.4266  1.7407
 1822TIP3    H229662   6.556   1.067  16.221  0.9254  0.9996  0.6255
 1823TIP3   OH229663   6.205   5.167  15.479 -0.0201  0.6109  0.4860
 1823TIP3    H129664   6.257   5.112  15.421 -2.4798 -1.8824  0.4788
 1823TIP3    H229665   6.229   5.257  15.454  1.6608 -0.3868 -1.8337
 1824TIP3   OH229666   0.090   4.173  16.137 -0.2588 -0.5713 -0.3740
 1824TIP3    H129667  -0.002   4.147  16.141 -0.8914  1.4506 -0.5709
 1824TIP3    H229668   0.104   4.223  16.218  0.2011  0.4390 -1.0540
 1825TIP3   OH229669   3.254   3.002  15.198 -0.4594  0.2151 -0.7094
 1825TIP3    H129670   3.297   2.929  15.153 -1.7348 -0.2997 -1.1286
 1825TIP3    H229671   3.303   3.011  15.280 -0.5042 -1.3680 -0.4777
 1826TIP3   OH229672   0.615   0.704  14.011  0.3198 -0.5953 -1.0312
 1826TIP3    H129673   0.633   0.704  13.917 -0.8617  0.4487 -1.2892
 1826TIP3    H229674   0.610   0.611  14.034 -0.5754 -0.8914 -2.2632
 1827TIP3   OH229675   6.707   6.685  13.949  0.3545 -0.2639 -0.4090
 1827TIP3    H129676   6.777   6.658  13.890  1.0296  1.1772 -0.3154
 1827TIP3    H229677   6.638   6.719  13.891  0.1567 -0.7317 -0.4521
 1828TIP3   OH229678   3.325   3.346  14.653 -0.1906  0.6229  0.6016
 1828TIP3    H129679   3.297   3.266  14.698 -0.2485  0.6679  0.6452
 1828TIP3    H229680   3.304   3.329  14.561 -0.0843  0.5367  0.5926
 1829TIP3   OH229681   1.970   1.554  16.688 -0.1642  0.5807 -0.2917
 1829TIP3    H129682   1.949   1.646  16.705  0.3905  0.6505  0.0347
 1829TIP3    H229683   1.974   1.514  16.775  0.0491  0.3510 -0.4071
 1830TIP3   OH229684   4.742   0.150  13.992 -0.5205  0.1855  0.5092
 1830TIP3    H129685   4.726   0.199  14.072  0.9547 -0.1578  1.0565
 1830TIP3    H229686   4.710   0.207  13.922  1.4949  2.2020  1.0956
 1831TIP3   OH229687   5.245   2.560  16.667  0.5474 -0.2336  0.1247
 1831TIP3    H129688   5.204   2.627  16.614  0.8799 -1.2397 -1.4674
 1831TIP3    H229689   5.176   2.533  16.729  0.4679  1.6323  0.9076
 1832TIP3   OH229690   1.903   5.662  15.997  0.2735 -0.5995 -0.4175
 1832TIP3    H129691   1.987   5.704  16.014  0.3592 -1.5294  1.7100
 1832TIP3    H229692   1.926   5.575  15.963  0.1293 -0.3674 -1.1388
 1833TIP3   OH229693   6.540   3.365  15.787  0.0974  0.0534  0.0596
 1833TIP3    H129694   6.616   3.319  15.822 -0.5080  0.1761  1.6169
 1833TIP3    H229695   6.533   3.335  15.696  1.6474 -0.3923  0.0696
 1834TIP3   OH229696   3.569   3.098  14.083 -0.3750  0.5852 -0.3975
 1834TIP3    H129697   3.645   3.147  14.053  0.2394 -0.9746 -1.4330
 1834TIP3    H229698   3.505   3.106  14.012 -0.9329  1.2636  0.1547
 1835TIP3   OH229699   2.109   3.902  16.616 -0.0066  0.7131 -0.4571
 1835TIP3    H129700   2.133   3.829  16.559 -0.0759 -0.0844  0.5037
 1835TIP3    H229701   2.117   3.979  16.560 -0.0204 -0.0278 -1.5255
 1836TIP3   OH229702   0.063   1.193  14.170 -0.6472 -0.6016 -0.8095
 1836TIP3    H129703   0.157   1.180  14.181 -1.2049 -3.4195  2.2523
 1836TIP3    H229704   0.029   1.194  14.260 -3.7003 -1.0010 -1.8652
 1837TIP3   OH229705   2.739   4.716  13.434 -0.5778 -0.2610 -0.3397
 1837TIP3    H129706   2.808   4.774  13.468 -1.8991  2.0003 -1.2707
 1837TIP3    H229707   2.685   4.696  13.510 -0.3605  0.1159 -0.0787
 1838TIP3   OH229708   2.516   5.571  14.061 -0.3477 -0.4385 -0.2021
 1838TIP3    H129709   2.556   5.654  14.037 -0.6541 -0.9724 -2.8272
 1838TIP3    H229710   2.438   5.596  14.112  0.6584  0.7546  0.8186
 1839TIP3   OH229711   1.897   2.095  14.338 -0.3257  0.4370 -0.2184
 1839TIP3    H129712   1.981   2.051  14.352 -0.2729  0.2852 -0.9790
 1839TIP3    H229713   1.836   2.049  14.396 -0.0908 -0.0953 -0.3870
 1840TIP3   OH229714   0.556   5.759  16.639  0.2273 -0.4925 -0.3516
 1840TIP3    H129715   0.529   5.836  16.588  0.7980  0.4985  0.7850
 1840TIP3    H229716   0.632   5.789  16.690  0.5388 -1.8511  0.0270
 1841TIP3   OH229717   3.017   4.191  16.645  0.3501  0.7095 -0.5552
 1841TIP3    H129718   3.070   4.118  16.614 -1.0031 -0.0655 -1.1288
 1841TIP3    H229719   3.077   4.266  16.644  1.7370 -0.3501 -0.0455
 1842TIP3   OH229720   2.642   5.537  16.997  0.1295 -0.6120 -0.6473
 1842TIP3    H129721   2.582   5.610  17.012 -0.8089 -1.2009 -1.3648
 1842TIP3    H229722   2.599   5.461  17.038  0.9234 -0.8333 -0.2052
 1843TIP3   OH229723   0.226   3.369  16.572 -0.0729 -0.1015 -0.5339
 1843TIP3    H129724   0.315   3.344  16.597 -0.3738 -0.7121 -0.0253
 1843TIP3    H229725   0.231   3.386  16.478  0.9707  1.7181 -0.1924
 1844TIP3   OH229726   5.089   4.836  16.414  0.6797  0.0140  0.5492
 1844TIP3    H129727   5.115   4.744  16.415 -2.0733 -1.2296 -4.4896
 1844TIP3    H229728   4.996   4.835  16.437  0.6596  1.5614  0.6569
 1845TIP3   OH229729   2.607   2.861  15.537  0.1073  0.3070 -0.0825
 1845TIP3    H129730   2.555   2.930  15.494 -0.5903  1.1048  1.9136
 1845TIP3    H229731   2.687   2.856  15.485 -0.7630  1.0600 -1.5728
 1846TIP3   OH229732   4.345   0.962  16.679 -0.1031  0.0869 -0.1592
 1846TIP3    H129733   4.316   1.002  16.597 -2.3906 -1.8038 -0.3680
 1846TIP3    H229734   4.375   0.875  16.654  0.4912 -0.0261  0.8671
 1847TIP3   OH229735   6.355   4.492  16.536  0.3170 -0.4187  0.3289
 1847TIP3    H129736   6.308   4.436  16.599  0.7991  0.3636  1.4162
 1847TIP3    H229737   6.288   4.551  16.502  0.0571 -0.8293  0.1205
 1848TIP3   OH229738   6.303   2.784  16.348  0.1752  1.0228  0.1915
 1848TIP3    H129739   6.338   2.863  16.307  1.6778  0.5771  0.5491
 1848TIP3    H229740   6.350   2.776  16.431  1.2970 -1.0834 -0.5477
 1849TIP3   OH229741   2.612   0.452  14.032  0.4462  0.2297  0.4347
 1849TIP3    H129742   2.625   0.485  13.943 -0.6237  2.2145  0.9704
 1849TIP3    H229743   2.692   0.476  14.078  0.7535 -0.2848  0.1906
 1850TIP3   OH229744   2.955   4.943  14.178  0.2650  0.1055 -0.3784
 1850TIP3    H129745   3.024   4.903  14.231 -1.3028  1.0608  2.6096
 1850TIP3    H229746   2.897   4.871  14.154  0.8658 -0.2986 -0.6419
 1851TIP3   OH229747   4.582   1.556  16.111  0.2493  0.5333  0.4935
 1851TIP3    H129748   4.491   1.579  16.093 -0.1841 -0.5072  1.3172
 1851TIP3    H229749   4.585   1.461  16.103  0.8669  0.3885  2.1701
 1852TIP3   OH229750   3.382   4.157  16.982  0.5228 -0.8085  0.0842
 1852TIP3    H129751   3.420   4.095  17.044  1.2502 -2.1477 -1.6223
 1852TIP3    H229752   3.291   4.130  16.974  0.4750 -0.7493  0.4225
 1853TIP3   OH229753   3.595   0.434  13.986 -0.2945  0.2702 -0.0109
 1853TIP3    H129754   3.667   0.475  13.938 -0.4500  1.2817  0.5681
 1853TIP3    H229755   3.527   0.419  13.921  0.3657 -0.5212 -0.5283
 1854TIP3   OH229756   5.877   5.977  15.222  0.3855  0.1549  0.5744
 1854TIP3    H129757   5.904   6.024  15.301 -0.3309 -0.6859  1.3433
 1854TIP3    H229758   5.824   6.040  15.174  1.9456  1.1316  0.0675
 1855TIP3   OH229759   1.110   4.614  15.317 -0.5629 -0.1101  0.5644
 1855TIP3    H129760   1.057   4.667  15.257 -1.9368 -1.4126  0.5658
 1855TIP3    H229761   1.137   4.538  15.265  2.2504  0.9909  0.2562
 1856TIP3   OH229762   4.048   4.104  14.028  0.9454 -0.0781 -0.3592
 1856TIP3    H129763   4.000   4.076  13.950 -0.5641  0.4099  0.3539
 1856TIP3    H229764   4.094   4.025  14.058 -0.5360 -0.9655 -0.3002
 1857TIP3   OH229765   6.530   5.175  16.313  0.5199  0.7759  0.0721
 1857TIP3    H129766   6.501   5.100  16.367 -1.2712  0.8549 -0.6924
 1857TIP3    H229767   6.478   5.168  16.233  1.2243  2.1593 -0.5424
 1858TIP3   OH229768   1.362   0.423  14.766 -0.6304  0.1399  0.0707
 1858TIP3    H129769   1.452   0.427  14.796  0.0598  1.9813 -1.9846
 1858TIP3    H229770   1.353   0.338  14.724  1.4170  1.2679 -3.0159
 1859TIP3   OH229771   0.313   2.562  13.633  0.6981 -0.3328 -0.1356
 1859TIP3    H129772   0.312   2.626  13.561 -1.0119 -0.0848  0.0558
 1859TIP3    H229773   0.355   2.609  13.705 -0.4734  0.6023 -0.0194
 1860TIP3   OH229774   0.942   3.207  16.278 -0.3126 -0.9146  0.7818
 1860TIP3    H129775   0.955   3.288  16.329 -0.9113  0.1506 -0.6790
 1860TIP3    H229776   0.996   3.219  16.200 -0.1617 -2.0877  0.6997
 1861TIP3   OH229777   5.136   4.525  15.004 -0.3947  0.0994  0.7880
 1861TIP3    H129778   5.042   4.540  15.002 -0.3865  0.0854 -0.3697
 1861TIP3    H229779   5.148   4.438  14.967  0.1419  0.5845 -0.2389
 1862TIP3   OH229780   0.756   2.744  14.978 -0.3698 -0.3629  0.9875
 1862TIP3    H129781   0.737   2.838  14.972  0.0347 -0.2106  1.8119
 1862TIP3    H229782   0.674   2.701  14.955 -0.9473  0.2250  1.8804
 1863TIP3   OH229783   3.461   1.249  14.510 -0.1369 -0.2769 -0.4783
 1863TIP3    H129784   3.536   1.273  14.455  1.1362  0.7063  1.5617
 1863TIP3    H229785   3.399   1.321  14.501  1.1205  1.0858  1.1193
 1864TIP3   OH229786   3.262   2.462  16.761  0.4232  0.0874 -0.2580
 1864TIP3    H129787   3.312   2.381  16.770 -0.3818 -0.6088 -1.6804
 1864TIP3    H229788   3.327   2.531  16.762  1.1963 -0.6287  0.1712
 1865TIP3   OH229789   6.271   1.624  16.037  0.1150 -0.0136  0.4875
 1865TIP3    H129790   6.311   1.569  16.104  2.6282  1.1186  0.0234
 1865TIP3    H229791   6.295   1.582  15.954  0.3150  0.6811  0.1870
 1866TIP3   OH229792   3.164   3.656  14.433  0.1863  0.4472  0.4954
 1866TIP3    H129793   3.231   3.630  14.495  1.2746  1.5432 -0.1788
 1866TIP3    H229794   3.137   3.743  14.461 -0.5820  0.2412  0.4415
 1867TIP3   OH229795   3.908   3.516  17.060 -0.0821 -0.2934 -0.4084
 1867TIP3    H129796   3.951   3.515  16.975  0.6858 -0.3957 -0.0287
 1867TIP3    H229797   3.977   3.490  17.122 -0.7409 -0.6488  0.1868
 1868TIP3   OH229798   3.387   3.434  14.149  0.3721  0.0934  0.2679
 1868TIP3    H129799   3.357   3.491  14.078  0.6905  0.0625  0.1089
 1868TIP3    H229800   3.470   3.399  14.119 -0.3177 -1.2980 -0.0914
 1869TIP3   OH229801   1.997   1.536  15.042  0.4930 -0.1274 -0.7440
 1869TIP3    H129802   1.925   1.491  15.087 -0.2227  0.7701 -0.9804
 1869TIP3    H229803   1.973   1.534  14.950  0.3901  0.8388 -0.7484
 1870TIP3   OH229804   5.602   1.296  16.050  0.8547  0.5132  0.2532
 1870TIP3    H129805   5.652   1.349  15.988  1.6282 -0.5197 -0.0311
 1870TIP3    H229806   5.659   1.291  16.128  1.4772 -1.1081 -0.2666
 1871TIP3   OH229807   2.189   3.721  15.427  0.2289 -0.1625 -0.0775
 1871TIP3    H129808   2.204   3.636  15.468 -1.6190 -0.3845  0.2378
 1871TIP3    H229809   2.094   3.735  15.434  0.1669  0.8909 -2.1394
 1872TIP3   OH229810   3.807   5.222  16.708  0.5278  0.1752  0.6526
 1872TIP3    H129811   3.879   5.240  16.647  0.7948  3.2220  1.6782
 1872TIP3    H229812   3.802   5.301  16.762 -1.4805 -1.2998  2.7807
 1873TIP3   OH229813   2.076   4.077  14.918  0.0806  0.0664 -0.2646
 1873TIP3    H129814   1.998   4.076  14.975 -0.9859 -0.2091 -1.6776
 1873TIP3    H229815   2.086   3.987  14.889  0.6661  0.1955 -0.4727
 1874TIP3   OH229816   5.822   0.933  16.617  0.2619  0.0332 -0.3241
 1874TIP3    H129817   5.835   0.839  16.613 -1.5610 -0.2656 -0.0284
 1874TIP3    H229818   5.750   0.945  16.679  0.8837  1.6761  0.1454
 1875TIP3   OH229819   1.892   1.874  13.307 -0.3583 -0.2535 -0.2297
 1875TIP3    H129820   1.884   1.919  13.223 -1.4644 -0.6171 -0.3298
 1875TIP3    H229821   1.973   1.908  13.344 -0.6481  1.0822 -0.7562
 1876TIP3   OH229822   6.000   3.558  14.596 -0.4593  0.4164 -0.7685
 1876TIP3    H129823   6.043   3.563  14.682  1.5511 -0.7125 -1.6537
 1876TIP3    H229824   5.968   3.468  14.590 -2.7352  1.1236 -0.2952
 1877TIP3   OH229825   4.956   4.315  16.160  0.1274  0.0716  0.0514
 1877TIP3    H129826   5.035   4.261  16.169  0.8042  0.9813 -0.3520
 1877TIP3    H229827   4.934   4.309  16.067 -0.8825 -0.9896  0.3331
 1878TIP3   OH229828   4.089   0.383  14.932  0.2782 -0.7924  0.9604
 1878TIP3    H129829   4.140   0.441  14.989  1.1715  0.6938 -1.2006
 1878TIP3    H229830   4.008   0.430  14.916  0.0746 -1.1521  0.9179
 1879TIP3   OH229831   4.003   1.621  15.107 -0.5442 -0.0251 -0.8961
 1879TIP3    H129832   3.939   1.633  15.037 -1.8874  1.3970  0.4902
 1879TIP3    H229833   4.043   1.708  15.117 -2.1823  0.5217  1.7222
 1880TIP3   OH229834   6.444   0.560  15.561  0.3063 -0.9999  0.2651
 1880TIP3    H129835   6.504   0.563  15.636  0.2526 -0.0071  0.2926
 1880TIP3    H229836   6.415   0.651  15.551 -2.3709 -1.6831  1.1657
 1881TIP3   OH229837   3.951   6.008  15.488 -0.5860 -0.1757  0.0091
 1881TIP3    H129838   4.035   6.043  15.517  2.0169 -4.4489 -1.4979
 1881TIP3    H229839   3.941   6.039  15.398 -0.4074  0.0270  0.0581
 1882TIP3   OH229840   0.954   2.889  15.878  0.2878 -0.4753 -0.4378
 1882TIP3    H129841   0.977   2.833  15.952  3.1031  0.1017 -0.7645
 1882TIP3    H229842   0.874   2.850  15.843 -0.7054 -1.2225  2.3799
 1883TIP3   OH229843   5.834   1.915  14.385  0.3734  0.1481 -0.4851
 1883TIP3    H129844   5.922   1.920  14.421  0.3519 -0.1480 -0.3895
 1883TIP3    H229845   5.829   1.987  14.322  0.0931  1.2808  0.7956
 1884TIP3   OH229846   3.485   1.654  15.203  0.2311  0.2496  0.1578
 1884TIP3    H129847   3.422   1.650  15.131 -2.3627  1.4421  2.1673
 1884TIP3    H229848   3.535   1.734  15.186 -0.6225  0.7388 -0.1601
 1885TIP3   OH229849   6.016   5.982  13.866  0.4022  0.2189  0.1933
 1885TIP3    H129850   6.039   6.033  13.944  1.1841 -0.0754  0.1607
 1885TIP3    H229851   6.099   5.945  13.836  0.2962  1.1992 -1.4056
 1886TIP3   OH229852   3.702   2.874  14.151  0.7424  0.4276  0.2222
 1886TIP3    H129853   3.757   2.862  14.074 -0.4254  0.9219 -0.7218
 1886TIP3    H229854   3.656   2.957  14.135 -0.0109  0.2020  1.1476
 1887TIP3   OH229855   6.619   1.384  14.667 -0.7012 -0.0859 -0.5886
 1887TIP3    H129856   6.533   1.345  14.686 -0.9998  0.4441 -0.8122
 1887TIP3    H229857   6.642   1.431  14.747  0.2211 -1.6620  0.1345
 1888TIP3   OH229858   2.645   4.470  14.901  0.1464  0.0815 -0.3405
 1888TIP3    H129859   2.677   4.417  14.974  0.7568  1.1362  0.1997
 1888TIP3    H229860   2.689   4.435  14.824 -0.3311 -0.9075 -0.1654
 1889TIP3   OH229861   1.217   1.943  13.544 -0.8454  0.2213 -0.0195
 1889TIP3    H129862   1.152   1.946  13.474 -0.6441 -1.4353 -0.3303
 1889TIP3    H229863   1.244   2.034  13.556 -3.0242  0.9279 -0.0313
 1890TIP3   OH229864   4.849   5.770  15.391 -0.4464 -0.0317 -0.6814
 1890TIP3    H129865   4.805   5.834  15.446  0.5133 -0.1693  0.2663
 1890TIP3    H229866   4.841   5.687  15.439 -0.2929 -0.3135 -1.1327
 1891TIP3   OH229867   3.064   4.061  15.087  0.2786  0.1694 -0.0579
 1891TIP3    H129868   3.085   3.987  15.144  1.1370  0.3178 -0.1700
 1891TIP3    H229869   3.016   4.122  15.143  1.6201  0.5744  0.6850
 1892TIP3   OH229870   2.895   0.243  14.504  0.1567 -0.2136 -0.1475
 1892TIP3    H129871   2.884   0.151  14.528  0.2904 -0.4997 -1.1547
 1892TIP3    H229872   2.908   0.242  14.410  0.1633  0.8455 -0.1679
 1893TIP3   OH229873   2.962   6.656  13.743 -0.4654 -0.1171  0.6284
 1893TIP3    H129874   3.037   6.626  13.691  0.1719  0.7164  1.0491
 1893TIP3    H229875   2.925   6.729  13.692 -1.1080 -0.6232  0.3423
 1894TIP3   OH229876   0.435   5.553  14.182  0.2577 -0.1847  0.0974
 1894TIP3    H129877   0.492   5.620  14.145 -1.3198  0.6348 -0.9464
 1894TIP3    H229878   0.463   5.472  14.138  1.5450 -0.0914  0.6754
 1895TIP3   OH229879   5.044   5.952  16.828  0.2862  0.2852 -0.1562
 1895TIP3    H129880   5.070   5.866  16.797  1.3445  1.3431 -2.4532
 1895TIP3    H229881   4.948   5.949  16.829  0.3159 -1.0580  0.3069
 1896TIP3   OH229882   6.254   4.988  14.714  0.0952 -0.3827  0.0933
 1896TIP3    H129883   6.284   5.059  14.658 -0.5710 -0.3831 -0.2831
 1896TIP3    H229884   6.227   4.919  14.653 -1.1460 -0.1837  0.3734
 1897TIP3   OH229885   1.868   2.475  15.956 -0.2081  0.4658 -0.3886
 1897TIP3    H129886   1.836   2.385  15.969 -1.1953  1.1504  2.7503
 1897TIP3    H229887   1.940   2.465  15.895 -1.7662 -2.1385 -2.0103
 1898TIP3   OH229888   5.234   1.038  13.920 -0.0596 -0.1737  0.2536
 1898TIP3    H129889   5.318   1.064  13.884 -0.6756  1.8978  0.2139
 1898TIP3    H229890   5.183   1.009  13.845 -0.0110  0.3871 -0.0002
 1899TIP3   OH229891   1.547   1.310  15.250 -0.0794 -0.4495  0.3225
 1899TIP3    H129892   1.565   1.218  15.233 -0.8348 -0.2535 -1.7759
 1899TIP3    H229893   1.506   1.311  15.336  2.6585 -1.7012  1.7726
 1900TIP3   OH229894   2.094   1.885  16.180  0.4239  0.2664  0.4708
 1900TIP3    H129895   2.043   1.920  16.107 -0.1044  0.8631  1.1213
 1900TIP3    H229896   2.056   1.925  16.258  1.3994  0.1358  1.0296
 1901TIP3   OH229897   2.669   3.429  15.604  0.2730  0.0002  0.2188
 1901TIP3    H129898   2.749   3.474  15.629 -0.6248  0.3837  2.5920
 1901TIP3    H229899   2.632   3.483  15.534  1.6236  0.2551 -0.3402
 1902TIP3   OH229900   4.947   3.267  15.141  0.3991 -0.4715  0.5196
 1902TIP3    H129901   4.952   3.200  15.210  1.5680  1.2042  2.1834
 1902TIP3    H229902   5.004   3.338  15.173 -0.6701  1.2651 -1.2145
 1903TIP3   OH229903   1.731   1.106  15.670 -0.9375 -0.2157  0.7924
 1903TIP3    H129904   1.756   1.133  15.758 -1.3025 -1.1450  1.1983
 1903TIP3    H229905   1.740   1.011  15.671 -3.6444 -0.5461  0.7241
 1904TIP3   OH229906   1.862   0.029  14.502  0.0861 -0.0909  0.3909
 1904TIP3    H129907   1.880   0.108  14.451  1.0703 -0.1720  0.5962
 1904TIP3    H229908   1.891  -0.043  14.447 -0.7053 -0.3190  0.2530
 1905TIP3   OH229909   4.475   1.352  14.525 -0.1231  0.6259  0.2332
 1905TIP3    H129910   4.559   1.391  14.548  0.4686  0.3757 -1.3605
 1905TIP3    H229911   4.448   1.305  14.604  2.9287 -2.1976 -0.1899
 1906TIP3   OH229912   2.235   0.519  15.096 -0.7346  0.3651 -0.6045
 1906TIP3    H129913   2.300   0.510  15.165  1.0041  0.7881 -2.1155
 1906TIP3    H229914   2.191   0.602  15.114 -1.7140 -0.4645  1.0702
 1907TIP3   OH229915   5.935   0.895  15.080 -0.0750 -0.1031  0.1291
 1907TIP3    H129916   5.939   0.799  15.077 -0.0600 -0.0952 -0.1316
 1907TIP3    H229917   6.004   0.924  15.020  1.4576  0.0915  1.8996
 1908TIP3   OH229918   0.027   6.265  13.687  0.5398  0.3738  0.1981
 1908TIP3    H129919  -0.063   6.260  13.719 -0.1922  0.6345 -1.7372
 1908TIP3    H229920   0.066   6.338  13.735 -0.6900  1.1227  0.0836
 1909TIP3   OH229921   1.158   1.508  14.710 -0.6057 -0.1631  0.0252
 1909TIP3    H129922   1.123   1.444  14.649 -0.0959 -0.1492 -0.2936
 1909TIP3    H229923   1.100   1.584  14.702 -0.5035 -0.1370 -0.4942
 1910TIP3   OH229924   4.428   3.573  15.852  0.1910 -0.8140  0.2448
 1910TIP3    H129925   4.506   3.520  15.865  0.5806 -0.1580  0.6372
 1910TIP3    H229926   4.448   3.657  15.894  0.0551  0.0832 -1.3902
 1911TIP3   OH229927   4.532   6.241  13.916 -0.0165 -0.9684 -0.0467
 1911TIP3    H129928   4.548   6.152  13.884 -0.1966 -1.3636  0.9440
 1911TIP3    H229929   4.521   6.231  14.010 -0.0102  0.1127  0.0770
 1912TIP3   OH229930   3.607   6.112  17.084 -0.5110 -0.2529 -0.4365
 1912TIP3    H129931   3.578   6.202  17.090  0.5979  0.0174  2.0551
 1912TIP3    H229932   3.527   6.061  17.073 -1.3733  0.8814  0.4169
 1913TIP3   OH229933   1.953   2.028  16.823 -0.2884  0.0295 -0.0766
 1913TIP3    H129934   1.958   2.124  16.833  1.3583 -0.0076 -0.3641
 1913TIP3    H229935   2.033   1.996  16.864 -1.6147 -1.3825  1.5237
 1914TIP3   OH229936   2.001   4.978  15.109  0.3761  0.3150  0.3083
 1914TIP3    H129937   2.039   4.900  15.150 -0.9303 -1.2938 -1.3513
 1914TIP3    H229938   2.071   5.014  15.055  0.1597 -1.6721 -1.4480
 1915TIP3   OH229939   3.715   3.246  13.546  0.6292  0.1346  0.3221
 1915TIP3    H129940   3.674   3.224  13.630 -0.4495  1.7490  0.2716
 1915TIP3    H229941   3.653   3.214  13.480  0.5820  0.4844  0.1938
 1916TIP3   OH229942   4.890   0.535  14.939  0.3985  0.4848  0.0633
 1916TIP3    H129943   4.914   0.558  14.849 -2.6457  1.0693 -0.7051
 1916TIP3    H229944   4.882   0.619  14.983 -1.3281  0.4318 -0.0842
 1917TIP3   OH229945   0.744   1.210  15.699 -0.3450  0.0066  0.1659
 1917TIP3    H129946   0.748   1.142  15.766 -1.8985  0.8253  1.1441
 1917TIP3    H229947   0.833   1.212  15.662  0.3071 -1.0916  1.5519
 1918TIP3   OH229948   2.546   5.124  16.115 -0.1552  0.0845  0.3582
 1918TIP3    H129949   2.559   5.134  16.021  0.7940 -0.0443  0.4696
 1918TIP3    H229950   2.456   5.153  16.130 -0.7049 -0.9582 -0.7470
 1919TIP3   OH229951   5.395   5.453  15.822 -0.2549  0.3884 -0.3663
 1919TIP3    H129952   5.399   5.532  15.768  1.0255  1.4075  1.1211
 1919TIP3    H229953   5.337   5.476  15.894  0.1177 -0.0288  0.0739
 1920TIP3   OH229954   1.781   6.629  13.850  0.5472  1.1656 -0.0877
 1920TIP3    H129955   1.751   6.661  13.766  1.5373 -0.0428 -0.9425
 1920TIP3    H229956   1.721   6.558  13.872 -0.4018  2.2183  0.8013
 1921TIP3   OH229957   2.539   5.080  14.874  0.6427  0.2288 -0.6656
 1921TIP3    H129958   2.571   5.169  14.860  0.9551  0.2992  0.4323
 1921TIP3    H229959   2.471   5.090  14.941  1.4231 -0.4830  0.2563
 1922TIP3   OH229960   6.475   1.851  15.631 -0.1405 -0.0159  0.6164
 1922TIP3    H129961   6.535   1.839  15.557 -0.3255 -1.6771  0.6999
 1922TIP3    H229962   6.528   1.831  15.708 -0.9147 -2.0787  0.6493
 1923TIP3   OH229963   5.150   6.505  16.817  0.0584 -0.9928 -0.1578
 1923TIP3    H129964   5.120   6.536  16.902 -0.8054 -0.7044 -0.5562
 1923TIP3    H229965   5.132   6.411  16.818 -2.1553 -0.6329 -0.8750
 1924TIP3   OH229966   5.944   5.909  16.384  0.3982 -0.4242 -0.0636
 1924TIP3    H129967   5.855   5.919  16.350  0.7283  0.8275 -0.6269
 1924TIP3    H229968   5.969   5.819  16.361 -0.8375 -0.9043  0.4230
 1925TIP3   OH229969   5.461   5.203  15.714 -0.0299 -0.0773 -0.2380
 1925TIP3    H129970   5.372   5.182  15.686  0.8928 -1.1335 -2.5937
 1925TIP3    H229971   5.453   5.287  15.759 -2.0509  0.4335 -1.4499
 1926TIP3   OH229972   4.258   4.983  15.827  0.0681  0.4605 -0.2107
 1926TIP3    H129973   4.334   4.986  15.768 -0.7736  0.8030 -1.3103
 1926TIP3    H229974   4.231   4.891  15.826 -0.8173  0.6954 -1.5598
 1927TIP3   OH229975   2.270   3.182  13.959  0.2183 -0.6185 -0.0961
 1927TIP3    H129976   2.216   3.181  14.039  0.3254  2.5950  0.1555
 1927TIP3    H229977   2.351   3.225  13.986 -0.1301  1.4541 -2.0943
 1928TIP3   OH229978   1.776   2.486  16.371  0.1794 -0.3593  0.2674
 1928TIP3    H129979   1.723   2.485  16.291 -1.2744  1.8198  1.1134
 1928TIP3    H229980   1.777   2.394  16.399 -0.5909 -0.9278 -1.4002
 1929TIP3   OH229981   6.133   0.209  14.479  0.1985 -0.9895 -0.7694
 1929TIP3    H129982   6.209   0.225  14.535 -0.6063 -2.3537  0.8071
 1929TIP3    H229983   6.087   0.137  14.522 -0.9274 -1.5189 -2.7701
 1930TIP3   OH229984   5.085   5.320  14.151  0.6631  0.0543  0.1878
 1930TIP3    H129985   5.155   5.385  14.147  1.2637 -0.6496 -2.2340
 1930TIP3    H229986   5.020   5.351  14.088  0.3020 -0.9934  0.0326
 1931TIP3   OH229987   4.016   3.754  16.524  0.0867  0.0627 -0.1686
 1931TIP3    H129988   3.934   3.750  16.475  0.2917 -0.3441 -0.4903
 1931TIP3    H229989   4.022   3.844  16.554  0.1295  0.4259 -1.2106
 1932TIP3   OH229990   1.556   6.649  14.437 -0.3631 -0.0161  0.0189
 1932TIP3    H129991   1.638   6.619  14.475  1.0429  2.5694 -0.7415
 1932TIP3    H229992   1.525   6.574  14.385  1.3404 -1.1511  0.5549
 1933TIP3   OH229993   2.929   6.480  14.051 -0.2116  0.1068  0.2995
 1933TIP3    H129994   2.983   6.449  14.124 -0.0845 -0.9546 -0.2340
 1933TIP3    H229995   2.955   6.571  14.040  1.2147 -0.2791  0.2923
 1934TIP3   OH229996   0.485   5.960  14.099 -0.4767  0.0147 -0.3651
 1934TIP3    H129997   0.462   5.953  14.007  1.8534  0.8372 -1.0795
 1934TIP3    H229998   0.580   5.968  14.100 -0.3887 -0.3858  2.1492
 1935TIP3   OH229999   2.841   4.273  16.851 -0.1951 -0.0185 -0.0504
 1935TIP3    H130000   2.855   4.235  16.764 -1.0530  2.2703 -1.2829
 1935TIP3    H230001   2.922   4.321  16.868  0.5012 -1.5183  1.0615
 1936TIP3   OH230002   4.369   2.723  15.830  0.0470 -0.5185 -0.8079
 1936TIP3    H130003   4.345   2.641  15.873  0.5009  0.0168  0.5567
 1936TIP3    H230004   4.285   2.766  15.811 -0.1754 -0.9299 -0.7585
 1937TIP3   OH230005   4.933   4.907  16.791  0.0889 -0.2359  0.6164
 1937TIP3    H130006   4.882   4.903  16.872 -0.3580  0.6347  0.3907
 1937TIP3    H230007   4.931   4.817  16.757  0.1857 -0.5827  1.4998
 1938TIP3   OH230008   1.480   3.991  15.911  0.3161 -0.1177 -0.1858
 1938TIP3    H130009   1.402   4.031  15.950  0.3685 -0.5084  0.3374
 1938TIP3    H230010   1.457   3.899  15.901  1.2931 -0.5924  1.5738
 1939TIP3   OH230011   0.032   0.224  15.552  0.2699  0.2858  0.6058
 1939TIP3    H130012   0.075   0.304  15.524 -0.0506  0.6847  1.2465
 1939TIP3    H230013  -0.057   0.250  15.574 -0.6349 -0.6769 -1.5764
 1940TIP3   OH230014   3.801   4.482  16.469  0.6036  0.3119 -0.1238
 1940TIP3    H130015   3.791   4.398  16.425  0.1802  0.2733  0.0452
 1940TIP3    H230016   3.731   4.484  16.534 -0.5883  1.5835 -1.3524
 1941TIP3   OH230017   4.729   4.915  16.129 -0.0296 -0.5087  0.2654
 1941TIP3    H130018   4.727   4.868  16.045 -1.2752  2.7254 -1.6609
 1941TIP3    H230019   4.813   4.961  16.128 -0.9117  1.1730 -0.2634
 1942TIP3   OH230020   2.433   1.251  14.097 -0.1042  0.1050 -0.2006
 1942TIP3    H130021   2.486   1.312  14.148  0.1251 -0.0020 -0.3089
 1942TIP3    H230022   2.343   1.280  14.111 -0.0274  0.2190  0.0767
 1943TIP3   OH230023   0.167   4.699  16.424  0.2388  0.0828  0.2800
 1943TIP3    H130024   0.085   4.735  16.393 -0.2235 -1.4845 -0.4504
 1943TIP3    H230025   0.211   4.772  16.468 -1.5921  0.9038  0.8338
 1944TIP3   OH230026   6.605   6.710  15.393 -0.1441 -0.2410  0.0524
 1944TIP3    H130027   6.568   6.657  15.463  0.2696 -1.9862 -0.9826
 1944TIP3    H230028   6.665   6.770  15.437  1.0076 -2.0830  1.1454
 1945TIP3   OH230029   6.037   0.945  14.423 -0.0989  0.3111 -0.0092
 1945TIP3    H130030   6.007   1.032  14.452  0.2902  0.4391  0.0072
 1945TIP3    H230031   6.002   0.885  14.489 -0.9856  0.3696 -0.4034
 1946TIP3   OH230032   1.670   0.271  15.322 -0.0610 -0.3987  0.1536
 1946TIP3    H130033   1.665   0.285  15.416 -0.6446 -0.3968  0.1222
 1946TIP3    H230034   1.757   0.232  15.308 -0.1928 -0.9187  0.7543
 1947TIP3   OH230035   6.250   6.091  15.843 -0.1710 -0.3816  0.0724
 1947TIP3    H130036   6.244   6.095  15.747  2.0261  0.6135 -0.0810
 1947TIP3    H230037   6.250   6.183  15.870  0.9605 -0.5966  0.8607
 1948TIP3   OH230038   6.136   3.040  16.035  0.1559 -0.7038 -0.2949
 1948TIP3    H130039   6.112   2.948  16.039 -0.0391 -0.6032  1.0035
 1948TIP3    H230040   6.174   3.060  16.120 -1.2895  0.8104  0.0663
 1949TIP3   OH230041   4.231   5.573  16.953  0.4597 -0.4113 -0.5085
 1949TIP3    H130042   4.170   5.515  16.999 -0.0208  0.9628  0.6708
 1949TIP3    H230043   4.176   5.622  16.893  0.5830  0.0060 -0.2849
 1950TIP3   OH230044   2.414   5.963  14.911  0.1252  0.3204  0.1328
 1950TIP3    H130045   2.322   5.944  14.931  0.1257 -0.3772 -0.5003
 1950TIP3    H230046   2.437   5.901  14.842  0.8074  1.1087 -0.3601
 1951TIP3   OH230047   3.175   0.098  16.039 -0.6500 -0.4912  0.3229
 1951TIP3    H130048   3.113   0.097  16.112  1.4167  0.0438  2.2163
 1951TIP3    H230049   3.213   0.185  16.042  1.3322 -1.3100  0.2858
 1952TIP3   OH230050   6.352   5.632  14.099  0.6510  0.0948 -0.0689
 1952TIP3    H130051   6.304   5.635  14.017 -0.3030 -4.1532  0.1054
 1952TIP3    H230052   6.284   5.618  14.166  1.7337 -2.9800  0.5521
 1953TIP3   OH230053   2.954   6.355  17.206  0.2403 -0.0008 -0.0288
 1953TIP3    H130054   3.006   6.316  17.136 -0.0667 -0.4198 -0.0251
 1953TIP3    H230055   2.872   6.380  17.163  1.1551  2.4734 -0.5013
 1954TIP3   OH230056   0.781   4.942  15.775  0.3486  0.6772 -0.1464
 1954TIP3    H130057   0.751   4.874  15.835  1.4854 -1.5648 -2.0075
 1954TIP3    H230058   0.700   4.984  15.745 -0.6658 -1.7388 -1.0635
 1955TIP3   OH230059   4.447   6.374  17.055  0.7967  0.3039 -0.1729
 1955TIP3    H130060   4.358   6.403  17.074  1.5455  3.0441 -0.4434
 1955TIP3    H230061   4.444   6.279  17.065 -1.4898  0.5427  2.5968
 1956TIP3   OH230062   1.703   4.878  14.484  0.0629  0.0603  0.4760
 1956TIP3    H130063   1.661   4.924  14.556  2.1273  1.9264  0.5953
 1956TIP3    H230064   1.706   4.942  14.413  2.3641 -0.0539  0.3961
 1957TIP3   OH230065   4.841   1.157  16.570  0.8230  0.0713 -0.3469
 1957TIP3    H130066   4.918   1.101  16.582 -0.2883 -1.3802  0.2632
 1957TIP3    H230067   4.878   1.244  16.557  2.5496 -0.0915  2.5140
 1958TIP3   OH230068   0.350   4.152  16.039  0.3729  0.5030 -0.1648
 1958TIP3    H130069   0.260   4.180  16.054  0.7029  0.1443  3.3750
 1958TIP3    H230070   0.357   4.068  16.085  2.9383  1.4461  1.4436
 1959TIP3   OH230071   4.415   1.521  14.308 -0.1447 -0.1938  0.0621
 1959TIP3    H130072   4.466   1.501  14.229  2.0261  0.7201  1.1372
 1959TIP3    H230073   4.453   1.464  14.375  0.9367  1.9778  1.3782
 1960TIP3   OH230074   6.374   4.098  15.988 -0.1138  0.0608 -0.1829
 1960TIP3    H130075   6.363   4.134  15.899  0.1407 -2.2208 -1.2151
 1960TIP3    H230076   6.376   4.003  15.975  1.3977 -0.2938  2.1345
 1961TIP3   OH230077   1.972   6.355  16.915 -0.6736 -0.3107 -0.1658
 1961TIP3    H130078   2.059   6.392  16.926 -0.5400 -0.2298 -1.3528
 1961TIP3    H230079   1.978   6.267  16.951  0.5403 -1.1121 -2.1442
 1962TIP3   OH230080   0.269   4.116  14.532  0.1126 -0.3822  0.0009
 1962TIP3    H130081   0.352   4.131  14.577 -0.6134 -1.0339  1.6568
 1962TIP3    H230082   0.290   4.052  14.464  1.1086  0.0612 -0.1267
 1963TIP3   OH230083   5.028   2.083  16.856 -0.2847 -0.4870  0.1229
 1963TIP3    H130084   5.113   2.125  16.846  0.1532 -1.3463  0.2297
 1963TIP3    H230085   5.042   1.992  16.831 -1.5216 -0.3057 -1.4177
 1964TIP3   OH230086   3.514   6.071  14.552  0.3999 -0.6715 -0.2150
 1964TIP3    H130087   3.566   6.147  14.525 -0.8361  0.0145 -0.7607
 1964TIP3    H230088   3.513   6.014  14.476 -0.0115 -0.4727 -0.3613
 1965TIP3   OH230089   5.141   2.924  15.117 -0.1576 -0.2199 -0.1490
 1965TIP3    H130090   5.151   2.925  15.212  1.3000 -1.8605 -0.2351
 1965TIP3    H230091   5.048   2.907  15.103 -0.3835 -0.0131  0.9824
 1966TIP3   OH230092   5.893   4.749  14.159 -0.4984  0.3979 -0.2320
 1966TIP3    H130093   5.878   4.738  14.253  0.4384  0.6447 -0.0385
 1966TIP3    H230094   5.871   4.663  14.121  0.4150 -0.1397  0.4020
 1967TIP3   OH230095   3.977   6.584  16.658  0.3361  0.1856 -0.2664
 1967TIP3    H130096   3.957   6.586  16.564 -1.1720  1.4771  0.0240
 1967TIP3    H230097   3.891   6.586  16.700  1.0066  0.3737  1.1490
 1968TIP3   OH230098   5.255   2.217  16.550 -0.1565  0.3494 -0.3369
 1968TIP3    H130099   5.223   2.306  16.563 -1.4370 -0.0504 -0.5911
 1968TIP3    H230100   5.289   2.191  16.636 -1.7379  0.3547  0.3341
 1969TIP3   OH230101   1.462   1.666  14.920 -0.0890 -0.4156  0.0462
 1969TIP3    H130102   1.505   1.629  14.997 -1.3634 -1.5873  0.2217
 1969TIP3    H230103   1.487   1.608  14.848 -2.4948 -2.0292  0.4100
 1970TIP3   OH230104   2.892   0.925  16.316 -0.1970  0.1142  0.0611
 1970TIP3    H130105   2.863   0.895  16.230 -0.8644  1.5290 -0.2282
 1970TIP3    H230106   2.823   0.898  16.376 -0.1089 -0.1732  0.0350
 1971TIP3   OH230107   0.852   2.901  16.818  0.2118  0.4228  0.0650
 1971TIP3    H130108   0.847   2.889  16.724  0.5368 -0.9179  0.1983
 1971TIP3    H230109   0.765   2.879  16.850  0.0244  1.1327  0.0671
 1972TIP3   OH230110   4.499   2.491  15.588 -0.0371  0.6605  0.3626
 1972TIP3    H130111   4.523   2.463  15.676 -0.7784 -2.1803 -0.2394
 1972TIP3    H230112   4.558   2.443  15.530 -1.4616  0.1856 -0.7732
 1973TIP3   OH230113   5.925   5.762  14.040  0.3690  0.6581 -0.6073
 1973TIP3    H130114   5.945   5.822  13.967  0.5642  3.0154  1.2429
 1973TIP3    H230115   5.896   5.820  14.111 -1.3897 -1.6669  0.7082
 1974TIP3   OH230116   1.121   0.626  15.632  0.6947 -0.2191  0.5362
 1974TIP3    H130117   1.039   0.581  15.653  0.6671  0.4845  2.0973
 1974TIP3    H230118   1.109   0.658  15.543 -0.7400 -0.1057  0.7442
 1975TIP3   OH230119   6.703   1.352  13.145  0.0443 -0.1995 -0.4161
 1975TIP3    H130120   6.676   1.261  13.156 -1.0137  0.4129  3.5810
 1975TIP3    H230121   6.620   1.400  13.135  0.3698  0.6053  0.6231
 1976TIP3   OH230122   3.253   1.333  15.891 -0.2727  0.3594  0.2541
 1976TIP3    H130123   3.182   1.394  15.911  0.6363  0.8579  2.1780
 1976TIP3    H230124   3.331   1.388  15.880  0.3504 -0.3632  0.9222
 1977TIP3   OH230125   4.884   2.341  15.266 -0.5294 -0.5208 -0.3064
 1977TIP3    H130126   4.813   2.276  15.259  0.3895 -1.5566 -0.3414
 1977TIP3    H230127   4.883   2.386  15.181 -1.9324  0.3473  0.1396
 1978TIP3   OH230128   5.021   3.332  14.735 -0.1288 -0.3417  0.3455
 1978TIP3    H130129   5.060   3.347  14.649 -1.0163  0.1581  0.0076
 1978TIP3    H230130   5.065   3.394  14.793  0.9493 -1.1440  0.4167
 1979TIP3   OH230131   1.081   1.858  15.464 -0.1757 -0.4800  0.1150
 1979TIP3    H130132   1.062   1.918  15.392 -0.0807  0.2633  0.6947
 1979TIP3    H230133   1.149   1.800  15.430 -0.2915 -0.2733 -0.4657
 1980TIP3   OH230134   2.952   5.757  15.685 -0.2204 -0.2222  0.0043
 1980TIP3    H130135   2.939   5.695  15.613  1.1867  0.8439 -1.2499
 1980TIP3    H230136   3.035   5.730  15.724 -0.2386  0.1081  0.2696
 1981TIP3   OH230137   1.453   5.548  14.223  0.1095  0.2135  0.3601
 1981TIP3    H130138   1.486   5.495  14.296 -2.0228  0.6497  1.7321
 1981TIP3    H230139   1.491   5.635  14.237 -0.2025  0.2657  0.8899
 1982TIP3   OH230140   6.550   0.427  17.044 -0.3780 -0.4092  0.0657
 1982TIP3    H130141   6.481   0.493  17.032 -0.0720 -0.2930 -1.2161
 1982TIP3    H230142   6.550   0.377  16.962  1.3401 -0.1183 -0.1490
 1983TIP3   OH230143   5.610   1.539  16.712 -0.0464  0.9513 -0.0593
 1983TIP3    H130144   5.530   1.571  16.754  0.3786  0.4047  1.2130
 1983TIP3    H230145   5.632   1.459  16.760  0.2908  0.1044 -1.5554
 1984TIP3   OH230146   2.667   0.396  16.926  0.0713 -0.1366  0.2265
 1984TIP3    H130147   2.740   0.431  16.873 -0.5642 -0.2752 -0.7691
 1984TIP3    H230148   2.647   0.467  16.987  0.8316  0.0311  0.2986
 1985TIP3   OH230149   3.893   2.049  15.581  0.2892 -0.3557 -0.3189
 1985TIP3    H130150   3.826   2.070  15.646  0.0862  0.0004 -0.6440
 1985TIP3    H230151   3.963   2.006  15.632 -1.5461 -3.8372 -0.4112
 1986TIP3   OH230152   4.555   1.264  16.481  0.5610 -0.3451  0.3340
 1986TIP3    H130153   4.525   1.287  16.570  0.4839  0.1904  0.1772
 1986TIP3    H230154   4.650   1.255  16.490  0.5855 -0.0192  0.4176
 1987TIP3   OH230155   5.655   5.046  13.767  0.2065  0.2261  0.4973
 1987TIP3    H130156   5.635   5.042  13.674  1.1436 -0.0160  0.2975
 1987TIP3    H230157   5.678   4.956  13.791  0.6926  0.4279  0.7952
 1988TIP3   OH230158   5.938   2.653  15.480  0.6442  0.5754  0.2820
 1988TIP3    H130159   5.909   2.593  15.548 -0.3976 -0.4943 -1.0321
 1988TIP3    H230160   5.938   2.739  15.521 -4.5291  0.7700  0.5404
 1989TIP3   OH230161   5.221   0.667  16.613  0.4848 -0.2680  0.0043
 1989TIP3    H130162   5.194   0.669  16.705 -0.7198 -0.8564 -0.3284
 1989TIP3    H230163   5.256   0.579  16.601  0.9328 -0.0892 -0.0333
 1990TIP3   OH230164   2.677   4.067  16.902  0.2361 -0.1882  0.4012
 1990TIP3    H130165   2.591   4.093  16.935  0.1980  0.1987 -0.0069
 1990TIP3    H230166   2.725   4.149  16.891  1.6860 -0.4984  3.3664
 1991TIP3   OH230167   2.897   1.471  15.258  0.2819 -0.1162 -0.0150
 1991TIP3    H130168   2.913   1.563  15.277 -1.6710  0.3462 -0.3966
 1991TIP3    H230169   2.976   1.426  15.288  1.0662  1.6077  0.6306
 1992TIP3   OH230170   0.858   1.222  16.824 -0.3936  0.8868  0.2037
 1992TIP3    H130171   0.854   1.149  16.764  0.5117  1.8107 -1.0253
 1992TIP3    H230172   0.778   1.215  16.877 -0.5851 -0.6356 -0.2677
 1993TIP3   OH230173   3.753   1.914  14.435 -0.3198 -0.1430  0.1046
 1993TIP3    H130174   3.844   1.915  14.405 -0.6710  1.6517 -1.0256
 1993TIP3    H230175   3.743   1.995  14.484 -1.5216  0.0551 -0.4379
 1994TIP3   OH230176   4.033   0.270  17.000 -0.2196 -0.4225  0.2677
 1994TIP3    H130177   4.116   0.317  16.989 -0.5365 -0.2066 -1.7607
 1994TIP3    H230178   4.052   0.181  16.971 -0.2667 -0.8678  1.5702
 1995TIP3   OH230179   6.576   5.086  17.072  0.0370  0.4453 -0.0650
 1995TIP3    H130180   6.655   5.040  17.101 -1.1054 -0.5869  1.5558
 1995TIP3    H230181   6.586   5.175  17.106  0.2210  0.1389  0.7117
 1996TIP3   OH230182   2.505   6.465  16.773  0.6146 -0.2763 -0.6277
 1996TIP3    H130183   2.513   6.517  16.853  0.8213 -1.5827  0.2428
 1996TIP3    H230184   2.411   6.466  16.754  0.4861 -0.3934 -0.0386
 1997TIP3   OH230185   5.391   0.529  16.168  0.1343  0.2895  0.1921
 1997TIP3    H130186   5.300   0.526  16.199  1.1156 -0.5189  3.3661
 1997TIP3    H230187   5.392   0.471  16.091 -2.7524  3.4334 -2.5561
 1998TIP3   OH230188   5.503   3.965  15.839 -0.0395  0.0005  0.6709
 1998TIP3    H130189   5.502   4.020  15.917 -0.5816  0.3915  0.3929
 1998TIP3    H230190   5.411   3.955  15.815  0.1632  1.8040 -1.2306
 1999TIP3   OH230191   0.628   1.073  16.277  0.1405 -0.0399 -0.1078
 1999TIP3    H130192   0.570   1.024  16.219  1.0675  0.2088 -1.2810
 1999TIP3    H230193   0.658   1.008  16.340 -0.5961 -0.4046 -0.1212
 2000TIP3   OH230194   0.619   1.114  16.949 -0.2037  0.5791 -0.3302
 2000TIP3    H130195   0.650   1.044  17.007 -2.8810 -1.3030 -0.9455
 2000TIP3    H230196   0.554   1.160  17.001 -1.3108  0.0295 -1.1885
 2001TIP3   OH230197   2.918   0.887  15.278  0.2899  0.2674  0.3774
 2001TIP3    H130198   2.862   0.952  15.237 -0.1116 -0.9906 -1.1722
 2001TIP3    H230199   2.942   0.827  15.207  0.6120 -1.2797  1.7243
 2002TIP3   OH230200   5.955   3.584  16.490  0.2942  0.1114  0.4474
 2002TIP3    H130201   5.912   3.669  16.477 -3.1186 -1.2774  1.4772
 2002TIP3    H230202   5.919   3.529  16.421 -0.9302 -1.5534  2.3144
 2003TIP3   OH230203   0.064   1.624  16.051  1.0054 -0.1994  0.1281
 2003TIP3    H130204   0.109   1.629  16.135  2.2055  0.4200 -0.5235
 2003TIP3    H230205   0.036   1.714  16.033 -0.4581 -0.5680  0.4927
 2004TIP3   OH230206   6.558   5.107  16.789 -0.4608  0.2240 -0.1248
 2004TIP3    H130207   6.575   5.107  16.883  1.5659  0.7818 -0.4377
 2004TIP3    H230208   6.563   5.199  16.763 -0.8286  0.0618 -0.7957
 2005TIP3   OH230209   3.918   0.559  14.818  0.3066  0.4366  0.1471
 2005TIP3    H130210   3.980   0.617  14.776  0.5030 -0.9555 -1.5946
 2005TIP3    H230211   3.874   0.513  14.746 -0.2599 -1.1157  1.4122
 2006TIP3   OH230212   4.345   6.026  15.355  0.6904 -0.1043  0.3475
 2006TIP3    H130213   4.278   6.094  15.345 -0.6239 -1.4128 -0.1237
 2006TIP3    H230214   4.295   5.946  15.373  2.0530 -1.3273 -1.0385
 2007TIP3   OH230215   0.148   1.624  14.504  0.6069  0.0330  0.2675
 2007TIP3    H130216   0.110   1.712  14.513 -0.9368 -0.7073  1.6470
 2007TIP3    H230217   0.199   1.628  14.423  1.9177  2.6472  1.1024
 2008TIP3   OH230218   5.439   5.246  13.288 -0.2591 -0.1113 -0.2718
 2008TIP3    H130219   5.494   5.288  13.222 -0.9243 -1.2797 -1.6271
 2008TIP3    H230220   5.393   5.318  13.331 -0.3911  0.6229 -1.6132
 2009TIP3   OH230221   5.141   0.499  16.257  0.6677 -0.4122  0.1689
 2009TIP3    H130222   5.074   0.481  16.191 -0.0263 -0.3635  0.8496
 2009TIP3    H230223   5.164   0.413  16.292  1.1502 -0.4528 -0.2424
 2010TIP3   OH230224   1.558   1.800  14.256  0.0097 -0.1281 -0.4085
 2010TIP3    H130225   1.500   1.734  14.219 -0.1878  0.7361 -1.7147
 2010TIP3    H230226   1.529   1.810  14.347 -0.9393 -0.7384 -0.6361
 2011TIP3   OH230227   4.280   0.635  17.067  0.4079 -0.2619 -0.0922
 2011TIP3    H130228   4.327   0.718  17.057  1.4872 -0.7285  0.8118
 2011TIP3    H230229   4.282   0.597  16.980 -0.9279  1.0618 -0.7388
 2012TIP3   OH230230   6.394   5.580  15.241  0.1716  0.3547  0.0568
 2012TIP3    H130231   6.485   5.608  15.249  0.4576 -0.6257  0.2647
 2012TIP3    H230232   6.353   5.648  15.187  1.4370 -0.0991 -1.5314
 2013TIP3   OH230233   4.075   4.617  15.620 -0.0545  0.2265  0.0279
 2013TIP3    H130234   4.168   4.601  15.634  0.1945  1.6425  0.1065
 2013TIP3    H230235   4.047   4.666  15.697 -0.7409  0.2529 -0.2356
 2014TIP3   OH230236   0.109   2.387  13.594  0.1384  0.7187  0.5563
 2014TIP3    H130237   0.107   2.371  13.500  0.5876  0.3139  0.6092
 2014TIP3    H230238   0.192   2.433  13.608 -0.0671  1.0415  0.7142
 2015TIP3   OH230239   1.699   1.161  14.583  0.4536  0.5359 -0.5848
 2015TIP3    H130240   1.633   1.123  14.526 -1.7488  1.3976  1.2256
 2015TIP3    H230241   1.651   1.183  14.663  2.8767  1.5877  0.6731
 2016TIP3   OH230242   6.354   6.265  16.162  0.6898  0.0310 -0.0374
 2016TIP3    H130243   6.346   6.205  16.237 -0.6117 -0.1312 -0.2825
 2016TIP3    H230244   6.448   6.271  16.146  0.8575 -2.1454 -0.1637
 2017TIP3   OH230245   3.997   0.526  15.725 -0.3075 -0.7425  0.0099
 2017TIP3    H130246   3.978   0.556  15.814 -0.9259 -1.4640  0.1258
 2017TIP3    H230247   4.086   0.558  15.708 -1.1864  1.7679 -0.1656
 2018TIP3   OH230248   2.886   3.953  17.020 -0.5643  0.1319  0.7787
 2018TIP3    H130249   2.847   3.888  17.078 -1.2864 -0.1810 -0.0441
 2018TIP3    H230250   2.812   3.999  16.982 -0.2375 -1.1875 -1.6563
 2019TIP3   OH230251   1.139   6.415  16.254  0.2756  0.1073 -0.2965
 2019TIP3    H130252   1.156   6.415  16.348 -0.1093  0.4180 -0.2227
 2019TIP3    H230253   1.216   6.456  16.215  0.6050 -0.3666 -0.1504
 2020TIP3   OH230254   6.569   3.293  16.506  0.2215 -0.0731  0.6621
 2020TIP3    H130255   6.605   3.377  16.533  1.2289 -0.2988  0.0686
 2020TIP3    H230256   6.622   3.268  16.430 -0.1131 -1.2126  0.7914
 2021TIP3   OH230257   4.534   6.416  14.916  0.0372  0.2409  0.1048
 2021TIP3    H130258   4.612   6.361  14.916 -0.5385 -0.6158 -0.7730
 2021TIP3    H230259   4.497   6.406  15.003 -1.3179 -2.7047 -0.6660
 2022TIP3   OH230260   2.972   0.201  15.003 -0.6578 -0.0512  0.3656
 2022TIP3    H130261   2.889   0.152  15.004 -0.5554 -0.2235  0.4245
 2022TIP3    H230262   3.008   0.188  15.091 -0.7594  0.3514  0.4670
 2023TIP3   OH230263   5.054   4.948  15.296 -0.3911  0.4495 -0.1003
 2023TIP3    H130264   5.119   5.010  15.328  0.0178 -0.1206  0.2041
 2023TIP3    H230265   5.058   4.955  15.201 -1.9649  2.5195 -0.0810
 2024TIP3   OH230266   6.063   0.744  14.236 -0.2168  0.1438 -0.1385
 2024TIP3    H130267   6.150   0.739  14.196 -0.3350  2.4624 -0.8308
 2024TIP3    H230268   6.066   0.822  14.291 -2.1806  0.9324 -1.0569
 2025TIP3   OH230269   4.233   1.340  13.432  0.2487  0.4270  0.4917
 2025TIP3    H130270   4.189   1.416  13.469  0.1989 -0.8782  3.3819
 2025TIP3    H230271   4.162   1.286  13.397  0.2405  1.3553 -1.0379
 2026TIP3   OH230272   2.892   3.089  15.501  0.0436  0.3243 -0.1575
 2026TIP3    H130273   2.858   3.174  15.472 -2.1082  0.1086  1.4912
 2026TIP3    H230274   2.841   3.025  15.451 -1.4135  0.0059  1.6259
 2027TIP3   OH230275   0.719   4.171  15.536  0.1431 -0.1633  0.1643
 2027TIP3    H130276   0.695   4.103  15.598  0.5491  3.2289  4.4919
 2027TIP3    H230277   0.815   4.166  15.531  0.0478 -1.1677 -1.2765
 2028TIP3   OH230278   3.713   5.077  15.451  0.3107  0.1931  0.2284
 2028TIP3    H130279   3.792   5.130  15.440  0.7967 -0.8184 -1.6375
 2028TIP3    H230280   3.642   5.140  15.453  1.0909  1.0970  1.4317
 2029TIP3   OH230281   4.736   3.507  16.978  0.1797 -0.0107  0.2930
 2029TIP3    H130282   4.724   3.549  17.063  0.7549 -0.9660  0.8615
 2029TIP3    H230283   4.816   3.545  16.943  0.8922 -0.8375  0.9640
 2030TIP3   OH230284   5.669   0.576  16.891  0.1195  0.6562 -0.0981
 2030TIP3    H130285   5.625   0.537  16.815  1.1269 -1.2265  0.2057
 2030TIP3    H230286   5.599   0.618  16.940 -0.7910  0.6158 -1.3018
 2031TIP3   OH230287   1.111   6.286  15.979 -0.5296 -0.0587  0.9945
 2031TIP3    H130288   1.105   6.381  15.967 -0.7067 -0.3293 -1.6302
 2031TIP3    H230289   1.110   6.274  16.074 -0.8732  2.5266  1.3960
 2032TIP3   OH230290   2.041   6.066  15.851 -0.1007  0.0179  0.3065
 2032TIP3    H130291   1.983   6.051  15.926 -0.2514  0.9164  0.3867
 2032TIP3    H230292   2.120   6.016  15.871  0.3819  1.2339  1.7014
 2033TIP3   OH230293   0.541   3.425  13.826  0.0287 -0.0567  0.1724
 2033TIP3    H130294   0.531   3.487  13.898  1.8330  2.2249 -1.3843
 2033TIP3    H230295   0.633   3.396  13.832 -0.0799 -0.6019 -0.6269
 2034TIP3   OH230296   5.737   2.012  16.404  0.5617  0.5942 -0.1028
 2034TIP3    H130297   5.832   2.000  16.407  0.6615  1.4044  0.1012
 2034TIP3    H230298   5.722   2.095  16.449 -0.3278  0.0293  0.6642
 2035TIP3   OH230299   3.132   1.073  15.993  0.2728  0.0561 -0.6113
 2035TIP3    H130300   3.183   1.154  16.001 -0.4069  0.3667  1.2765
 2035TIP3    H230301   3.048   1.095  16.034 -0.9416 -0.8248 -2.4736
 2036TIP3   OH230302   5.415   2.102  14.680  0.4044 -0.2235 -0.6825
 2036TIP3    H130303   5.361   2.121  14.603 -0.7746  0.5829  0.2975
 2036TIP3    H230304   5.400   2.177  14.739 -0.1218 -1.6328  1.0600
 2037TIP3   OH230305   3.114   3.818  17.091  0.0012 -0.5594 -0.0268
 2037TIP3    H130306   3.061   3.889  17.055 -2.1823 -2.1850 -0.2053
 2037TIP3    H230307   3.127   3.843  17.182  1.6654  1.3528 -0.6932
 2038TIP3   OH230308   1.523   1.066  14.110  0.4610  0.1884 -0.1793
 2038TIP3    H130309   1.594   1.123  14.142  0.9980  0.2634 -1.4479
 2038TIP3    H230310   1.556   1.030  14.028 -0.6161 -0.5130 -0.3255
 2039TIP3   OH230311   2.354   0.279  15.636  0.0869 -0.5029 -0.3334
 2039TIP3    H130312   2.293   0.261  15.708 -0.5462 -0.2020 -0.7787
 2039TIP3    H230313   2.439   0.253  15.669 -0.1142  0.1071  0.7155
 2040TIP3   OH230314   5.138   6.373  16.185 -0.2389  0.4006 -0.6746
 2040TIP3    H130315   5.080   6.297  16.191 -0.5735  0.6701 -0.5385
 2040TIP3    H230316   5.140   6.394  16.092  0.6687 -0.4055 -0.8631
 2041TIP3   OH230317   0.962   3.221  15.509  0.0650  0.4435 -0.1896
 2041TIP3    H130318   0.924   3.142  15.473  0.1916  0.5935 -0.6504
 2041TIP3    H230319   0.952   3.287  15.440 -2.8222  1.6835  1.2477
 2042TIP3   OH230320   3.952   3.077  17.231 -0.0152 -0.2726  0.4208
 2042TIP3    H130321   3.921   3.150  17.285  1.6882 -0.5452  1.8620
 2042TIP3    H230322   3.983   3.119  17.151 -0.7738  0.3693  0.4481
 2043TIP3   OH230323   0.046   4.933  14.712  0.0558  0.0081  0.3462
 2043TIP3    H130324   0.090   4.958  14.632 -0.4491 -0.3018 -0.0342
 2043TIP3    H230325  -0.029   4.881  14.683 -1.3393  1.6322  0.8895
 2044TIP3   OH230326   4.589   4.830  14.480 -0.1045  0.1892 -0.4467
 2044TIP3    H130327   4.593   4.805  14.388 -2.3763 -0.2130 -0.4983
 2044TIP3    H230328   4.615   4.923  14.481 -0.6576  0.3709 -1.5767
 2045TIP3   OH230329   4.412   0.965  16.040  0.1453  1.2196  0.3929
 2045TIP3    H130330   4.481   0.967  15.975 -1.4720  1.4148 -1.3952
 2045TIP3    H230331   4.457   0.952  16.123  2.2831  1.1674 -0.7301
 2046TIP3   OH230332   0.167   3.649  14.461  0.0398  0.3097 -0.2949
 2046TIP3    H130333   0.162   3.574  14.402 -2.4740 -0.6093  0.9408
 2046TIP3    H230334   0.080   3.655  14.499  1.4802  0.7958  3.3774
 2047TIP3   OH230335   0.058   3.939  15.145  0.1148  0.3922  0.2389
 2047TIP3    H130336  -0.036   3.949  15.157 -0.2443 -1.8023 -0.4309
 2047TIP3    H230337   0.077   3.987  15.064 -0.1501  1.9961  1.0949
 2048TIP3   OH230338   4.124   0.249  13.183  0.0302 -0.1135  0.2362
 2048TIP3    H130339   4.079   0.326  13.215  0.6469 -0.1161  1.1568
 2048TIP3    H230340   4.188   0.283  13.120  0.2665  0.1332  0.6026
 2049TIP3   OH230341   2.271   1.762  15.911 -0.4001  0.5894  0.0361
 2049TIP3    H130342   2.359   1.767  15.874 -0.2325  0.0777  0.3492
 2049TIP3    H230343   2.239   1.852  15.911  0.6122  0.9692  1.0645
 2050TIP3   OH230344   5.506   2.852  16.904  0.1062 -0.3283 -0.0439
 2050TIP3    H130345   5.601   2.840  16.908  0.2500 -0.7223 -2.8202
 2050TIP3    H230346   5.494   2.947  16.912  0.8447 -0.1475 -0.9180
 2051TIP3   OH230347   1.412   5.172  16.921  0.6298 -0.0940 -0.4315
 2051TIP3    H130348   1.333   5.118  16.921 -0.2867  1.0214  2.4427
 2051TIP3    H230349   1.380   5.260  16.945  2.8552 -0.0279  2.9648
 2052TIP3   OH230350   4.635   0.766  15.214 -0.0219 -0.3408 -0.4453
 2052TIP3    H130351   4.713   0.764  15.159  0.6028 -1.8860  0.4502
 2052TIP3    H230352   4.660   0.823  15.287  0.3236 -0.8920 -0.1207
 2053TIP3   OH230353   5.114   0.769  16.298 -0.3076 -0.5496  0.0176
 2053TIP3    H130354   5.121   0.675  16.281 -0.7444 -0.5180 -0.3762
 2053TIP3    H230355   5.141   0.810  16.216 -0.2259 -0.3346  0.1520
 2054TIP3   OH230356   1.622   0.088  14.179 -0.1819  0.0991  0.0881
 2054TIP3    H130357   1.587   0.014  14.228  0.3821 -0.1863  0.0659
 2054TIP3    H230358   1.714   0.066  14.164 -0.1355  0.5707 -0.3590
 2055TIP3   OH230359   3.618   0.086  15.653 -0.5522 -0.1893 -0.4657
 2055TIP3    H130360   3.602   0.031  15.577 -0.7125  1.3669 -1.6256
 2055TIP3    H230361   3.553   0.059  15.717 -0.6167 -1.3221 -0.9980
 2056TIP3   OH230362   1.804   0.794  14.210  0.0141 -0.5725  1.2130
 2056TIP3    H130363   1.892   0.759  14.227  0.0928 -0.4515  1.0617
 2056TIP3    H230364   1.789   0.777  14.117  1.3336  2.5312  0.2890
 2057TIP3   OH230365   4.817   3.257  14.904  0.0325 -0.8569 -1.0760
 2057TIP3    H130366   4.854   3.265  14.992 -1.5114 -0.3962 -0.4507
 2057TIP3    H230367   4.889   3.285  14.846 -0.0706  2.6086  0.2116
 2058TIP3   OH230368   3.814   2.136  16.957 -0.0149  0.3095 -0.4494
 2058TIP3    H130369   3.821   2.182  16.874  0.1931  0.3338 -0.4194
 2058TIP3    H230370   3.903   2.104  16.974 -0.5258 -1.8040 -1.4326
 2059TIP3   OH230371   2.091   6.087  15.355 -0.2188 -0.2851 -0.2437
 2059TIP3    H130372   2.186   6.091  15.343 -0.3980  1.0529 -1.5478
 2059TIP3    H230373   2.065   6.179  15.367 -1.3002 -0.6834  0.6004
 2060TIP3   OH230374   5.016   1.413  16.237  0.4627 -0.0060 -0.0129
 2060TIP3    H130375   5.060   1.328  16.228 -0.2106 -0.1765 -2.2961
 2060TIP3    H230376   5.082   1.470  16.277  1.5750 -1.1197 -0.1965
 2061TIP3   OH230377   3.994   3.993  15.174 -0.0814 -0.3992  0.0116
 2061TIP3    H130378   4.010   4.087  15.170  2.8589 -0.8062 -0.0217
 2061TIP3    H230379   3.930   3.982  15.244 -1.7662  1.7043 -1.0739
 2062TIP3   OH230380   3.869   2.442  14.417  0.1948 -0.4890 -0.3040
 2062TIP3    H130381   3.878   2.504  14.489  0.2438  0.7958 -1.3671
 2062TIP3    H230382   3.925   2.477  14.348  0.2694 -1.7636 -0.9287
 2063TIP3   OH230383   4.833   4.884  14.672 -0.1339 -0.3291  0.2446
 2063TIP3    H130384   4.756   4.838  14.639  0.3218 -2.4949  1.9518
 2063TIP3    H230385   4.799   4.967  14.705 -1.1165  0.3479 -2.2209
 2064TIP3   OH230386   4.712   1.989  14.407 -0.8663 -0.3930  0.3409
 2064TIP3    H130387   4.755   2.004  14.492 -0.1992  0.7348 -0.1783
 2064TIP3    H230388   4.620   1.978  14.428 -0.5750 -1.1151  1.3133
 2065TIP3   OH230389   2.625   5.731  16.642 -0.1493  0.4646  0.1501
 2065TIP3    H130390   2.571   5.800  16.682 -1.3497  0.9449 -2.1621
 2065TIP3    H230391   2.715   5.764  16.650 -0.6517  2.0607 -0.3837
 2066TIP3   OH230392   1.780   6.299  16.712  0.0168 -0.3655  0.5622
 2066TIP3    H130393   1.838   6.333  16.780 -0.8136 -1.5789  1.9358
 2066TIP3    H230394   1.838   6.263  16.645  0.8509 -0.1801  1.1783
 2067TIP3   OH230395   5.885   3.313  14.528  0.4225 -0.2159 -0.2165
 2067TIP3    H130396   5.931   3.266  14.459 -0.2450 -1.4182  0.1059
 2067TIP3    H230397   5.792   3.302  14.506  0.1875 -0.8641  0.9939
 2068TIP3   OH230398   4.993   6.420  15.499  0.2437  0.3592 -0.1763
 2068TIP3    H130399   5.034   6.341  15.533  1.2759  0.5553 -0.9388
 2068TIP3    H230400   5.062   6.466  15.452 -0.8284  0.7056 -1.4951
 2069TIP3   OH230401   3.799   1.242  15.294 -0.3665  0.0029  0.0669
 2069TIP3    H130402   3.775   1.289  15.374  0.0466 -0.1358  0.2719
 2069TIP3    H230403   3.889   1.213  15.309 -0.9810 -1.8401  0.3907
 2070TIP3   OH230404   3.838   3.027  14.468 -0.1777 -0.1896 -0.4380
 2070TIP3    H130405   3.844   2.975  14.548  0.6561  0.9248  0.2421
 2070TIP3    H230406   3.744   3.034  14.451 -0.3736 -0.2957  0.5327
 2071TIP3   OH230407   1.135   0.653  16.022  0.4689 -0.0012  0.4557
 2071TIP3    H130408   1.206   0.697  15.975  0.5547  0.1564  0.7273
 2071TIP3    H230409   1.169   0.566  16.041  0.1744 -0.3011 -0.3743
 2072TIP3   OH230410   3.441   2.038  15.844 -0.6738 -0.2627  0.0811
 2072TIP3    H130411   3.474   1.965  15.897 -1.4383 -1.9945 -1.6892
 2072TIP3    H230412   3.387   1.996  15.777 -1.3557  1.9850 -0.8635
 2073TIP3   OH230413   4.661   1.929  13.512 -0.0274  0.1886 -0.6506
 2073TIP3    H130414   4.648   1.849  13.460  1.3487 -0.7668  0.4121
 2073TIP3    H230415   4.668   1.898  13.602  0.8372  1.4810 -0.2467
 2074TIP3   OH230416   2.877   6.348  16.957 -0.2104 -0.5035  0.0804
 2074TIP3    H130417   2.902   6.370  16.867 -0.2773  1.1850  0.4448
 2074TIP3    H230418   2.875   6.253  16.958  0.0692 -0.5678 -1.6341
 2075TIP3   OH230419   2.961   0.801  15.825  0.0326 -0.1163  0.0136
 2075TIP3    H130420   2.894   0.796  15.756  0.4930  1.6284 -0.6111
 2075TIP3    H230421   3.040   0.829  15.780  0.6921 -0.2281  1.0619
 2076TIP3   OH230422   6.688   0.155  15.065  0.0262  0.1145 -0.5216
 2076TIP3    H130423   6.723   0.179  14.979 -0.1948  0.7763 -0.4355
 2076TIP3    H230424   6.703   0.061  15.072  1.8420  0.3654 -0.4692
 2077TIP3   OH230425   1.767   1.073  16.523 -0.4197  0.0968 -0.4623
 2077TIP3    H130426   1.833   1.142  16.527 -0.0206 -0.3377  1.0625
 2077TIP3    H230427   1.698   1.102  16.581 -0.4315 -0.5876 -0.1204
 2078TIP3   OH230428   0.250   4.357  13.850 -0.3358  0.6776 -0.2583
 2078TIP3    H130429   0.339   4.357  13.817  0.0309  1.5666  0.6604
 2078TIP3    H230430   0.237   4.446  13.883 -0.5468 -0.1803  2.2021
 2079TIP3   OH230431   5.593   0.206  15.019  0.0284  0.2397 -0.3491
 2079TIP3    H130432   5.647   0.128  15.032  0.7552  1.0092  1.5721
 2079TIP3    H230433   5.504   0.175  15.035  0.5094  0.2479  3.3261
 2080TIP3   OH230434   5.361   1.925  16.823 -0.5442  0.0007  0.7793
 2080TIP3    H130435   5.347   2.018  16.837 -1.2420  0.1602 -0.7660
 2080TIP3    H230436   5.441   1.921  16.771  0.4224 -0.3921  2.2371
 2081TIP3   OH230437   5.714   4.353  15.931  0.5089  0.1579 -0.1639
 2081TIP3    H130438   5.787   4.415  15.930  0.3109  0.3991  0.2060
 2081TIP3    H230439   5.651   4.390  15.993 -1.1387  1.3120 -2.4045
 2082TIP3   OH230440   1.000   1.251  14.163  0.7362  0.0997 -0.6491
 2082TIP3    H130441   0.915   1.233  14.203  0.7338 -0.6986 -0.9766
 2082TIP3    H230442   0.987   1.332  14.113  0.0065 -0.2997 -1.1278
 2083TIP3   OH230443   0.598   5.062  15.147 -0.2297 -0.1783  0.3677
 2083TIP3    H130444   0.545   5.010  15.207 -0.6546  1.2419  1.2751
 2083TIP3    H230445   0.543   5.138  15.126  0.9901  0.7567  0.4277
 2084TIP3   OH230446   3.065   6.023  14.743 -0.2384  0.0523 -0.0254
 2084TIP3    H130447   3.144   6.077  14.751 -0.2035  0.0929 -0.5637
 2084TIP3    H230448   3.090   5.954  14.682 -1.1204  1.0588 -1.6248
 2085TIP3   OH230449   6.211   4.428  14.891 -0.0396 -0.1352 -0.7663
 2085TIP3    H130450   6.133   4.458  14.938 -0.4105 -1.2734 -0.6282
 2085TIP3    H230451   6.284   4.465  14.940 -0.4687  1.1626 -1.0420
 2086TIP3   OH230452   4.715   5.810  14.421 -0.2601  0.7958 -0.0145
 2086TIP3    H130453   4.640   5.815  14.361  0.0028 -0.9642 -0.5378
 2086TIP3    H230454   4.680   5.839  14.505 -1.0116  1.8984 -0.6775
 2087TIP3   OH230455   2.288   5.262  15.754 -0.0367 -0.3909  0.2029
 2087TIP3    H130456   2.277   5.355  15.733  2.0533 -0.1174  0.0625
 2087TIP3    H230457   2.259   5.255  15.845 -0.9879  0.2102 -0.0341
 2088TIP3   OH230458   2.411   0.597  13.480  0.1779  0.0598 -0.1563
 2088TIP3    H130459   2.486   0.626  13.427  0.2963  0.5851  0.2775
 2088TIP3    H230460   2.341   0.657  13.457  0.0530 -0.0925 -0.1694
 2089TIP3   OH230461   0.149   0.091  16.079  0.0440  0.1008 -0.0556
 2089TIP3    H130462   0.121   0.043  16.001  0.4781  1.1767 -0.9160
 2089TIP3    H230463   0.242   0.069  16.089 -0.2863 -0.9292  0.8572
 2090TIP3   OH230464   0.363   3.758  15.921  0.1841  0.2683 -0.1493
 2090TIP3    H130465   0.304   3.808  15.864 -0.8866  1.0402  1.5586
 2090TIP3    H230466   0.383   3.818  15.993  0.0739 -1.2375  1.1857
 2091TIP3   OH230467   1.528   0.554  15.762  0.2197 -0.3781  0.1342
 2091TIP3    H130468   1.555   0.611  15.690  0.2101 -0.1696  0.2933
 2091TIP3    H230469   1.535   0.466  15.727  2.9615 -0.5014  0.7391
 2092TIP3   OH230470   2.993   2.709  16.254 -0.1415  0.1634 -0.4178
 2092TIP3    H130471   2.999   2.617  16.280 -0.1744  0.4650  0.6935
 2092TIP3    H230472   3.081   2.744  16.268 -0.2695  0.4385 -0.2883
 2093TIP3   OH230473   3.745   0.184  16.246  0.1302 -0.5529  0.0797
 2093TIP3    H130474   3.656   0.218  16.248  0.7610  1.2928 -1.0402
 2093TIP3    H230475   3.762   0.156  16.336 -1.1414  0.2357  0.5856
 2094TIP3   OH230476   1.696   2.433  14.585  0.0950  0.3757 -0.2086
 2094TIP3    H130477   1.663   2.362  14.639 -1.8654  1.1424 -0.3269
 2094TIP3    H230478   1.675   2.407  14.495 -0.0823  0.8103 -0.2976
 2095TIP3   OH230479   2.602   0.562  15.435  0.4093 -0.2990  0.4795
 2095TIP3    H130480   2.627   0.580  15.344 -0.2487 -1.0979  0.1205
 2095TIP3    H230481   2.631   0.639  15.484  0.9647  0.0508 -0.3716
 2096TIP3   OH230482   4.095   6.173  15.999  0.0645  0.3593  0.2382
 2096TIP3    H130483   4.106   6.079  16.003 -0.8472  0.2227 -0.1169
 2096TIP3    H230484   4.181   6.207  15.975  0.8834 -0.2160  2.1334
 2097TIP3   OH230485   4.596   4.192  15.200 -0.1879  0.2724 -0.3659
 2097TIP3    H130486   4.582   4.098  15.188  1.2328 -0.1768  1.1210
 2097TIP3    H230487   4.683   4.208  15.164 -0.1532  0.8731 -0.0183
 2098TIP3   OH230488   6.146   4.162  14.944  0.0760 -0.1963 -0.3699
 2098TIP3    H130489   6.180   4.248  14.919 -0.3722  0.0531 -0.1284
 2098TIP3    H230490   6.139   4.165  15.039  1.7432 -1.1352 -0.1877
 2099TIP3   OH230491   0.489   4.742  15.040 -0.5775 -0.3640 -0.5472
 2099TIP3    H130492   0.508   4.726  14.948  1.3304  1.2599 -0.4980
 2099TIP3    H230493   0.395   4.761  15.042 -0.7716 -1.0541 -2.0507
 2100TIP3   OH230494   1.751   1.799  13.526  0.0024 -0.0678 -0.1801
 2100TIP3    H130495   1.809   1.806  13.450 -0.6383  2.1626 -0.5241
 2100TIP3    H230496   1.700   1.720  13.510  1.3830 -0.8401 -0.9641
 2101TIP3   OH230497   1.849   0.284  14.806  0.5075 -0.6123 -0.1095
 2101TIP3    H130498   1.937   0.322  14.811  1.2127 -2.0336 -1.1307
 2101TIP3    H230499   1.863   0.192  14.784 -1.1975 -1.2049  1.0255
 2102TIP3   OH230500   4.738   2.288  14.554  0.4318 -0.9704  0.0005
 2102TIP3    H130501   4.712   2.376  14.582  1.4392 -0.9406  0.8977
 2102TIP3    H230502   4.793   2.302  14.477  1.4494 -0.7250  0.7520
 2103TIP3   OH230503   3.447   6.384  16.794 -0.4812 -0.0799  0.1527
 2103TIP3    H130504   3.382   6.426  16.737 -1.0972  0.3954  1.1743
 2103TIP3    H230505   3.436   6.290  16.778  0.0677  0.0773 -1.2521
 2104TIP3   OH230506   5.008   1.417  14.712 -0.0873 -0.7526  0.5826
 2104TIP3    H130507   5.027   1.458  14.627 -0.5855 -0.9164  0.3925
 2104TIP3    H230508   5.024   1.487  14.776  1.5464 -0.9782  0.4787
 2105TIP3   OH230509   1.007   3.452  15.815  0.1977 -0.0682 -0.1270
 2105TIP3    H130510   0.945   3.518  15.784  0.3557 -0.2028 -0.7532
 2105TIP3    H230511   0.971   3.369  15.781  0.0559 -0.2928  0.5653
 2106TIP3   OH230512   0.305   5.832  15.332  0.3424 -0.6391  0.3704
 2106TIP3    H130513   0.392   5.847  15.296  0.3638  0.5205  0.8725
 2106TIP3    H230514   0.245   5.868  15.266  0.2125 -1.7299 -0.1270
 2107TIP3   OH230515   1.770   6.677  17.095 -0.0414  0.2113  0.3427
 2107TIP3    H130516   1.776   6.772  17.090 -0.8012  0.2471 -0.1862
 2107TIP3    H230517   1.847   6.650  17.145  0.9041  1.0000 -0.6313
 2108TIP3   OH230518   4.064   4.623  16.127 -0.2617 -0.4637  0.3270
 2108TIP3    H130519   4.105   4.696  16.172 -0.4564  0.2273 -0.5818
 2108TIP3    H230520   3.979   4.612  16.170 -1.3494  1.5471 -1.1352
 2109TIP3   OH230521   5.204   5.814  15.336  0.2047  0.0619 -0.0106
 2109TIP3    H130522   5.141   5.745  15.315 -0.9703  0.9171  0.5832
 2109TIP3    H230523   5.167   5.893  15.296  0.0178  0.9039  1.7115
 2110TIP3   OH230524   0.184   5.657  16.651  0.2041  0.1734 -0.2157
 2110TIP3    H130525   0.207   5.742  16.614  0.9095  0.2411  0.3626
 2110TIP3    H230526   0.187   5.670  16.746 -0.8782 -0.1840 -0.1206
 2111TIP3   OH230527   1.132   2.438  16.727 -0.0455  0.2439  0.0974
 2111TIP3    H130528   1.226   2.451  16.740 -0.0809 -0.7180  1.5202
 2111TIP3    H230529   1.095   2.526  16.734  0.8447  0.8511 -1.8603
 2112TIP3   OH230530   0.828   6.241  15.899 -0.1012 -0.3636 -0.2378
 2112TIP3    H130531   0.830   6.166  15.840  1.0900  0.3172 -1.0944
 2112TIP3    H230532   0.920   6.258  15.920 -0.4084  0.4145  0.5246
 2113TIP3   OH230533   5.981   0.697  14.563 -0.5556  0.3743  0.0353
 2113TIP3    H130534   6.002   0.617  14.514 -0.9733  0.6436 -0.5983
 2113TIP3    H230535   5.990   0.672  14.655 -1.4792 -0.6341 -0.1219
 2114TIP3   OH230536   0.089   6.209  16.904 -0.2216 -0.3088  0.0748
 2114TIP3    H130537   0.018   6.163  16.860  0.0866 -0.5930 -0.1269
 2114TIP3    H230538   0.147   6.140  16.937  0.6411 -0.0745 -0.8857
 2115TIP3   OH230539   3.463   1.943  16.547  0.3374  0.2683  0.9381
 2115TIP3    H130540   3.505   2.015  16.501  1.6366 -2.6963 -3.0635
 2115TIP3    H230541   3.379   1.931  16.503  0.9256 -1.6981  0.2350
 2116TIP3   OH230542   3.122   0.427  13.262 -0.4201 -0.0418  0.6409
 2116TIP3    H130543   3.096   0.519  13.262 -2.3064 -0.5221 -0.9688
 2116TIP3    H230544   3.082   0.390  13.341  1.2161  0.6574  1.8841
 2117TIP3   OH230545   5.281   5.236  16.155  0.2189  0.2333 -0.7347
 2117TIP3    H130546   5.374   5.258  16.155  0.5547 -0.6771 -4.1858
 2117TIP3    H230547   5.273   5.168  16.222  2.0545  0.3053 -0.3819
 2118TIP3   OH230548   0.459   1.505  15.424 -0.1404  0.3749  0.8656
 2118TIP3    H130549   0.498   1.421  15.450  0.3606  1.0990  2.5880
 2118TIP3    H230550   0.533   1.559  15.397 -0.6479 -0.4861 -2.9144
 2119TIP3   OH230551   0.490   3.250  16.571 -0.3348 -0.0039 -0.0023
 2119TIP3    H130552   0.543   3.201  16.509  0.7085 -1.6230  2.0367
 2119TIP3    H230553   0.552   3.301  16.622 -0.9936  0.1468  0.6774
 2120TIP3   OH230554   1.463   4.212  15.259  0.1918  0.1416  0.5887
 2120TIP3    H130555   1.538   4.162  15.228  0.6478 -0.5142  2.5949
 2120TIP3    H230556   1.483   4.303  15.236  0.9226 -0.1981 -0.1447
 2121TIP3   OH230557   3.061   2.573  15.920 -0.1168  0.3202 -0.5504
 2121TIP3    H130558   3.056   2.550  15.827 -0.3756  0.2884 -0.5310
 2121TIP3    H230559   2.969   2.577  15.948 -0.0982  1.5524 -0.6032
 2122TIP3   OH230560   3.953   0.835  15.694  0.7512 -0.1480  0.2015
 2122TIP3    H130561   3.916   0.886  15.766 -0.4230 -1.3946  0.5179
 2122TIP3    H230562   4.048   0.842  15.707  0.7842  3.4779 -0.8820
 2123TIP3   OH230563   5.360   4.223  16.456  0.3199 -0.4182  0.4842
 2123TIP3    H130564   5.413   4.302  16.460 -1.4921  1.0792 -2.2007
 2123TIP3    H230565   5.395   4.167  16.525  2.6035  2.1206  1.5487
 2124TIP3   OH230566   1.279   2.834  14.593  0.2599  0.2945 -0.1556
 2124TIP3    H130567   1.191   2.825  14.555  0.1425 -0.5108  0.3016
 2124TIP3    H230568   1.336   2.845  14.517  0.0331 -1.3206 -0.5955
 2125TIP3   OH230569   4.073   2.141  14.336  0.1711 -0.4079 -0.3366
 2125TIP3    H130570   4.148   2.143  14.395 -0.0212 -1.0120 -0.0626
 2125TIP3    H230571   4.056   2.048  14.322 -1.4413 -0.3258  0.7736
 2126TIP3   OH230572   5.679   5.452  14.775 -0.2474  0.0214  0.2506
 2126TIP3    H130573   5.761   5.494  14.746  0.7467 -0.3193  2.3696
 2126TIP3    H230574   5.690   5.360  14.750 -0.2939  0.1037 -0.0809
 2127TIP3   OH230575   6.046   2.833  14.867 -0.0523  0.1313 -0.1726
 2127TIP3    H130576   6.009   2.907  14.916 -0.7418 -0.2647 -0.0924
 2127TIP3    H230577   6.139   2.835  14.889 -0.0826  0.9071 -0.0785
 2128TIP3   OH230578   1.768   1.208  13.969  0.2253 -1.0389  0.1694
 2128TIP3    H130579   1.793   1.300  13.972 -0.6549 -0.8004  1.8674
 2128TIP3    H230580   1.836   1.163  14.019  0.4630 -1.2577 -0.3516
 2129TIP3   OH230581   0.169   4.149  14.012  0.2240  0.6138  0.2446
 2129TIP3    H130582   0.215   4.214  13.957 -0.1684  1.1567  0.5471
 2129TIP3    H230583   0.082   4.142  13.972  0.0145  0.8375  0.6611
 2130TIP3   OH230584   2.777   2.329  15.094 -0.0324  0.0967 -0.1876
 2130TIP3    H130585   2.813   2.414  15.069 -0.9802  0.8692  0.9921
 2130TIP3    H230586   2.727   2.346  15.174 -0.2723 -1.5651  0.0510
 2131TIP3   OH230587   6.432   4.084  16.695 -0.4775 -0.0789  0.2473
 2131TIP3    H130588   6.458   4.100  16.786 -0.5127  0.5411  0.1495
 2131TIP3    H230589   6.373   4.008  16.700 -0.0348 -0.4072  0.6732
 2132TIP3   OH230590   4.604   3.336  15.848 -0.5986 -0.8441 -0.1513
 2132TIP3    H130591   4.573   3.259  15.801 -1.2872 -0.5447 -0.2099
 2132TIP3    H230592   4.641   3.302  15.929 -2.0869 -1.1587  0.4314
 2133TIP3   OH230593   6.207   4.676  15.791 -0.0432  0.0804 -0.0707
 2133TIP3    H130594   6.128   4.729  15.781  1.7136  2.7063 -1.0347
 2133TIP3    H230595   6.242   4.667  15.702  0.9737 -0.6345  0.3822
 2134TIP3   OH230596   4.685   0.616  16.613 -0.1149  0.3940  0.7007
 2134TIP3    H130597   4.770   0.593  16.577 -0.0801 -0.3081  1.2227
 2134TIP3    H230598   4.694   0.708  16.638 -0.0967  0.8764 -0.9170
 2135TIP3   OH230599   5.404   3.749  15.582 -0.1410 -0.4344  0.1725
 2135TIP3    H130600   5.427   3.774  15.492 -0.0116  0.5577  0.4708
 2135TIP3    H230601   5.351   3.822  15.614 -0.7086 -1.0677  0.7011
 2136TIP3   OH230602   1.717   0.004  13.583  0.2496  0.5377 -0.0559
 2136TIP3    H130603   1.749   0.089  13.551  1.2482  0.1875 -0.0336
 2136TIP3    H230604   1.625   0.001  13.556  0.8200  0.6189 -2.2097
 2137TIP3   OH230605   4.271   3.785  14.939 -0.1218 -0.3349 -0.1634
 2137TIP3    H130606   4.256   3.876  14.915  0.5347 -0.2016 -0.0867
 2137TIP3    H230607   4.204   3.736  14.892 -1.2143  0.2932  0.6811
 2138TIP3   OH230608   0.208   2.228  15.803  0.1839 -0.3277  0.3447
 2138TIP3    H130609   0.247   2.217  15.716 -0.3048  0.9796 -0.0596
 2138TIP3    H230610   0.278   2.204  15.864  0.9105 -0.1410 -0.3964
 2139TIP3   OH230611   5.569   1.269  13.975  0.0390  0.1409  0.1775
 2139TIP3    H130612   5.661   1.245  13.971  0.5189  1.7853  0.3429
 2139TIP3    H230613   5.527   1.221  13.904  0.9643 -0.8004  0.2479
 2140TIP3   OH230614   5.857   4.046  15.816 -0.4971 -0.4485 -0.3881
 2140TIP3    H130615   5.891   4.133  15.793  0.5582 -1.1339 -1.5473
 2140TIP3    H230616   5.811   4.060  15.899 -0.1980  1.1736 -0.4496
 2141TIP3   OH230617   6.180   4.783  14.541 -0.5253 -0.0686  0.0877
 2141TIP3    H130618   6.177   4.721  14.614  1.2431 -0.3058 -0.0100
 2141TIP3    H230619   6.156   4.731  14.464  0.4769 -0.5447  0.0805
 2142TIP3   OH230620   4.797   0.485  13.134 -0.4751  0.3446  0.1572
 2142TIP3    H130621   4.730   0.419  13.114  1.5893 -2.2548  1.2310
 2142TIP3    H230622   4.789   0.549  13.063 -2.0492 -1.4927 -1.4421
 2143TIP3   OH230623   4.964   1.707  17.269 -0.4774 -0.0068  0.4336
 2143TIP3    H130624   4.872   1.683  17.274 -0.4272 -0.0319  1.7098
 2143TIP3    H230625   4.965   1.789  17.220 -1.1396 -0.1983  0.0934
 2144TIP3   OH230626   5.334   6.114  15.588  0.1760  0.2666 -0.2699
 2144TIP3    H130627   5.377   6.067  15.660  1.7894  1.7616 -0.1909
 2144TIP3    H230628   5.396   6.107  15.515 -1.5659 -1.4877 -1.6820
 2145TIP3   OH230629   3.122   4.068  16.891  0.3176 -0.3173 -0.8596
 2145TIP3    H130630   3.110   4.141  16.831 -0.1189 -1.7579 -2.6183
 2145TIP3    H230631   3.038   4.061  16.937  0.2853  0.1545 -0.8449
 2146TIP3   OH230632   0.814   6.566  15.497 -0.0696  0.0120 -0.0792
 2146TIP3    H130633   0.741   6.605  15.545  0.6560  0.7969  0.4113
 2146TIP3    H230634   0.867   6.522  15.563  0.3227  0.1161 -0.3179
 2147TIP3   OH230635   2.463   3.266  14.488 -0.5260 -0.2509  0.5638
 2147TIP3    H130636   2.407   3.215  14.547 -0.5532 -0.8277  0.0471
 2147TIP3    H230637   2.534   3.206  14.465  0.5425  0.6015  1.5272
 2148TIP3   OH230638   1.341   2.560  13.198  0.2756  0.6862  0.0509
 2148TIP3    H130639   1.349   2.605  13.282  0.5530  2.0593 -0.6827
 2148TIP3    H230640   1.431   2.553  13.166  0.3529 -1.2475  0.5443
 2149TIP3   OH230641   6.407   3.863  16.396 -0.5793  0.5602  0.4582
 2149TIP3    H130642   6.392   3.773  16.426 -0.1975  0.1288 -0.5981
 2149TIP3    H230643   6.320   3.902  16.397 -0.5272  0.7151  2.5137
 2150TIP3   OH230644   3.736   4.347  16.097  0.1839 -0.1423 -0.0668
 2150TIP3    H130645   3.735   4.443  16.093  1.0545 -0.1139  0.2214
 2150TIP3    H230646   3.709   4.326  16.186  1.2120 -0.1149  0.2656
 2151TIP3   OH230647   4.330   4.523  15.652  0.1911 -0.0120 -0.0680
 2151TIP3    H130648   4.349   4.433  15.627  1.5905  0.1539  0.2958
 2151TIP3    H230649   4.353   4.528  15.745 -1.5340  0.2934  0.3835
 2152TIP3   OH230650   1.400   1.837  13.959  0.1187  0.3206  0.4884
 2152TIP3    H130651   1.353   1.759  13.930  0.6743  0.2410 -0.2406
 2152TIP3    H230652   1.492   1.813  13.954  0.3977  1.4864 -1.3200
 2153TIP3   OH230653   5.155   3.305  16.575 -0.1788  0.0999 -0.0373
 2153TIP3    H130654   5.197   3.231  16.531  1.0590  0.8120 -0.1047
 2153TIP3    H230655   5.069   3.272  16.601  1.4152 -2.4044  2.6586
 2154TIP3   OH230656   1.537   2.031  13.745  0.1768  0.6071  0.2651
 2154TIP3    H130657   1.549   2.125  13.758  1.3817  0.3137  1.4744
 2154TIP3    H230658   1.514   2.022  13.653 -0.6324  2.1342  0.2927
 2155TIP3   OH230659   2.183   1.463  15.248  0.6396  0.3592 -0.7037
 2155TIP3    H130660   2.224   1.376  15.243  1.6418  0.8389 -1.0078
 2155TIP3    H230661   2.143   1.476  15.162 -1.6391 -0.7847  0.0855
 2156TIP3   OH230662   4.290   0.545  15.438  0.1669 -0.3673  0.3745
 2156TIP3    H130663   4.294   0.534  15.533 -1.5740 -0.3861  0.4797
 2156TIP3    H230664   4.196   0.549  15.418  0.4983  1.6858 -1.1145
 2157TIP3   OH230665   6.649   1.289  14.422 -0.5232  0.0169  0.0848
 2157TIP3    H130666   6.638   1.348  14.497  0.5516  1.1789 -0.6376
 2157TIP3    H230667   6.652   1.202  14.461  1.2001  0.6624  1.5541
 2158TIP3   OH230668   2.464   5.435  16.272 -0.5691  0.1491  0.2975
 2158TIP3    H130669   2.370   5.416  16.272 -0.8815  1.5526  0.0810
 2158TIP3    H230670   2.478   5.485  16.191  0.6378 -1.2165 -0.3834
 2159TIP3   OH230671   5.914   2.073  14.805 -0.2502  0.1294 -0.5065
 2159TIP3    H130672   5.944   2.079  14.714  2.1751 -1.5998  0.0914
 2159TIP3    H230673   5.991   2.096  14.857 -0.4619 -2.5228  1.1364
 2160TIP3   OH230674   3.288   3.688  15.920 -0.4554  0.1284  0.4244
 2160TIP3    H130675   3.203   3.716  15.954 -0.9475  0.2817 -0.8978
 2160TIP3    H230676   3.268   3.638  15.841  0.7194  1.4174 -0.7563
 2161TIP3   OH230677   1.313   0.177  14.970 -0.4046 -0.5019 -0.7092
 2161TIP3    H130678   1.346   0.191  15.058 -1.5160 -1.3009 -0.1508
 2161TIP3    H230679   1.381   0.125  14.927 -1.1927 -2.8029  0.6710
 2162TIP3   OH230680   2.365   4.752  13.785  0.2581  1.1493  0.0374
 2162TIP3    H130681   2.329   4.814  13.721 -2.3017 -0.6904 -0.4700
 2162TIP3    H230682   2.369   4.802  13.866 -0.5493  2.3316 -0.6136
 2163TIP3   OH230683   1.996   1.453  13.934 -0.3006  0.0491 -0.3446
 2163TIP3    H130684   2.048   1.506  13.872 -0.2769  0.7537  0.2684
 2163TIP3    H230685   1.933   1.515  13.971  0.9742  0.1561  1.8254
 2164TIP3   OH230686   2.984   0.780  15.034  0.6578  0.1484  0.3364
 2164TIP3    H130687   3.067   0.741  15.062  0.0170 -2.2499 -0.7791
 2164TIP3    H230688   2.966   0.739  14.949 -0.7079  2.1315 -0.4166
 2165TIP3   OH230689   6.155   4.256  16.417  0.4548  0.0581  0.6296
 2165TIP3    H130690   6.203   4.198  16.476  0.0554 -2.4373 -1.3237
 2165TIP3    H230691   6.064   4.250  16.446  0.0841 -2.0001 -0.7039
 2166TIP3   OH230692   4.580   0.051  16.025  0.7328 -0.7092 -0.2222
 2166TIP3    H130693   4.659   0.089  15.988 -0.3089  0.9449 -0.9005
 2166TIP3    H230694   4.557  -0.021  15.966  1.0583 -0.3913 -0.7426
 2167TIP3   OH230695   2.821   3.291  15.867  0.0974 -0.1839 -0.1013
 2167TIP3    H130696   2.815   3.269  15.960 -1.6878 -0.5122 -0.2565
 2167TIP3    H230697   2.788   3.214  15.821  0.0465  0.3267 -0.9519
 2168TIP3   OH230698   0.618   4.020  16.501 -0.1528 -0.2245 -0.0384
 2168TIP3    H130699   0.557   4.016  16.575 -1.0831 -0.6345 -0.8105
 2168TIP3    H230700   0.611   4.111  16.470 -0.8085 -0.4141 -0.4713
 2169TIP3   OH230701   5.490   6.663  16.841 -1.0014  0.2849  0.2890
 2169TIP3    H130702   5.451   6.610  16.910 -2.7622  1.0764 -0.0549
 2169TIP3    H230703   5.506   6.748  16.881  0.5347 -0.0569  0.4538
 2170TIP3   OH230704   4.492   3.100  17.034  0.3503  0.2792  0.0977
 2170TIP3    H130705   4.415   3.048  17.057 -1.1977  1.4670 -1.9709
 2170TIP3    H230706   4.566   3.042  17.052 -1.0941 -1.4810  0.7591
 2171TIP3   OH230707   2.638   2.040  15.354  0.0422  0.4245  0.0731
 2171TIP3    H130708   2.620   2.049  15.261  0.7462  0.5477 -0.0573
 2171TIP3    H230709   2.649   2.130  15.385  1.0899  0.3301  0.0045
 2172TIP3   OH230710   1.207   5.934  14.408  0.9194  0.0036 -0.1322
 2172TIP3    H130711   1.221   5.844  14.436  1.8700  0.0617 -0.3634
 2172TIP3    H230712   1.214   5.986  14.488 -2.7384 -0.3332  0.5813
 2173TIP3   OH230713   6.646   4.128  13.873  0.6013 -0.0705 -0.3499
 2173TIP3    H130714   6.668   4.152  13.783  0.0392  1.6861 -0.0437
 2173TIP3    H230715   6.552   4.141  13.879  0.4939 -1.0393  0.2590
 2174TIP3   OH230716   2.980   1.719  15.244  0.1486 -0.5138 -0.2007
 2174TIP3    H130717   3.055   1.777  15.228 -0.1046  0.7624  2.5947
 2174TIP3    H230718   2.912   1.751  15.186  1.3974 -1.0570 -2.0655
 2175TIP3   OH230719   3.794   4.499  14.523 -0.4467  0.4471  0.3148
 2175TIP3    H130720   3.817   4.551  14.446  0.3577 -0.1921  0.1141
 2175TIP3    H230721   3.715   4.541  14.557  0.1648  1.8020  0.1592
 2176TIP3   OH230722   1.453   1.957  14.923 -0.1304 -0.0801  0.2148
 2176TIP3    H130723   1.413   1.870  14.933  0.4109 -0.4079 -0.3380
 2176TIP3    H230724   1.531   1.954  14.978  0.3088 -0.2245 -0.4079
 2177TIP3   OH230725   5.886   5.668  16.702  0.0238  0.3120  0.5083
 2177TIP3    H130726   5.815   5.647  16.763  0.4740  0.9487  1.2758
 2177TIP3    H230727   5.850   5.648  16.616 -2.0381  2.9060  0.6248
 2178TIP3   OH230728   3.534   3.844  15.529  0.1701  0.3512 -0.2205
 2178TIP3    H130729   3.463   3.863  15.590  0.1849  0.3176 -0.1920
 2178TIP3    H230730   3.604   3.808  15.585  0.4671  1.0208 -0.1546
 2179TIP3   OH230731   5.867   6.315  15.257  0.3536 -0.4884  0.4930
 2179TIP3    H130732   5.888   6.405  15.231  0.2523 -1.2250 -2.5093
 2179TIP3    H230733   5.946   6.285  15.303  2.3618 -0.2493 -2.5072
 2180TIP3   OH230734   1.984   5.918  14.977 -0.0246  0.0299 -0.5973
 2180TIP3    H130735   2.031   5.990  14.935 -2.3116  0.8810 -1.8775
 2180TIP3    H230736   2.037   5.895  15.053  2.3527  0.9786 -1.8755
 2181TIP3   OH230737   4.612   3.987  14.938  0.2056 -0.2706  0.0044
 2181TIP3    H130738   4.684   4.031  14.983  1.7236 -2.3953 -0.1976
 2181TIP3    H230739   4.572   4.055  14.884  3.5250  0.6078 -1.6542
 2182TIP3   OH230740   2.374   5.918  14.519  0.0082 -0.0410 -0.3919
 2182TIP3    H130741   2.310   5.847  14.514  0.0072 -0.0110 -0.8027
 2182TIP3    H230742   2.448   5.881  14.567 -0.8999  0.3624  1.4095
 2183TIP3   OH230743   3.937   6.228  14.688 -0.1389  0.4256 -0.0416
 2183TIP3    H130744   3.949   6.191  14.775 -0.1652 -0.9794 -0.6203
 2183TIP3    H230745   3.845   6.256  14.687 -0.9932 -2.1530 -0.5332
 2184TIP3   OH230746   2.544   1.782  15.780  0.3816 -0.1160 -0.1921
 2184TIP3    H130747   2.548   1.876  15.761  1.0514  0.7199  3.4390
 2184TIP3    H230748   2.635   1.754  15.779  0.3359 -0.2954  0.5298
 2185TIP3   OH230749   3.941   5.563  14.779 -0.1153  0.4558  0.1344
 2185TIP3    H130750   4.003   5.626  14.815  0.0288  0.8937 -0.8341
 2185TIP3    H230751   3.855   5.603  14.792  0.0573  1.4669 -1.5942
 2186TIP3   OH230752   0.086   2.518  15.103 -0.2892  0.6761  0.6090
 2186TIP3    H130753  -0.001   2.488  15.128  0.5354 -2.5253  0.0885
 2186TIP3    H230754   0.141   2.501  15.180  0.1029  1.7282  0.5848
 2187TIP3   OH230755   0.739   2.121  13.456 -0.1309  0.0763  0.3742
 2187TIP3    H130756   0.707   2.030  13.457  2.6913 -1.0351 -0.6407
 2187TIP3    H230757   0.752   2.142  13.549  0.2421 -0.9877  0.5788
 2188TIP3   OH230758   5.053   0.605  15.617  0.5669 -0.0579  0.0999
 2188TIP3    H130759   5.088   0.523  15.651  0.2420 -0.0170  0.5299
 2188TIP3    H230760   5.099   0.673  15.668  0.8204  0.0300 -0.2410
 2189TIP3   OH230761   5.716   1.701  17.191  0.3638 -0.4178 -0.0900
 2189TIP3    H130762   5.682   1.700  17.280 -0.4607  2.3159 -0.2830
 2189TIP3    H230763   5.638   1.695  17.136  0.7124 -0.1445 -0.6180
 2190TIP3   OH230764   5.105   6.705  14.482  0.1560  0.3503  0.0717
 2190TIP3    H130765   5.200   6.710  14.484  0.1699  0.1403  0.0168
 2190TIP3    H230766   5.085   6.627  14.534 -0.1159  1.8734  2.4087
 2191TIP3   OH230767   4.893   0.411  15.306  0.2258 -0.1096  0.4459
 2191TIP3    H130768   4.946   0.351  15.253 -1.3327 -2.0704  0.9888
 2191TIP3    H230769   4.821   0.437  15.248  0.8033  1.1740  0.2654
 2192TIP3   OH230770   5.816   1.435  15.138  0.1396 -0.0315  0.6495
 2192TIP3    H130771   5.884   1.468  15.079  1.6299 -3.4630  0.1951
 2192TIP3    H230772   5.864   1.399  15.212 -0.9123 -3.5897 -0.1949
 2193TIP3   OH230773   3.190   0.613  16.666 -0.1305 -0.4111 -0.0732
 2193TIP3    H130774   3.237   0.530  16.655 -1.9421 -1.2814 -1.9691
 2193TIP3    H230775   3.141   0.602  16.748 -1.4379 -1.8461 -0.9918
 2194TIP3   OH230776   6.272   4.041  14.108  0.1335  0.0226  0.1905
 2194TIP3    H130777   6.215   4.106  14.150 -1.9437 -0.9364 -0.9736
 2194TIP3    H230778   6.246   3.958  14.147  0.2692 -0.5130 -0.8321
 2195TIP3   OH230779   2.453   1.230  15.657 -0.3538  0.5187  0.0897
 2195TIP3    H130780   2.420   1.292  15.592 -2.0733  0.1185  0.5221
 2195TIP3    H230781   2.389   1.234  15.728  0.5521 -0.3282  0.9830
 2196TIP3   OH230782   4.859   0.464  13.943  0.5463 -0.6851  0.1422
 2196TIP3    H130783   4.851   0.487  13.850  0.4533  1.1428  0.5766
 2196TIP3    H230784   4.931   0.517  13.975  0.4079 -1.1015  1.1843
 2197TIP3   OH230785   3.777   5.033  15.090 -0.2031 -0.1677 -0.4356
 2197TIP3    H130786   3.756   5.124  15.109  1.3656  0.8239 -2.9305
 2197TIP3    H230787   3.868   5.023  15.118 -0.6032 -1.2497  0.5573
 2198TIP3   OH230788   4.038   0.328  15.279  0.6102 -0.0382 -0.4328
 2198TIP3    H130789   4.080   0.394  15.224  1.8640 -0.8721 -0.5112
 2198TIP3    H230790   4.035   0.368  15.366 -0.5297  0.9166 -0.8865
 2199TIP3   OH230791   5.502   1.795  14.461  0.0522 -0.0799 -0.0027
 2199TIP3    H130792   5.581   1.817  14.510  0.5844 -1.4177 -0.2066
 2199TIP3    H230793   5.514   1.835  14.375  0.1931  0.2985  0.1942
 2200TIP3   OH230794   6.400   0.906  14.756 -0.2651 -0.4094 -0.4109
 2200TIP3    H130795   6.377   0.979  14.699 -2.3622  1.6931  2.8062
 2200TIP3    H230796   6.467   0.941  14.815  0.4113 -1.8643 -0.2542
 2201TIP3   OH230797   0.494   4.879  15.507  0.3231  0.0190  0.1994
 2201TIP3    H130798   0.454   4.825  15.576 -1.7387  0.2697 -0.7028
 2201TIP3    H230799   0.504   4.965  15.546  1.0171 -0.3179  0.7800
 2202TIP3   OH230800   0.318   4.603  16.214  0.6748 -0.2095 -0.2320
 2202TIP3    H130801   0.283   4.641  16.295  0.6716  0.4208 -0.5231
 2202TIP3    H230802   0.265   4.643  16.145  2.1584  1.0237 -0.7139
 2203TIP3   OH230803   4.041   6.439  14.168  0.5399 -0.2605  0.1103
 2203TIP3    H130804   4.010   6.529  14.156 -1.0760 -0.6894  0.8605
 2203TIP3    H230805   4.135   6.444  14.150  0.3762  1.4533 -0.4575
 2204TIP3   OH230806   3.716   3.168  16.239 -0.3224  0.1041  0.7830
 2204TIP3    H130807   3.637   3.215  16.213 -0.1749 -0.9588 -1.9095
 2204TIP3    H230808   3.787   3.232  16.232 -0.3532 -0.0269 -1.2605
 2205TIP3   OH230809   6.496   1.396  13.406  0.1211  0.8201 -0.2857
 2205TIP3    H130810   6.499   1.456  13.331  1.4135  1.1001 -0.0280
 2205TIP3    H230811   6.503   1.452  13.483  2.5042  0.3047 -0.0694
 2206TIP3   OH230812   3.793   4.627  16.212 -0.1135  0.2223 -0.0621
 2206TIP3    H130813   3.782   4.607  16.305 -0.5274 -0.1912 -0.1973
 2206TIP3    H230814   3.739   4.705  16.197 -0.0176  0.3101  0.0519
 2207TIP3   OH230815   0.070   5.481  15.206  0.3338 -0.4648 -0.0897
 2207TIP3    H130816   0.150   5.513  15.165  1.6047 -1.4132  1.5646
 2207TIP3    H230817   0.014   5.559  15.213  1.6920  0.5162  0.0814
 2208TIP3   OH230818   4.635   6.614  14.019  0.2957 -0.3657 -0.0605
 2208TIP3    H130819   4.683   6.696  14.014  0.5585 -0.5745 -1.6616
 2208TIP3    H230820   4.648   6.573  13.933 -1.9211 -0.8962 -0.2265
 2209TIP3   OH230821   1.684   5.849  15.414 -0.0069 -0.2168 -0.1936
 2209TIP3    H130822   1.751   5.851  15.482 -1.3269  1.1648  1.1778
 2209TIP3    H230823   1.707   5.921  15.355  0.4600 -0.6259 -0.5161
 2210TIP3   OH230824   1.600   4.625  14.418 -0.1388  0.5080 -0.2269
 2210TIP3    H130825   1.646   4.709  14.414  0.9805  0.0154  1.2789
 2210TIP3    H230826   1.660   4.567  14.466 -1.0162 -1.0714 -0.9565
 2211TIP3   OH230827   4.750   2.103  16.349 -0.3215  0.3327  0.3458
 2211TIP3    H130828   4.779   2.138  16.433 -1.5887  0.6770  0.6714
 2211TIP3    H230829   4.725   2.013  16.368 -1.7862  0.7678  0.6599
 2212TIP3   OH230830   3.856   1.026  15.861 -0.0289  0.1034 -0.7001
 2212TIP3    H130831   3.766   0.994  15.862  0.1160 -0.3154 -0.6888
 2212TIP3    H230832   3.879   1.036  15.953  0.2186 -0.6201 -0.6757
 2213TIP3   OH230833   4.151   4.021  14.902  0.0022 -0.1998 -0.3963
 2213TIP3    H130834   4.126   4.072  14.825  0.9148  0.0413 -0.5508
 2213TIP3    H230835   4.091   4.049  14.970  0.1236  0.6746 -0.6374
 2214TIP3   OH230836   3.465   0.296  14.663 -0.1243  0.2426  0.3744
 2214TIP3    H130837   3.551   0.289  14.622  0.0845 -1.1066  0.9630
 2214TIP3    H230838   3.460   0.386  14.694  1.1016  0.3249  0.3884
 2215TIP3   OH230839   0.150   5.125  14.179 -0.4823  0.1900 -0.2330
 2215TIP3    H130840   0.221   5.089  14.126  0.0276  0.4807  0.2325
 2215TIP3    H230841   0.171   5.218  14.187  0.3649 -0.0997  1.7756
 2216TIP3   OH230842   5.075   0.738  16.852 -0.2668 -0.0697 -0.3030
 2216TIP3    H130843   5.063   0.644  16.838  3.0558 -0.4477 -1.4884
 2216TIP3    H230844   5.151   0.744  16.910 -2.0263  1.9199  1.9944
 2217TIP3   OH230845   5.840   6.404  13.002  0.2434 -0.0868  0.1066
 2217TIP3    H130846   5.928   6.379  12.973 -0.0802  0.4497 -1.4334
 2217TIP3    H230847   5.819   6.482  12.950 -1.0001  0.0051  0.7126
 2218TIP3   OH230848   5.827   1.160  16.463 -0.1680 -0.4937 -0.0084
 2218TIP3    H130849   5.835   1.237  16.519 -0.3554 -1.1007  0.8793
 2218TIP3    H230850   5.833   1.086  16.524  3.4452 -1.3350 -1.1493
 2219TIP3   OH230851   3.390   3.633  14.574 -0.3738  0.1889 -0.6744
 2219TIP3    H130852   3.333   3.615  14.650  1.7301  0.0226  0.9586
 2219TIP3    H230853   3.422   3.721  14.588  0.2715  0.0491 -1.2357
 2220TIP3   OH230854   0.148   0.799  13.856  0.3261 -0.0864  0.3126
 2220TIP3    H130855   0.209   0.859  13.814  1.5411 -1.1987  0.3973
 2220TIP3    H230856   0.065   0.814  13.812  0.6277  1.5058  0.2192
 2221TIP3   OH230857   2.491   3.268  16.728  0.0789 -0.2983 -1.0806
 2221TIP3    H130858   2.515   3.342  16.784 -1.9915 -0.5670  0.2358
 2221TIP3    H230859   2.509   3.191  16.781 -3.6827 -0.5241  0.1397
 2222TIP3   OH230860   0.694   5.956  14.755  0.4692 -0.0627  0.3992
 2222TIP3    H130861   0.711   6.042  14.716 -1.3159 -0.0444 -0.4226
 2222TIP3    H230862   0.727   5.893  14.690 -2.0237 -0.0208 -1.0545
 2223TIP3   OH230863   3.015   3.733  15.981 -0.2096 -0.5002  0.5413
 2223TIP3    H130864   3.016   3.824  16.010  1.6727 -0.1273 -0.5186
 2223TIP3    H230865   2.930   3.723  15.939 -0.2400  0.9436  0.1842
 2224TIP3   OH230866   2.563   6.597  17.075 -0.0573 -0.0246  0.1842
 2224TIP3    H130867   2.507   6.548  17.135  1.4626 -1.7449  0.2938
 2224TIP3    H230868   2.598   6.668  17.127 -0.4593 -0.2083  0.7156
 2225TIP3   OH230869   2.904   6.575  15.584  0.1871 -0.6319 -0.3937
 2225TIP3    H130870   2.955   6.599  15.662  0.5321  0.6227 -0.9649
 2225TIP3    H230871   2.930   6.640  15.519 -0.1259 -1.6351 -1.5471
 2226TIP3   OH230872   4.393   3.595  13.977 -0.1094 -0.8381  0.3573
 2226TIP3    H130873   4.457   3.530  13.949 -0.4226 -0.1070 -2.3100
 2226TIP3    H230874   4.426   3.677  13.940 -1.1919  0.0309  1.2743
 2227TIP3   OH230875   0.778   0.732  15.486  0.2453 -0.2431  0.4887
 2227TIP3    H130876   0.702   0.758  15.538  0.8943 -1.7909  2.3485
 2227TIP3    H230877   0.836   0.808  15.488  0.1002 -0.1405  1.7868
 2228TIP3   OH230878   3.942   4.618  17.010 -0.0262  0.1309 -0.0901
 2228TIP3    H130879   3.898   4.563  17.075  0.4759  0.3591  0.4585
 2228TIP3    H230880   3.967   4.558  16.940 -0.3413 -0.1696  0.0550
 2229TIP3   OH230881   2.369   2.368  15.089 -0.7573  0.8752  0.9278
 2229TIP3    H130882   2.411   2.292  15.129 -1.3279  0.7195  1.2287
 2229TIP3    H230883   2.282   2.372  15.128 -0.4314  2.2130  1.5825
 2230TIP3   OH230884   0.912   6.660  15.273  0.0783  0.5486 -0.5469
 2230TIP3    H130885   0.901   6.755  15.268  0.0525  0.4821 -3.5049
 2230TIP3    H230886   0.884   6.638  15.362  0.5454  3.3290  0.4124
 2231TIP3   OH230887   4.417   0.324  15.923  0.4193 -0.6426  0.2923
 2231TIP3    H130888   4.473   0.313  16.000 -0.1195  2.3803  1.2609
 2231TIP3    H230889   4.478   0.343  15.851  0.8514  2.5454  1.3219
 2232TIP3   OH230890   2.249   3.125  13.693  0.5185 -0.0398  0.6011
 2232TIP3    H130891   2.249   3.126  13.788 -1.1367 -2.1965  0.6816
 2232TIP3    H230892   2.186   3.194  13.668 -2.7215 -2.5177  1.3024
 2233TIP3   OH230893   6.599   6.251  16.035 -0.2015  0.0815  0.0142
 2233TIP3    H130894   6.672   6.313  16.034 -0.4809  0.4257 -1.3202
 2233TIP3    H230895   6.639   6.168  16.061  0.5900  0.3518 -0.2861
 2234TIP3   OH230896   3.910   4.988  13.667  0.2580 -0.4212  0.2731
 2234TIP3    H130897   3.888   4.895  13.659  1.1646 -0.4773 -3.2391
 2234TIP3    H230898   4.004   4.989  13.685 -0.1506 -0.0997  2.7626
 2235TIP3   OH230899   4.946   0.458  16.076  0.4848 -0.2467 -0.1461
 2235TIP3    H130900   4.852   0.457  16.096  0.5773  0.9883  0.4322
 2235TIP3    H230901   4.963   0.372  16.038 -0.9509 -0.3758 -0.5637
 2236TIP3   OH230902   2.273   1.746  16.859 -0.3814  0.3619  0.1132
 2236TIP3    H130903   2.342   1.749  16.925  0.8273 -1.1020 -1.0131
 2236TIP3    H230904   2.259   1.837  16.834  0.9451  0.7083  0.5894
 2237TIP3   OH230905   3.989   0.741  15.341 -0.2996  0.2217  0.0902
 2237TIP3    H130906   4.037   0.822  15.360 -1.8501  1.1960  0.0761
 2237TIP3    H230907   3.931   0.765  15.269 -1.0190 -0.8154  0.3135
 2238TIP3   OH230908   2.568   0.978  16.789 -0.2427 -0.0429 -0.2895
 2238TIP3    H130909   2.643   1.023  16.751  1.3501 -1.3030  1.1988
 2238TIP3    H230910   2.543   0.913  16.722 -0.2186  0.5808 -0.9151
 2239TIP3   OH230911   3.626   1.648  13.734  0.1149  0.2099  0.3040
 2239TIP3    H130912   3.573   1.577  13.697  0.0503  0.7466 -0.6688
 2239TIP3    H230913   3.716   1.621  13.715  0.1004  0.2763  0.1395
 2240TIP3   OH230914   3.463   6.190  15.386  0.6199 -0.0020 -0.0288
 2240TIP3    H130915   3.462   6.150  15.473  1.0575  0.1565  0.0491
 2240TIP3    H230916   3.373   6.221  15.374  0.5216 -0.1415  0.3110
 2241TIP3   OH230917   3.886   0.299  13.885  0.4946  0.3336  0.9122
 2241TIP3    H130918   3.874   0.318  13.978 -0.0898 -0.6857  1.0616
 2241TIP3    H230919   3.839   0.370  13.841  1.7496  1.4773  1.3505
 2242TIP3   OH230920   2.766   2.429  15.696  0.0396  0.3068 -0.6389
 2242TIP3    H130921   2.773   2.524  15.690  2.5632  0.1929 -0.8642
 2242TIP3    H230922   2.680   2.408  15.660  0.5043  2.3095 -3.1927
 2243TIP3   OH230923   3.083   3.201  15.255 -0.3664  0.5956 -0.0625
 2243TIP3    H130924   3.148   3.136  15.230 -0.0542  0.9979 -0.2931
 2243TIP3    H230925   3.069   3.185  15.349  3.5562  3.4518  1.2929
 2244TIP3   OH230926   5.486   1.207  16.422 -0.1092  0.2772  0.0816
 2244TIP3    H130927   5.547   1.153  16.371 -0.5305 -0.5056  0.3828
 2244TIP3    H230928   5.420   1.145  16.453 -1.6782  1.2588 -1.1341
 2245TIP3   OH230929   0.394   1.922  15.228  0.7368  0.0479 -0.0988
 2245TIP3    H130930   0.489   1.909  15.229  0.8763  1.0257  0.4410
 2245TIP3    H230931   0.365   1.892  15.315  0.8909  1.9749  0.6614
 2246TIP3   OH230932   2.622   6.077  15.216  0.1530 -0.2256  0.1144
 2246TIP3    H130933   2.629   6.009  15.149 -1.3912 -0.3553  0.0410
 2246TIP3    H230934   2.707   6.075  15.261  0.5983 -1.3204 -0.7095
 2247TIP3   OH230935   3.093   2.327  15.470  0.7373  0.0926  0.5852
 2247TIP3    H130936   3.167   2.320  15.530  2.3913  2.4549 -1.0216
 2247TIP3    H230937   3.133   2.337  15.383 -1.4964  0.0922 -0.5085
 2248TIP3   OH230938   3.169   4.693  16.852 -0.8929  0.0731 -0.0617
 2248TIP3    H130939   3.150   4.693  16.758 -2.6839  0.0720  0.2672
 2248TIP3    H230940   3.264   4.684  16.857 -0.7796 -0.1384 -1.8660
 2249TIP3   OH230941   3.386   4.364  16.800 -0.2574 -0.3602  0.0919
 2249TIP3    H130942   3.393   4.434  16.865 -0.7165 -1.0273  0.8728
 2249TIP3    H230943   3.388   4.283  16.850  0.9379 -0.9529 -0.8654
 2250TIP3   OH230944   0.493   0.557  15.338  0.4671 -0.6148 -0.0244
 2250TIP3    H130945   0.464   0.639  15.300 -1.5415  0.1749  2.8829
 2250TIP3    H230946   0.584   0.548  15.309  1.0586  3.0692  0.2636
 2251TIP3   OH230947   2.694   6.028  13.934  0.1343 -0.4309  0.1342
 2251TIP3    H130948   2.748   6.050  13.858  1.3092 -0.9857  0.7641
 2251TIP3    H230949   2.728   6.083  14.005 -0.5506 -0.3406  0.3976
 2252TIP3   OH230950   0.407   1.658  16.478  0.1942  0.0996  0.4656
 2252TIP3    H130951   0.318   1.650  16.512  0.2699  0.8929  0.8704
 2252TIP3    H230952   0.463   1.641  16.553  0.3978 -0.4599  0.1970
 2253TIP3   OH230953   2.811   1.953  13.804  0.1105  0.4073 -0.0760
 2253TIP3    H130954   2.877   1.892  13.772 -0.7416 -1.0468  0.8556
 2253TIP3    H230955   2.727   1.911  13.784 -0.4740  0.3297  2.3028
 2254TIP3   OH230956   2.523   5.360  13.465 -0.1087  0.2483  0.4045
 2254TIP3    H130957   2.616   5.350  13.485 -0.0209 -0.4536 -0.2777
 2254TIP3    H230958   2.485   5.398  13.544  0.6954  0.2076  0.8213
 2255TIP3   OH230959   1.422   2.461  16.335 -0.1584  0.5204 -0.3270
 2255TIP3    H130960   1.493   2.398  16.323 -0.9001 -0.4918  0.3456
 2255TIP3    H230961   1.463   2.537  16.376  0.5883  0.0964 -0.2745
 2256TIP3   OH230962   5.055   5.129  13.528  0.1306 -0.4867 -0.2252
 2256TIP3    H130963   5.102   5.116  13.445  1.7232  1.0609  0.3681
 2256TIP3    H230964   5.073   5.220  13.552 -0.0555 -0.9620  1.9544
 2257TIP3   OH230965   2.231   2.024  16.768 -0.3239 -0.4667 -0.0882
 2257TIP3    H130966   2.168   2.075  16.716  1.0654  1.2701 -0.1578
 2257TIP3    H230967   2.297   2.088  16.795 -0.3635 -1.5370  2.8718
 2258TIP3   OH230968   1.298   5.961  14.062  0.1753  0.1659  0.2989
 2258TIP3    H130969   1.255   5.876  14.049 -1.3087  0.9081  0.1650
 2258TIP3    H230970   1.266   6.015  13.989  1.0606  0.8572  0.4121
 2259TIP3   OH230971   1.357   0.978  14.698  0.8425 -0.3054 -0.2061
 2259TIP3    H130972   1.389   0.975  14.789  1.1175  1.8203 -0.1680
 2259TIP3    H230973   1.421   0.927  14.649  0.2583 -2.1689  0.8743
 2260TIP3   OH230974   0.854   4.002  14.886 -0.2374 -0.4099  0.5131
 2260TIP3    H130975   0.858   4.025  14.979 -1.3918  1.0458  0.2331
 2260TIP3    H230976   0.833   3.909  14.886 -0.1303 -0.4545  1.7139
 2261TIP3   OH230977   2.778   1.080  13.182  0.1358 -0.8379  0.0884
 2261TIP3    H130978   2.807   1.107  13.095  0.4929 -1.9605 -0.1587
 2261TIP3    H230979   2.829   1.135  13.242 -1.2150  1.0400 -0.3806
 2262TIP3   OH230980   1.966   4.437  16.987  0.6873  0.4649  0.8551
 2262TIP3    H130981   1.960   4.528  17.017 -0.0623  1.2552 -1.4750
 2262TIP3    H230982   2.031   4.439  16.917 -0.5070 -0.4372 -0.3337
 2263TIP3   OH230983   4.564   5.658  15.353  0.4244 -0.5022 -0.1541
 2263TIP3    H130984   4.623   5.592  15.390 -0.5017 -2.1178 -1.4427
 2263TIP3    H230985   4.484   5.610  15.332 -0.8582  1.3602  0.2508
 2264TIP3   OH230986   3.064   4.815  13.905 -0.0469  0.0621 -0.0783
 2264TIP3    H130987   3.080   4.819  13.811 -0.2415  3.3546 -0.0834
 2264TIP3    H230988   2.972   4.793  13.913 -0.1482  0.2409 -0.7008
 2265TIP3   OH230989   5.749   1.634  13.772  0.1393 -0.1982  0.2109
 2265TIP3    H130990   5.722   1.649  13.863  0.0886  2.6996 -0.1976
 2265TIP3    H230991   5.815   1.565  13.778  0.9273  0.6557  2.6067
 2266TIP3   OH230992   6.364   4.081  13.836 -0.1619  0.2274  0.0041
 2266TIP3    H130993   6.413   4.017  13.784  0.9451  0.9704  0.1045
 2266TIP3    H230994   6.334   4.032  13.912 -2.2407 -1.0140 -1.4929
 2267TIP3   OH230995   1.226   5.187  15.900 -0.0252 -0.3520 -0.4386
 2267TIP3    H130996   1.139   5.163  15.870  0.4329 -0.4119 -1.7916
 2267TIP3    H230997   1.220   5.185  15.995 -1.9140  1.1518 -0.4632
 2268TIP3   OH230998   0.862   0.498  15.588 -0.1318  0.5934  0.0754
 2268TIP3    H130999   0.795   0.439  15.624 -0.3983  0.9773  0.2176
 2268TIP3    H231000   0.813   0.563  15.539  0.1710  0.6294 -0.1812
 2269TIP3   OH231001   3.635   3.802  15.998  0.2996 -0.2036 -0.2939
 2269TIP3    H131002   3.640   3.832  15.907  0.8084 -0.3439 -0.3152
 2269TIP3    H231003   3.708   3.846  16.042 -0.4032  0.4802  0.2308
 2270TIP3   OH231004   6.114   0.556  15.530 -0.7148  0.0082  0.0514
 2270TIP3    H131005   6.156   0.583  15.612 -1.6777  0.0553  0.5567
 2270TIP3    H231006   6.112   0.635  15.477  1.4253 -0.4091 -0.7298
 2271TIP3   OH231007   1.026   1.748  15.691  0.7510  0.2351  0.2351
 2271TIP3    H131008   1.028   1.779  15.600 -0.6920  0.2730  0.1998
 2271TIP3    H231009   1.022   1.653  15.684 -0.2918  0.2712  0.2272
 2272TIP3   OH231010   1.004   4.081  15.443 -0.2623  0.6144  0.1849
 2272TIP3    H131011   1.080   4.102  15.497 -1.1883  1.8734  1.0521
 2272TIP3    H231012   1.023   4.123  15.359  0.2658  0.3737  0.1733
 2273TIP3   OH231013   5.365   2.430  13.605  0.5007 -0.6138  0.3970
 2273TIP3    H131014   5.375   2.365  13.536 -0.5304  0.5020 -0.8493
 2273TIP3    H231015   5.270   2.446  13.610  0.8186  1.9851 -0.5202
 2274TIP3   OH231016   3.576   1.804  17.290 -0.4649 -0.0626  0.7413
 2274TIP3    H131017   3.545   1.732  17.236 -2.3142 -1.0115  2.8990
 2274TIP3    H231018   3.658   1.773  17.327  0.4126  0.2894 -0.8122
 2275TIP3   OH231019   4.334   3.963  15.502  0.0804  0.1220 -0.1345
 2275TIP3    H131020   4.327   3.924  15.415  0.3793  1.2053 -0.6582
 2275TIP3    H231021   4.262   4.026  15.506  0.1737  0.2038  0.3349
 2276TIP3   OH231022   2.551   6.439  14.891 -0.3655 -0.4148 -0.4087
 2276TIP3    H131023   2.533   6.348  14.865 -0.0457 -0.8181  0.7142
 2276TIP3    H231024   2.497   6.453  14.969  0.8176 -0.2000  0.4055
 2277TIP3   OH231025   5.619   3.242  14.488 -0.4471 -0.3539 -0.2072
 2277TIP3    H131026   5.537   3.262  14.444  0.0684  0.6480 -0.7505
 2277TIP3    H231027   5.607   3.153  14.523 -1.2399 -0.7805 -1.5064
 2278TIP3   OH231028   1.491   6.671  15.108  0.7885 -0.1140 -0.3918
 2278TIP3    H131029   1.462   6.581  15.124  0.3337  0.0966 -0.0225
 2278TIP3    H231030   1.457   6.721  15.182  2.4099  0.0739  0.2634
 2279TIP3   OH231031   1.595   4.826  16.303 -0.1579  0.0574  0.3440
 2279TIP3    H131032   1.690   4.826  16.292 -0.3036 -0.9612 -1.3773
 2279TIP3    H231033   1.563   4.883  16.232 -0.8308  0.7204  1.1577
 2280TIP3   OH231034   0.665   1.643  13.999  0.0882  0.2257 -0.0516
 2280TIP3    H131035   0.750   1.662  13.960  0.3338 -1.3858 -0.3525
 2280TIP3    H231036   0.606   1.632  13.925  0.3908 -2.0709 -0.0234
 2281TIP3   OH231037   0.306   1.266  14.346  0.6134  0.2097  0.0188
 2281TIP3    H131038   0.320   1.192  14.405 -0.3446  0.7195  0.9051
 2281TIP3    H231039   0.294   1.341  14.403 -1.1842  0.5732 -0.7818
 2282TIP3   OH231040   1.642   1.795  16.030  0.6930 -0.1566 -0.5757
 2282TIP3    H131041   1.647   1.704  16.059  1.5172 -0.7707 -2.4780
 2282TIP3    H231042   1.549   1.815  16.030  0.6061 -0.1462  2.1637
 2283TIP3   OH231043   1.343   3.950  16.404 -0.3162 -0.3377  0.1515
 2283TIP3    H131044   1.292   3.916  16.330 -0.5677 -1.1384  0.6776
 2283TIP3    H231045   1.324   4.044  16.405 -0.8762 -0.4369 -0.3645
 2284TIP3   OH231046   6.113   4.156  16.033 -0.1989  0.2787  0.3189
 2284TIP3    H131047   6.106   4.251  16.041 -1.0610  0.2080  0.4705
 2284TIP3    H231048   6.205   4.141  16.013  0.0005  1.1285  0.5415
 2285TIP3   OH231049   5.056   4.249  16.991 -0.3459  0.1251  0.0661
 2285TIP3    H131050   5.044   4.330  17.041 -0.4391  2.0929 -2.8728
 2285TIP3    H231051   4.967   4.215  16.980 -0.5722  0.8691 -0.5120
 2286TIP3   OH231052   3.448   0.975  14.286 -0.0695 -0.5146 -0.2074
 2286TIP3    H131053   3.528   1.028  14.292  0.7394 -1.7374  0.2123
 2286TIP3    H231054   3.382   1.035  14.250  0.6610  0.9122  0.7362
 2287TIP3   OH231055   5.530   3.700  15.049 -0.3980  0.4343  0.4143
 2287TIP3    H131056   5.495   3.633  15.108 -0.1165  0.7777  0.9876
 2287TIP3    H231057   5.625   3.691  15.058 -0.2761 -0.7583 -1.4237
 2288TIP3   OH231058   2.279   1.334  14.679  0.3999 -0.4456  0.0171
 2288TIP3    H131059   2.258   1.254  14.727  1.4493 -0.5850  0.2785
 2288TIP3    H231060   2.197   1.383  14.676  0.2861 -0.4539  1.9393
 2289TIP3   OH231061   2.749   4.058  14.945 -0.9475 -0.0954 -0.2265
 2289TIP3    H131062   2.667   4.088  14.985 -1.8116 -2.3590 -0.1376
 2289TIP3    H231063   2.803   4.136  14.939 -3.4718  1.7379 -1.1855
 2290TIP3   OH231064   2.608   3.086  13.842 -0.2826 -0.2107  0.3945
 2290TIP3    H131065   2.624   3.122  13.754  0.4474  0.1108  0.6457
 2290TIP3    H231066   2.542   3.145  13.880  0.9696  0.9638  0.8343
 2291TIP3   OH231067   1.171   3.589  14.694  0.3367  0.0709  0.5127
 2291TIP3    H131068   1.189   3.584  14.788  0.1733  2.1394  0.7044
 2291TIP3    H231069   1.076   3.593  14.688  0.3494  0.0269  0.2719
 2292TIP3   OH231070   0.361   5.581  13.864  0.0560 -0.1955  0.1367
 2292TIP3    H131071   0.400   5.623  13.942 -0.5266  1.7368 -0.5408
 2292TIP3    H231072   0.346   5.654  13.804 -1.3992 -1.3687 -0.9860
 2293TIP3   OH231073   3.359   5.344  13.367  0.2752  0.4609 -0.5676
 2293TIP3    H131074   3.452   5.321  13.357  0.2159  0.2326 -0.5970
 2293TIP3    H231075   3.356   5.437  13.349  0.3225  0.2479 -1.7104
 2294TIP3   OH231076   4.453   4.855  16.402 -0.1235  0.0548 -0.7314
 2294TIP3    H131077   4.476   4.843  16.494 -0.4886 -0.2983 -0.6847
 2294TIP3    H231078   4.419   4.944  16.396 -1.9221 -0.5584 -0.1475
 2295TIP3   OH231079   3.564   1.255  15.966 -0.0655 -0.1477 -0.2095
 2295TIP3    H131080   3.558   1.162  15.990 -3.8788 -0.0941 -0.3040
 2295TIP3    H231081   3.519   1.300  16.037 -2.8872  1.0001 -2.5254
 2296TIP3   OH231082   0.423   0.115  16.084  0.0672  0.7783 -0.2932
 2296TIP3    H131083   0.500   0.169  16.102  2.6056 -2.2012 -1.3432
 2296TIP3    H231084   0.453   0.026  16.099 -2.9248 -0.6044 -1.7866
 2297TIP3   OH231085   4.211   3.202  14.548  0.0331  0.3014  0.0314
 2297TIP3    H131086   4.220   3.232  14.639  0.2426 -0.8685  0.4134
 2297TIP3    H231087   4.242   3.111  14.550 -0.7192  0.0098 -1.0572
 2298TIP3   OH231088   2.017   2.644  15.375  0.4473 -0.3752  0.3613
 2298TIP3    H131089   2.022   2.695  15.456 -0.4537 -0.6834  0.6287
 2298TIP3    H231090   1.935   2.596  15.382  0.3963 -0.4800 -0.6990
 2299TIP3   OH231091   1.037   2.447  15.296 -0.0548 -0.0901 -0.0294
 2299TIP3    H131092   1.099   2.462  15.225  1.3446  2.2355  1.5635
 2299TIP3    H231093   0.963   2.504  15.277 -0.5738 -0.9011 -0.5479
 2300TIP3   OH231094   4.890   1.358  13.651 -0.1987 -0.2989  0.4524
 2300TIP3    H131095   4.934   1.394  13.728  1.2053 -0.8488 -0.0575
 2300TIP3    H231096   4.946   1.286  13.623 -0.1739  0.4357 -1.6079
 2301TIP3   OH231097   4.926   3.705  15.681  0.5239  0.2811  0.6239
 2301TIP3    H131098   4.865   3.715  15.753  0.6158 -0.1544  0.7631
 2301TIP3    H231099   4.872   3.706  15.602  0.1554 -1.6752  0.8161
 2302TIP3   OH231100   1.869   5.305  15.694 -0.1742  0.1803 -0.1128
 2302TIP3    H131101   1.944   5.290  15.636 -1.2885 -0.0875 -1.5449
 2302TIP3    H231102   1.906   5.308  15.782  1.6931  1.3128 -0.8815
 2303TIP3   OH231103   6.045   2.435  15.350 -0.0867  0.3846  0.6309
 2303TIP3    H131104   6.022   2.509  15.407  0.4003  1.1526 -0.1463
 2303TIP3    H231105   6.075   2.367  15.410  0.8786  1.3477  1.2703
 2304TIP3   OH231106   5.215   6.352  15.092  0.1308  0.2473 -0.1010
 2304TIP3    H131107   5.221   6.317  15.003 -0.5370  3.1549 -1.4205
 2304TIP3    H231108   5.272   6.296  15.144  1.5762 -0.7754 -2.6140
 2305TIP3   OH231109   5.114   1.832  15.930  0.3575  0.0199 -0.6210
 2305TIP3    H131110   5.072   1.761  15.979  1.9901  0.4964  1.6485
 2305TIP3    H231111   5.163   1.788  15.861 -0.6850 -0.8321 -0.8472
 2306TIP3   OH231112   5.718   3.552  16.085 -0.4440 -0.5892  0.0009
 2306TIP3    H131113   5.671   3.609  16.024  0.0442  0.4935  0.6019
 2306TIP3    H231114   5.790   3.606  16.117  0.3688 -1.7447  0.1760
 2307TIP3   OH231115   2.857   3.916  14.692  0.0194 -0.2156  0.4914
 2307TIP3    H131116   2.816   3.954  14.770 -0.3291  1.5816 -0.5157
 2307TIP3    H231117   2.828   3.972  14.620  0.9924 -1.3420 -0.8282
 2308TIP3   OH231118   4.487   6.081  15.837  0.0002 -0.1191 -0.2846
 2308TIP3    H131119   4.433   6.148  15.880 -1.4392 -2.0324  1.1032
 2308TIP3    H231120   4.503   6.116  15.749  1.2585  3.0107  1.0434
 2309TIP3   OH231121   1.945   3.188  14.962  0.3357 -0.3255  0.3440
 2309TIP3    H131122   1.974   3.130  14.891  1.6960  2.3424 -1.4365
 2309TIP3    H231123   2.015   3.182  15.027 -0.6269 -2.3150  1.2974
 2310TIP3   OH231124   1.261   4.336  15.459 -0.3528  0.1271  0.3627
 2310TIP3    H131125   1.209   4.301  15.387 -0.5190 -1.2211  1.0997
 2310TIP3    H231126   1.352   4.319  15.433 -0.3026  1.4216 -0.3929
 2311TIP3   OH231127   2.438   0.671  16.315 -0.1466 -0.6257  0.2218
 2311TIP3    H131128   2.394   0.756  16.319  2.8113  1.0391 -0.4498
 2311TIP3    H231129   2.379   0.617  16.262 -2.4924  0.6655  1.3122
 2312TIP3   OH231130   1.304   0.227  16.844  0.0216  0.0869  0.4479
 2312TIP3    H131131   1.283   0.221  16.750 -1.7043 -0.5670  0.8280
 2312TIP3    H231132   1.356   0.149  16.862  0.4261  0.2524  0.0346
 2313TIP3   OH231133   6.229   4.890  16.526  0.0902 -0.3949 -0.0185
 2313TIP3    H131134   6.187   4.891  16.612  2.1896 -0.0398  1.0850
 2313TIP3    H231135   6.236   4.798  16.503 -0.9284 -0.4671 -0.0569
 2314TIP3   OH231136   3.002   0.273  16.440  0.1702 -0.0281  0.4659
 2314TIP3    H131137   2.957   0.335  16.498  0.6107  0.0251  0.7569
 2314TIP3    H231138   2.964   0.188  16.461 -0.5982  0.1668 -0.0914
 2315TIP3   OH231139   3.662   2.147  16.098  0.4065  0.5832  0.0648
 2315TIP3    H131140   3.628   2.089  16.167 -1.2006 -0.3851 -1.4722
 2315TIP3    H231141   3.718   2.091  16.045 -1.1106  0.3854 -1.3977
 2316TIP3   OH231142   6.679   5.161  15.938  0.7820  0.1624 -0.0205
 2316TIP3    H131143   6.672   5.253  15.911  1.9000  0.1454 -0.4365
 2316TIP3    H231144   6.761   5.158  15.988  0.4883 -0.5138  0.4374
 2317TIP3   OH231145   2.764   4.400  15.486  0.6321 -0.1309  0.1131
 2317TIP3    H131146   2.791   4.485  15.451  0.1069 -0.4774 -1.2176
 2317TIP3    H231147   2.824   4.384  15.559  1.2676  1.0099 -0.1265
 2318TIP3   OH231148   2.985   3.382  14.671  0.4060 -0.7129 -0.3591
 2318TIP3    H131149   2.955   3.456  14.723  0.0454 -0.4884 -0.8738
 2318TIP3    H231150   3.078   3.373  14.694  0.3566 -0.3462 -0.0066
 2319TIP3   OH231151   4.270   1.507  16.855 -0.1952  0.1251 -0.6949
 2319TIP3    H131152   4.238   1.588  16.896 -0.5908  0.1150 -0.9685
 2319TIP3    H231153   4.303   1.455  16.927  0.0002  0.5054 -0.5033
 2320TIP3   OH231154   2.001   5.579  14.739 -0.3820 -0.1225 -0.6934
 2320TIP3    H131155   1.970   5.490  14.722  0.2957 -0.4476 -0.2576
 2320TIP3    H231156   1.983   5.593  14.832 -0.1212  0.0413 -0.6668
 2321TIP3   OH231157   5.858   4.482  14.386  0.0577  0.1059 -0.1076
 2321TIP3    H131158   5.766   4.460  14.370  0.2776  0.2814 -1.8240
 2321TIP3    H231159   5.890   4.413  14.444 -1.0810 -0.1058  0.2873
 2322TIP3   OH231160   5.510   6.024  15.402 -0.1152 -0.6194 -0.1158
 2322TIP3    H131161   5.555   5.941  15.413 -0.5900 -0.7527  0.9041
 2322TIP3    H231162   5.580   6.089  15.396  0.2292 -0.8779  0.9764
 2323TIP3   OH231163   2.449   4.864  14.603 -0.0761 -0.2270 -0.3831
 2323TIP3    H131164   2.458   4.956  14.577 -1.0267  0.1050  0.4064
 2323TIP3    H231165   2.376   4.864  14.665 -0.5837 -1.6362 -0.9460
 2324TIP3   OH231166   4.663   6.309  14.531 -0.4161 -0.1076  0.0192
 2324TIP3    H131167   4.578   6.266  14.528  1.3704 -3.9763 -0.6377
 2324TIP3    H231168   4.677   6.329  14.623 -0.3376 -3.4847  0.8569
 2325TIP3   OH231169   3.432   1.143  13.916 -0.2551  0.3563 -0.3340
 2325TIP3    H131170   3.373   1.099  13.977  0.9301  0.1294  0.6900
 2325TIP3    H231171   3.382   1.219  13.886 -0.4005  1.3331  2.0903
 2326TIP3   OH231172   0.876   1.725  13.434 -0.4910 -0.1800  0.4974
 2326TIP3    H131173   0.818   1.797  13.411 -2.6201 -2.2345 -0.9939
 2326TIP3    H231174   0.838   1.687  13.513  0.5123  0.1516  1.1675
 2327TIP3   OH231175   1.426   3.690  16.188  0.4125  0.9487  0.1258
 2327TIP3    H131176   1.446   3.665  16.278 -2.4849  0.7591  0.8234
 2327TIP3    H231177   1.447   3.613  16.136  0.6342  0.5111  0.8510
 2328TIP3   OH231178   3.790   6.477  16.150 -0.2242 -0.6640  0.0961
 2328TIP3    H131179   3.752   6.422  16.218  0.2415 -2.0061 -0.6816
 2328TIP3    H231180   3.715   6.518  16.107 -0.5252  0.1211  1.3189
 2329TIP3   OH231181   2.687   0.549  16.248  0.4622 -0.4086 -0.2661
 2329TIP3    H131182   2.743   0.598  16.188  0.0361  0.6912  0.2015
 2329TIP3    H231183   2.598   0.570  16.220  0.2507  0.4242  0.9564
 2330TIP3   OH231184   4.481   4.866  16.700 -0.0547  0.0429  0.1673
 2330TIP3    H131185   4.449   4.953  16.725 -0.8410 -0.5728  1.4573
 2330TIP3    H231186   4.404   4.809  16.710  0.5840 -0.8821 -0.1169
 2331TIP3   OH231187   0.013   1.391  15.901  0.0520  0.3889  0.2232
 2331TIP3    H131188   0.037   1.428  15.816  1.2290 -0.4062  0.1851
 2331TIP3    H231189   0.035   1.460  15.964  1.6760  0.0069  0.1040
 2332TIP3   OH231190   4.988   6.213  14.555  0.4950  0.0813  0.1216
 2332TIP3    H131191   4.972   6.286  14.496  0.4633  0.4775  0.6185
 2332TIP3    H231192   4.913   6.213  14.614  1.0235  0.3020  0.7922
 2333TIP3   OH231193   6.134   0.951  16.534  0.3797 -0.1816  0.2532
 2333TIP3    H131194   6.072   0.918  16.469 -0.8974 -0.6812  1.6874
 2333TIP3    H231195   6.115   1.045  16.540 -1.7319 -0.6633  2.1767
 2334TIP3   OH231196   1.569   4.701  15.808  0.9288  0.6176 -0.7666
 2334TIP3    H131197   1.513   4.626  15.787 -0.1797  1.6257 -1.5512
 2334TIP3    H231198   1.602   4.682  15.896 -0.7285  0.0253 -0.2396
 2335TIP3   OH231199   0.114   4.932  15.473 -0.1211 -0.2366  0.0372
 2335TIP3    H131200   0.127   4.857  15.416 -1.5677  0.2437 -1.0087
 2335TIP3    H231201   0.168   5.001  15.435  1.9784 -0.9411  1.5580
 2336TIP3   OH231202   6.154   4.466  15.485  0.1672  0.3365  0.5087
 2336TIP3    H131203   6.151   4.437  15.576  0.9020 -0.1329  0.3900
 2336TIP3    H231204   6.214   4.405  15.442 -0.0031  0.6853 -0.2423
 2337TIP3   OH231205   1.341   2.358  14.532 -0.6478  0.9299 -0.5496
 2337TIP3    H131206   1.252   2.366  14.498 -0.2517  0.2230 -1.7778
 2337TIP3    H231207   1.329   2.337  14.625 -1.7402  2.1552 -0.3888
 2338TIP3   OH231208   6.322   5.061  16.112  0.5249 -0.8305  0.7783
 2338TIP3    H131209   6.271   4.995  16.160 -0.8322 -0.9491 -0.7251
 2338TIP3    H231210   6.333   5.023  16.025 -0.3205  0.9012 -0.1350
 2339TIP3   OH231211   0.580   5.542  15.437  0.0722  0.1688  0.1606
 2339TIP3    H131212   0.630   5.623  15.447 -0.9037  0.7691  0.4080
 2339TIP3    H231213   0.591   5.497  15.521 -0.1818  0.5270  0.3915
 2340TIP3   OH231214   3.201   3.462  15.229  0.2334 -0.0534 -0.2596
 2340TIP3    H131215   3.189   3.389  15.290  0.7200 -0.1359 -0.2640
 2340TIP3    H231216   3.273   3.513  15.265  1.3858 -0.7927 -1.4099
 2341TIP3   OH231217   5.026   1.603  16.803 -0.2624  0.0456 -0.1662
 2341TIP3    H131218   5.077   1.535  16.760 -0.6960  0.2565 -1.0323
 2341TIP3    H231219   5.061   1.685  16.768 -0.1918  0.2467  0.3667
 2342TIP3   OH231220   2.462   3.280  15.715 -0.9918 -0.7962 -0.1272
 2342TIP3    H131221   2.454   3.184  15.710 -2.6097 -0.6246 -3.3092
 2342TIP3    H231222   2.534   3.301  15.656 -0.0234 -0.0308  1.2666
 2343TIP3   OH231223   2.159   6.340  15.008  0.2416 -0.0094 -0.5037
 2343TIP3    H131224   2.143   6.309  15.097 -1.8311  1.7521 -0.1483
 2343TIP3    H231225   2.246   6.379  15.011 -1.0864  3.2439  1.8828
 2344TIP3   OH231226   5.151   0.540  15.287  0.0620  0.5645  0.0851
 2344TIP3    H131227   5.225   0.552  15.346 -1.7244  0.6127  2.4298
 2344TIP3    H231228   5.078   0.515  15.343 -1.6526  0.1024 -2.1724
 2345TIP3   OH231229   2.185   3.338  15.934  0.4364  0.3322 -0.3510
 2345TIP3    H131230   2.280   3.344  15.920  0.7557 -3.4933 -1.1626
 2345TIP3    H231231   2.151   3.309  15.850 -1.5012  1.5899 -0.0452
 2346TIP3   OH231232   6.093   1.890  14.528 -0.1601 -0.0313  0.4058
 2346TIP3    H131233   6.184   1.904  14.502 -0.1413  0.2380  0.6103
 2346TIP3    H231234   6.098   1.832  14.604 -0.2074 -0.7165 -0.1028
 2347TIP3   OH231235   5.224   1.221  16.206  0.2058  0.2909  0.0638
 2347TIP3    H131236   5.272   1.172  16.273  1.0521  2.4494  1.1310
 2347TIP3    H231237   5.288   1.233  16.135 -0.4262 -1.2567 -0.8109
 2348TIP3   OH231238   5.724   0.876  17.045 -0.0710 -0.3699  0.4373
 2348TIP3    H131239   5.801   0.932  17.053 -0.3462 -0.0111  0.6260
 2348TIP3    H231240   5.756   0.788  17.065  0.1785 -0.1424  1.0880
 2349TIP3   OH231241   0.318   2.504  16.663  0.2788 -0.3887  0.3358
 2349TIP3    H131242   0.239   2.468  16.704  0.5445 -1.6323 -0.2150
 2349TIP3    H231243   0.354   2.563  16.729  0.2384 -1.7065  1.5789
 2350TIP3   OH231244   4.719   3.368  15.282 -0.2603 -0.2508  0.1065
 2350TIP3    H131245   4.789   3.393  15.223 -0.4720 -1.9545 -0.9436
 2350TIP3    H231246   4.760   3.306  15.343 -0.2273  0.8922  1.3022
 2351TIP3   OH231247   0.048   1.873  16.440 -0.3853 -0.3927  0.2603
 2351TIP3    H131248   0.128   1.924  16.455 -0.1440 -0.7807  0.2998
 2351TIP3    H231249   0.079   1.791  16.402 -0.9299  0.5075 -2.3518
 2352TIP3   OH231250   5.552   2.553  14.023 -0.1066 -0.0923  0.0655
 2352TIP3    H131251   5.515   2.540  14.110  0.3004  1.1303  0.4427
 2352TIP3    H231252   5.585   2.467  13.997  1.5853 -0.1013  1.9964
 2353TIP3   OH231253   3.769   1.227  13.922  0.2071 -0.3174 -0.3539
 2353TIP3    H131254   3.767   1.226  13.826 -1.3362  0.0058 -0.3477
 2353TIP3    H231255   3.794   1.316  13.945  0.1983 -0.2874 -0.4605
 2354TIP3   OH231256   0.372   2.969  16.123 -0.5182  0.1758  0.1094
 2354TIP3    H131257   0.304   3.035  16.136 -0.7444  0.2999 -1.4856
 2354TIP3    H231258   0.335   2.908  16.060  0.7085  0.0474 -0.5160
 2355TIP3   OH231259   4.097   5.482  13.924 -0.0348 -0.3275 -0.9162
 2355TIP3    H131260   4.023   5.498  13.864  0.6903  0.7012 -1.5771
 2355TIP3    H231261   4.124   5.392  13.905 -0.6121 -0.4396 -1.2398
 2356TIP3   OH231262   6.664   4.647  14.959  0.7690  0.4690  0.6479
 2356TIP3    H131263   6.605   4.722  14.965  0.3726  0.0661  2.0314
 2356TIP3    H231264   6.627   4.592  14.890  0.2539  0.8304  0.6359
 2357TIP3   OH231265   4.101   5.536  16.236  0.7045 -0.2559 -0.6558
 2357TIP3    H131266   4.110   5.493  16.151  1.3703 -1.4803  0.0088
 2357TIP3    H231267   4.029   5.598  16.224  0.8647 -0.3239 -2.1371
 2358TIP3   OH231268   4.737   0.643  14.663 -0.9797  0.0290  0.2782
 2358TIP3    H131269   4.716   0.731  14.697  0.3726  0.2098  0.7154
 2358TIP3    H231270   4.832   0.642  14.658 -1.0044 -1.2578 -0.2009
 2359TIP3   OH231271   4.902   3.104  16.540 -0.6922 -0.1223  0.0356
 2359TIP3    H131272   4.850   3.181  16.564 -0.5609  0.2789 -0.9116
 2359TIP3    H231273   4.850   3.060  16.473  1.3475  1.8275 -3.0727
 2360TIP3   OH231274   2.095   5.373  15.407  0.0068  0.0800 -0.1554
 2360TIP3    H131275   2.010   5.417  15.400  0.0593  1.0210  3.3431
 2360TIP3    H231276   2.086   5.314  15.481  1.5961 -2.0166 -1.5240
 2361TIP3   OH231277   1.753   0.471  16.862  0.1940  0.8293  0.3378
 2361TIP3    H131278   1.788   0.418  16.933 -2.4896  2.1125  2.8750
 2361TIP3    H231279   1.776   0.561  16.886  1.5976  1.1731 -1.9731
 2362TIP3   OH231280   0.468   2.623  16.851  0.4147 -0.2451 -0.1852
 2362TIP3    H131281   0.554   2.588  16.826  0.2534 -1.5954  1.0287
 2362TIP3    H231282   0.472   2.633  16.946 -0.5885  0.1852 -0.1713
 2363TIP3   OH231283   5.716   5.389  14.113 -0.5633 -0.3521 -0.2616
 2363TIP3    H131284   5.729   5.353  14.201 -1.7444 -0.2319 -0.0137
 2363TIP3    H231285   5.804   5.401  14.078 -0.0821 -0.5272  0.8582
 2364TIP3   OH231286   1.326   0.803  14.402 -0.2645 -0.0758  0.3138
 2364TIP3    H131287   1.264   0.731  14.400  1.7068 -1.8682 -0.1683
 2364TIP3    H231288   1.385   0.786  14.329  0.5433  1.7850  0.4748
 2365TIP3   OH231289   1.093   3.242  16.040  0.0676 -0.1779  0.8555
 2365TIP3    H131290   1.024   3.232  15.974  0.0302  0.2132  0.8339
 2365TIP3    H231291   1.170   3.200  16.001 -0.3768 -1.3798  1.2278
 2366TIP3   OH231292   4.431   3.597  17.006 -0.9044 -0.4465  0.6508
 2366TIP3    H131293   4.515   3.597  16.960 -1.6096  0.4977 -0.7013
 2366TIP3    H231294   4.424   3.509  17.043  0.3938 -0.7387  0.2666
 2367TIP3   OH231295   5.203   4.766  16.005  0.2886 -0.0454 -0.1596
 2367TIP3    H131296   5.221   4.722  15.922 -0.6310  0.1057 -0.4473
 2367TIP3    H231297   5.222   4.858  15.988 -1.3215  0.2289 -0.6772
 2368TIP3   OH231298   1.469   6.438  14.270  0.1172 -0.2032  0.5228
 2368TIP3    H131299   1.399   6.416  14.208 -0.1550  0.8182  0.4399
 2368TIP3    H231300   1.497   6.354  14.305  2.3082 -1.1842 -3.0952
 2369TIP3   OH231301   1.491   0.777  16.924  0.2091 -0.0849 -0.3223
 2369TIP3    H131302   1.502   0.814  16.837 -0.7377 -0.1759 -0.4959
 2369TIP3    H231303   1.472   0.684  16.908  0.0899 -0.1137 -0.0196
 2370TIP3   OH231304   0.297   0.091  15.646  0.2907  0.4215 -0.1833
 2370TIP3    H131305   0.271  -0.001  15.655  2.7863 -0.2141  1.7604
 2370TIP3    H231306   0.220   0.134  15.608 -1.4512 -2.1992  0.0878
 2371TIP3   OH231307   3.168   5.780  14.186  0.4095  0.0860 -0.2128
 2371TIP3    H131308   3.192   5.690  14.210 -2.0782 -0.6370 -0.1544
 2371TIP3    H231309   3.185   5.784  14.091 -1.6919 -1.2983 -0.7116
 2372TIP3   OH231310   5.494   4.179  14.916  0.0483  0.1530 -0.6957
 2372TIP3    H131311   5.580   4.156  14.882  0.4031 -0.4242  0.5254
 2372TIP3    H231312   5.457   4.095  14.946 -0.4791  0.5498 -0.2113
 2373TIP3   OH231313   2.923   1.409  17.224 -0.5486 -0.1722  0.8197
 2373TIP3    H131314   2.885   1.321  17.224 -0.1887 -0.3490 -0.2225
 2373TIP3    H231315   2.964   1.417  17.137 -0.1721  0.8479  1.0770
 2374TIP3   OH231316   6.583   3.824  15.812 -0.3628 -0.7208 -0.1549
 2374TIP3    H131317   6.546   3.810  15.899  0.9880  0.6402  0.6812
 2374TIP3    H231318   6.649   3.892  15.824 -0.6831  0.0967 -2.3917
 2375TIP3   OH231319   3.506   4.890  15.881  0.4672  0.5413  0.1115
 2375TIP3    H131320   3.561   4.901  15.804  0.8299 -2.0001 -0.0527
 2375TIP3    H231321   3.437   4.956  15.870 -0.1819 -0.4705 -3.0281
 2376TIP3   OH231322   5.870   4.159  16.412  0.3490 -0.3965  0.3067
 2376TIP3    H131323   5.824   4.133  16.491 -0.3343  0.8743  0.3427
 2376TIP3    H231324   5.806   4.150  16.342  0.6767 -0.6354  0.0320
 2377TIP3   OH231325   6.136   1.219  16.546  0.1713 -0.0920  0.0989
 2377TIP3    H131326   6.075   1.282  16.506 -1.8059 -1.2903  1.0504
 2377TIP3    H231327   6.172   1.265  16.622  1.6613  1.1485 -1.2961
 2378TIP3   OH231328   5.167   5.103  15.667  0.0748 -0.0186  0.0282
 2378TIP3    H131329   5.087   5.055  15.687  1.0799 -1.8254 -0.0226
 2378TIP3    H231330   5.143   5.162  15.596 -0.9721 -1.2607 -0.6875
 2379TIP3   OH231331   5.685   2.675  15.127  0.4155 -0.3528 -0.1130
 2379TIP3    H131332   5.662   2.707  15.215 -0.6598 -0.4452 -0.3474
 2379TIP3    H231333   5.605   2.633  15.095  1.3828 -2.0941 -0.3581
 2380TIP3   OH231334   6.462   3.623  15.671  0.5874  0.2898  0.3782
 2380TIP3    H131335   6.469   3.544  15.726  0.1561 -0.0398 -0.0234
 2380TIP3    H231336   6.538   3.676  15.695  0.5157  0.0644  1.1496
 2381TIP3   OH231337   1.565   3.551  15.345 -0.0745  0.3656 -0.1079
 2381TIP3    H131338   1.578   3.602  15.425 -2.0333  0.4338  0.2332
 2381TIP3    H231339   1.617   3.471  15.358 -1.2855 -0.1847  1.8164
 2382TIP3   OH231340   5.298   5.030  15.922  0.1845 -0.2443  0.1983
 2382TIP3    H131341   5.258   5.088  15.987  0.0448  0.2531 -0.3282
 2382TIP3    H231342   5.271   5.066  15.837  2.0743  0.3514 -0.2022
 2383TIP3   OH231343   5.874   3.009  15.869 -0.1053  0.1712 -0.5734
 2383TIP3    H131344   5.918   3.041  15.948 -2.7449 -0.1137  1.1538
 2383TIP3    H231345   5.819   3.082  15.841 -2.3476 -1.0467  0.4076
 2384TIP3   OH231346   2.876   4.726  14.724 -0.0763  0.1433 -0.2521
 2384TIP3    H131347   2.853   4.656  14.663  4.2674 -0.9638 -0.9239
 2384TIP3    H231348   2.886   4.682  14.808  0.1900  0.4192 -0.1374
 2385TIP3   OH231349   6.188   2.428  16.649 -0.0548 -0.3873  0.6734
 2385TIP3    H131350   6.101   2.396  16.674  0.4136 -1.7994  0.5874
 2385TIP3    H231351   6.172   2.483  16.572 -0.9579  0.0794  1.1809
 2386TIP3   OH231352   4.670   6.449  16.104 -0.5614 -0.4612 -0.3554
 2386TIP3    H131353   4.647   6.358  16.083  0.2122 -0.9033  0.6503
 2386TIP3    H231354   4.758   6.461  16.068 -0.1037 -0.5571  0.6830
 2387TIP3   OH231355   1.261   5.423  16.896  0.8904  0.0127  0.2939
 2387TIP3    H131356   1.330   5.485  16.874  0.2715  0.5402 -0.2071
 2387TIP3    H231357   1.197   5.474  16.946 -0.0327  0.0269 -0.8395
 2388TIP3   OH231358   5.205   2.646  15.921  0.4247  0.3102 -0.1736
 2388TIP3    H131359   5.144   2.591  15.971  0.7823  0.4274  0.3940
 2388TIP3    H231360   5.292   2.616  15.948  0.6218  0.6641 -0.4102
 2389TIP3   OH231361   0.366   5.379  15.342  0.5150  0.1184  0.1380
 2389TIP3    H131362   0.303   5.414  15.280  0.8138  0.2090 -0.1123
 2389TIP3    H231363   0.434   5.446  15.349  2.3217 -1.3216 -2.1206
 2390TIP3   OH231364   4.649   4.789  14.218  0.0962  0.3545  0.3811
 2390TIP3    H131365   4.712   4.858  14.198 -0.5333  0.7110 -0.4124
 2390TIP3    H231366   4.662   4.724  14.149 -0.4836  0.4846  0.1499
 2391TIP3   OH231367   5.896   4.422  15.379 -0.2734 -0.1433 -0.0661
 2391TIP3    H131368   5.989   4.418  15.399 -0.7388  0.2709  2.4638
 2391TIP3    H231369   5.892   4.463  15.292  1.8816 -0.7699 -0.5234
 2392TIP3   OH231370   5.627   0.761  15.960  0.0469  0.3648  0.4959
 2392TIP3    H131371   5.607   0.668  15.961  0.1482  0.3463  1.2371
 2392TIP3    H231372   5.603   0.790  15.872 -0.0143 -0.3508  0.2743
 2393TIP3   OH231373   2.958   4.786  15.217 -0.0359 -0.2177 -0.0574
 2393TIP3    H131374   2.964   4.881  15.222 -1.0436 -0.0656 -1.2036
 2393TIP3    H231375   3.042   4.759  15.180  1.2272 -0.0386  2.4882
 2394TIP3   OH231376   1.198   4.792  15.963  0.3742  0.2988 -0.0472
 2394TIP3    H131377   1.248   4.724  16.008  0.7302 -0.4223 -1.4580
 2394TIP3    H231378   1.229   4.874  16.000 -0.7194 -0.2835  2.3652
 2395TIP3   OH231379   0.485   5.825  14.889  0.1862  0.2388 -0.0532
 2395TIP3    H131380   0.542   5.881  14.836 -1.8664  1.6747 -0.8998
 2395TIP3    H231381   0.503   5.736  14.858  0.4841  0.8554 -1.7668
 2396TIP3   OH231382   5.513   6.242  16.962 -0.2144 -0.0215 -0.0190
 2396TIP3    H131383   5.517   6.160  17.011 -0.8880  0.7675  1.4432
 2396TIP3    H231384   5.492   6.217  16.873  1.6282 -1.5719 -0.0782
 2397TIP3   OH231385   4.372   3.536  15.309  0.3121 -0.4598 -0.6249
 2397TIP3    H131386   4.352   3.629  15.325 -0.3005 -0.4242 -1.5608
 2397TIP3    H231387   4.419   3.509  15.388  1.0367  0.7981 -0.5900
 2398TIP3   OH231388   2.061   1.436  15.538  0.0260  0.2125  0.1441
 2398TIP3    H131389   2.094   1.468  15.454 -0.0731 -0.6040 -0.2098
 2398TIP3    H231390   2.116   1.360  15.558 -0.1558  0.2134  0.6685
 2399TIP3   OH231391   5.087   3.448  15.723  0.1206  0.0069  0.4310
 2399TIP3    H131392   5.007   3.424  15.676  1.6440  0.4869 -2.6665
 2399TIP3    H231393   5.088   3.544  15.722  0.1246  0.0410  1.6622
 2400TIP3   OH231394   0.024   3.260  15.945  0.1830 -0.5712 -0.2019
 2400TIP3    H131395   0.059   3.339  15.987 -0.9585  0.8613 -1.8070
 2400TIP3    H231396   0.101   3.207  15.926  0.8138 -1.0819  3.1249
 2401TIP3   OH231397   1.175   2.393  15.766 -0.0063  0.7255  0.3557
 2401TIP3    H131398   1.270   2.405  15.772 -0.3230  3.1000  2.8681
 2401TIP3    H231399   1.155   2.323  15.828  0.0660  0.4983  0.1229
 2402TIP3   OH231400   6.170   5.418  14.155 -0.2697  0.3027  0.0134
 2402TIP3    H131401   6.148   5.373  14.236  0.1559  0.4498  0.2112
 2402TIP3    H231402   6.100   5.392  14.094 -0.1209 -0.4921  0.1716
 2403TIP3   OH231403   0.480   0.413  14.042 -0.3137 -0.4761  0.2159
 2403TIP3    H131404   0.452   0.354  13.972 -0.8352 -0.1303  0.1245
 2403TIP3    H231405   0.440   0.497  14.020  1.9045  0.4275 -0.6623
 2404TIP3   OH231406   0.325   3.868  14.423 -0.3200  0.1727 -0.0482
 2404TIP3    H131407   0.387   3.821  14.367 -1.1668  0.2278 -1.0575
 2404TIP3    H231408   0.255   3.804  14.440  0.0774  0.0512  1.2333
 2405TIP3   OH231409   5.252   6.314  13.922 -0.0216 -0.1681  0.2322
 2405TIP3    H131410   5.306   6.247  13.964 -0.3379 -1.7616 -1.7426
 2405TIP3    H231411   5.245   6.285  13.831 -1.0292  2.0461 -0.4535
 2406TIP3   OH231412   2.910   1.991  14.795 -0.1224  0.0377 -0.3442
 2406TIP3    H131413   3.001   1.980  14.769  0.0255 -1.4187  0.6394
 2406TIP3    H231414   2.880   1.902  14.814 -1.6234  0.5340 -0.2308
 2407TIP3   OH231415   5.886   2.939  15.068  0.0386  0.3387 -0.7595
 2407TIP3    H131416   5.825   2.997  15.022 -0.9192 -1.3974 -1.7690
 2407TIP3    H231417   5.894   2.978  15.155 -1.7099  1.1824 -0.9227
 2408TIP3   OH231418   1.394   2.516  15.684 -0.3190 -0.0299 -0.2457
 2408TIP3    H131419   1.398   2.553  15.772  1.8017  1.0406 -0.7207
 2408TIP3    H231420   1.383   2.591  15.627  2.8966 -0.1144 -1.1497
 2409TIP3   OH231421   5.794   2.412  15.901 -0.0914 -0.4216  0.6906
 2409TIP3    H131422   5.709   2.394  15.942 -1.1106  0.6154 -0.8521
 2409TIP3    H231423   5.837   2.474  15.960 -0.8351 -0.1829  0.9961
 2410TIP3   OH231424   4.157   4.290  13.709  0.2746 -0.1609  0.3249
 2410TIP3    H131425   4.130   4.382  13.710 -0.7270 -0.4420  1.3803
 2410TIP3    H231426   4.252   4.293  13.719  0.8459  0.8695 -3.5439
 2411TIP3   OH231427   5.357   1.458  17.166 -0.4387  0.2990  0.0776
 2411TIP3    H131428   5.430   1.515  17.142 -0.1798 -0.1777 -0.2887
 2411TIP3    H231429   5.278   1.507  17.141 -0.2626  0.9862  0.8470
 2412TIP3   OH231430   6.407   0.218  14.500 -0.1096 -0.1518 -0.1619
 2412TIP3    H131431   6.437   0.157  14.432  0.7721 -0.5051  0.5291
 2412TIP3    H231432   6.440   0.181  14.582  1.2208  1.7218  0.2009
 2413TIP3   OH231433   4.019   2.906  16.095  0.2066  0.1563  0.5661
 2413TIP3    H131434   4.026   2.896  16.000  0.3804 -0.8512  0.6721
 2413TIP3    H231435   4.016   3.000  16.109 -0.5435  0.3035 -0.4879
 2414TIP3   OH231436   5.077   1.531  17.091  0.1280 -0.2862  0.2714
 2414TIP3    H131437   5.028   1.583  17.027  0.3122 -0.8154 -0.3076
 2414TIP3    H231438   5.032   1.548  17.174 -0.3385  0.1235 -0.0556
 2415TIP3   OH231439   3.940   1.452  15.682  0.1026  1.1266 -0.2474
 2415TIP3    H131440   3.876   1.483  15.746  0.8356  2.1857  0.0074
 2415TIP3    H231441   3.995   1.528  15.664  2.7183 -0.2484  1.2496
 2416TIP3   OH231442   2.090   4.002  16.223 -0.1170 -0.3128 -0.0253
 2416TIP3    H131443   2.109   4.070  16.159 -1.6157 -0.2062 -0.3896
 2416TIP3    H231444   2.085   4.048  16.307  1.7072 -0.4319  0.1948
 2417TIP3   OH231445   3.230   0.213  13.904 -0.1188  0.6583  0.1497
 2417TIP3    H131446   3.237   0.241  13.995  0.5923 -1.7311  0.9028
 2417TIP3    H231447   3.316   0.177  13.883 -1.1117 -1.5084 -0.4657
 2418TIP3   OH231448   4.814   1.523  15.783  0.3722  0.5168 -0.0608
 2418TIP3    H131449   4.731   1.477  15.769  1.0672 -1.9471  2.8963
 2418TIP3    H231450   4.859   1.516  15.699 -1.6778  0.4107 -1.2217
 2419TIP3   OH231451   5.881   5.068  16.355 -0.3820 -0.2591  0.4609
 2419TIP3    H131452   5.793   5.090  16.325 -0.4623 -1.2830 -0.1167
 2419TIP3    H231453   5.928   5.151  16.354 -0.6656 -0.0764 -1.5596
 2420TIP3   OH231454   2.584   4.096  14.635 -0.7315  0.2756 -0.0797
 2420TIP3    H131455   2.620   4.062  14.554 -0.5545  2.7946 -1.1563
 2420TIP3    H231456   2.649   4.160  14.665 -0.9291 -0.4005  1.9129
 2421TIP3   OH231457   5.584   2.226  14.427  0.2409  0.0638  0.0649
 2421TIP3    H131458   5.544   2.142  14.449  0.1735 -0.3313 -1.4646
 2421TIP3    H231459   5.557   2.242  14.336  0.5567  1.5606  0.2199
 2422TIP3   OH231460   5.831   5.028  14.128 -0.0815  0.0261 -0.4686
 2422TIP3    H131461   5.829   4.933  14.138 -0.8510 -0.2033 -2.4227
 2422TIP3    H231462   5.892   5.044  14.056 -0.0723  1.0061 -0.2598
 2423TIP3   OH231463   0.964   4.995  14.126 -0.9035 -0.2956 -0.0066
 2423TIP3    H131464   0.923   5.038  14.201 -1.9899 -0.5914 -0.4006
 2423TIP3    H231465   0.981   4.905  14.155 -0.5922 -0.1909  0.1366
 2424TIP3   OH231466   0.479   4.239  14.691  0.2378 -0.2032  0.0124
 2424TIP3    H131467   0.573   4.232  14.706  0.4754  0.4600 -1.1302
 2424TIP3    H231468   0.442   4.169  14.745  1.5150 -1.6051 -0.8355
 2425TIP3   OH231469   3.901   6.656  14.024  0.1832 -0.3713  0.5674
 2425TIP3    H131470   3.910   6.659  13.929 -1.5913 -0.4501  0.3669
 2425TIP3    H231471   3.935   6.741  14.053  0.2226 -0.1183 -0.1838
 2426TIP3   OH231472   2.496   2.950  14.306 -0.3269 -0.2028 -0.1321
 2426TIP3    H131473   2.509   2.871  14.254  0.4949 -0.4819  0.4866
 2426TIP3    H231474   2.536   3.020  14.255 -1.2543 -0.1302 -0.7871
 2427TIP3   OH231475   5.734   3.987  14.507  0.1471  0.3397  0.0621
 2427TIP3    H131476   5.822   3.956  14.525  0.1675  0.8456  0.8939
 2427TIP3    H231477   5.725   3.983  14.412  0.4233 -1.4293  0.0910
 2428TIP3   OH231478   2.912   6.075  16.500  0.2446 -0.1983 -0.1315
 2428TIP3    H131479   2.827   6.034  16.482  0.2957 -0.0119 -0.8165
 2428TIP3    H231480   2.900   6.167  16.477  0.6062 -0.1514 -0.1386
 2429TIP3   OH231481   1.074   0.177  13.967  0.3305  0.1957 -0.9085
 2429TIP3    H131482   1.103   0.136  14.049  0.5276 -0.9660 -1.5458
 2429TIP3    H231483   1.150   0.173  13.910  0.0818  0.6731 -1.2795
 2430TIP3   OH231484   4.488   4.702  15.447 -0.2385 -0.6618 -0.0676
 2430TIP3    H131485   4.410   4.683  15.499 -1.7330 -0.6952 -2.1972
 2430TIP3    H231486   4.458   4.698  15.356  2.0401  0.3156 -0.9362
 2431TIP3   OH231487   6.589   6.262  14.448  0.0223  0.1830 -0.1324
 2431TIP3    H131488   6.557   6.283  14.535 -0.3232 -0.4878 -0.0891
 2431TIP3    H231489   6.634   6.341  14.418  2.6804 -0.4833  1.7897
 2432TIP3   OH231490   1.234   1.160  15.217  0.1309  0.1244  0.1026
 2432TIP3    H131491   1.145   1.166  15.181  1.2416  1.8600 -2.7059
 2432TIP3    H231492   1.262   1.071  15.195 -0.8670 -0.4365  1.0123
 2433TIP3   OH231493   0.178   5.429  14.150  0.2153  0.0645  0.0344
 2433TIP3    H131494   0.099   5.419  14.097 -0.3974  1.6080  0.5800
 2433TIP3    H231495   0.220   5.509  14.116  2.1046 -1.2520 -0.9053
 2434TIP3   OH231496   1.950   1.871  15.371  0.2628 -0.2748  0.5104
 2434TIP3    H131497   2.035   1.894  15.410  0.4068 -1.7995  1.1286
 2434TIP3    H231498   1.970   1.861  15.278  0.2584  1.6931  0.2537
 2435TIP3   OH231499   6.185   3.014  16.565  0.4762  0.0958  0.6546
 2435TIP3    H131500   6.233   3.097  16.555  0.3883  0.0957  0.1883
 2435TIP3    H231501   6.244   2.949  16.527  0.7175 -0.1208  1.3849
 2436TIP3   OH231502   3.153   0.887  17.129 -0.3507  0.1717 -0.0920
 2436TIP3    H131503   3.151   0.983  17.125 -0.1932  0.4538  3.2278
 2436TIP3    H231504   3.246   0.866  17.141 -0.5379 -0.2112  0.8265
 2437TIP3   OH231505   1.427   5.618  15.126  0.0752  0.1597 -0.1778
 2437TIP3    H131506   1.346   5.579  15.157 -0.0975  0.7877  0.1807
 2437TIP3    H231507   1.407   5.711  15.117  0.3297  0.1067 -1.4836
 2438TIP3   OH231508   4.175   0.260  13.811 -0.1695 -0.4439 -0.3986
 2438TIP3    H131509   4.105   0.277  13.873 -0.1198 -1.1628 -0.1371
 2438TIP3    H231510   4.148   0.306  13.731 -1.1378 -1.0320 -0.4260
 2439TIP3   OH231511   3.459   2.982  15.888  0.2944  0.6545  0.0523
 2439TIP3    H131512   3.392   3.049  15.876  1.3319  1.8397  0.6100
 2439TIP3    H231513   3.412   2.899  15.880 -1.3173  1.4419  0.8646
 2440TIP3   OH231514   3.418   0.127  13.702  0.3829  0.0571  0.4978
 2440TIP3    H131515   3.495   0.117  13.647  0.4210  1.1586  0.3278
 2440TIP3    H231516   3.344   0.129  13.641  0.4100  1.0899  0.4817
 2441TIP3   OH231517   5.265   0.766  15.763 -0.0201  0.6363 -0.1360
 2441TIP3    H131518   5.356   0.754  15.739 -0.7920 -1.3304 -2.3560
 2441TIP3    H231519   5.268   0.783  15.858  2.5235 -0.8008  0.1319
 2442TIP3   OH231520   2.438   2.731  14.550 -0.9798 -0.2846 -0.0826
 2442TIP3    H131521   2.379   2.658  14.534 -1.0256 -0.0391 -1.1362
 2442TIP3    H231522   2.444   2.776  14.465  1.1457 -0.6241 -0.1780
 2443TIP3   OH231523   5.583   2.992  14.582  0.1001  0.3510 -0.2412
 2443TIP3    H131524   5.524   2.921  14.608 -1.4838  1.9903  0.8352
 2443TIP3    H231525   5.670   2.955  14.592 -0.6753 -1.5765 -0.1276
 2444TIP3   OH231526   0.759   2.283  14.263 -0.2170  0.4766 -0.1226
 2444TIP3    H131527   0.816   2.208  14.276 -0.3125  0.3481 -0.4442
 2444TIP3    H231528   0.784   2.345  14.332 -0.2137  0.1082  0.2075
 2445TIP3   OH231529   2.994   0.010  16.200  0.3050 -0.2020 -0.2506
 2445TIP3    H131530   2.954   0.037  16.283  0.7450 -0.5033  0.0608
 2445TIP3    H231531   2.920  -0.023  16.147  0.3807 -2.9449  1.1645
 2446TIP3   OH231532   2.373   0.204  14.417 -0.3916  0.3583  0.4157
 2446TIP3    H131533   2.311   0.181  14.486  1.2336  1.8574  2.5162
 2446TIP3    H231534   2.423   0.124  14.402 -1.2991 -0.2148  0.3637
 2447TIP3   OH231535   3.550   6.701  16.544 -0.4524  0.4089  0.3360
 2447TIP3    H131536   3.622   6.764  16.540 -1.4651  1.5642 -0.1716
 2447TIP3    H231537   3.485   6.743  16.600 -0.8752 -0.4917  0.5302
 2448TIP3   OH231538   2.233   6.427  17.393  0.2766 -0.7732 -0.4398
 2448TIP3    H131539   2.149   6.407  17.353  0.7527  0.9942 -2.5351
 2448TIP3    H231540   2.294   6.365  17.353  0.1815 -1.3421  0.2728
 2449TIP3   OH231541   5.859   1.703  16.951 -0.1962  0.3951 -0.3752
 2449TIP3    H131542   5.847   1.719  17.045  0.1759  0.7392 -0.3850
 2449TIP3    H231543   5.865   1.607  16.945  1.8718  0.4286  0.2410
 2450TIP3   OH231544   4.676   1.666  14.754  0.5709  0.0589 -0.4274
 2450TIP3    H131545   4.763   1.692  14.785  0.5207 -0.2435 -0.0307
 2450TIP3    H231546   4.642   1.744  14.710  0.6360  0.4995  0.2848
 2451TIP3   OH231547   0.652   0.326  15.674 -0.3829 -0.1485  0.0580
 2451TIP3    H131548   0.598   0.323  15.595 -0.9392  2.1379  0.2944
 2451TIP3    H231549   0.590   0.310  15.745  0.2610 -3.1539  0.1011
 2452TIP3   OH231550   5.844   1.797  14.961 -0.4792  0.3390 -0.0519
 2452TIP3    H131551   5.905   1.871  14.961 -0.6596  0.4871  0.5343
 2452TIP3    H231552   5.898   1.722  14.983 -0.4233  0.4006  0.0229
 2453TIP3   OH231553   1.621   5.758  14.268  0.1162  0.5965  0.0396
 2453TIP3    H131554   1.717   5.754  14.265  0.0770 -0.7988 -0.0434
 2453TIP3    H231555   1.601   5.816  14.342  1.0309 -0.2040  0.9386
 2454TIP3   OH231556   0.122   4.099  15.620  0.8981  0.2823 -0.3795
 2454TIP3    H131557   0.053   4.126  15.559  0.1242 -1.3166 -0.2742
 2454TIP3    H231558   0.190   4.166  15.611 -0.2344  1.3769 -1.2126
 2455TIP3   OH231559   2.813   4.314  16.195 -0.8099  0.2757 -0.5549
 2455TIP3    H131560   2.857   4.398  16.196 -2.0722  0.9613 -0.2841
 2455TIP3    H231561   2.729   4.330  16.152 -0.9239 -0.9222 -0.8368
 2456TIP3   OH231562   2.808   5.361  13.102 -0.1973  0.4487  0.4506
 2456TIP3    H131563   2.720   5.391  13.127  0.5480  2.3107  0.9889
 2456TIP3    H231564   2.821   5.280  13.151 -2.1994 -0.7369 -0.8323
 2457TIP3   OH231565   3.325   0.591  13.569 -0.0218  0.1716 -0.4246
 2457TIP3    H131566   3.365   0.581  13.483 -0.7066  0.4744 -0.7784
 2457TIP3    H231567   3.345   0.681  13.594 -0.7218  0.4146 -0.7276
 2458TIP3   OH231568   3.436   0.378  13.371  0.3461 -0.1433 -0.4743
 2458TIP3    H131569   3.391   0.446  13.322 -0.2709 -0.8284 -0.8649
 2458TIP3    H231570   3.507   0.424  13.416  0.2568  0.6674 -1.1463
 2459TIP3   OH231571   5.543   1.552  14.829 -0.4570 -0.4255  0.3464
 2459TIP3    H131572   5.449   1.570  14.824 -0.1429  1.1748 -0.4071
 2459TIP3    H231573   5.562   1.548  14.923 -1.1454 -0.0196  0.5107
 2460TIP3   OH231574   0.888   0.343  14.830 -0.5597 -0.3974 -0.4819
 2460TIP3    H131575   0.946   0.286  14.880 -2.5863 -1.4763  0.8009
 2460TIP3    H231576   0.842   0.395  14.896 -1.4743 -0.0054 -1.3958
 2461TIP3   OH231577   1.501   3.414  14.379  0.4391 -0.6519  0.1443
 2461TIP3    H131578   1.511   3.413  14.284 -0.5350  1.0518 -0.0141
 2461TIP3    H231579   1.428   3.474  14.395  2.2442  1.1763  2.0854
 2462TIP3   OH231580   4.565   3.686  14.653  0.2550 -0.3864 -0.0598
 2462TIP3    H131581   4.499   3.626  14.686  0.2768  0.5671  1.8261
 2462TIP3    H231582   4.516   3.762  14.622  0.4431  0.4714  1.6670
 2463TIP3   OH231583   6.567   0.025  13.722 -0.1102 -0.0384  0.2923
 2463TIP3    H131584   6.547  -0.058  13.679  0.8355 -0.2061  0.1482
 2463TIP3    H231585   6.621   0.072  13.658 -0.4319  0.5917  0.4745
 2464TIP3   OH231586   4.682   0.522  16.268 -0.7525 -0.3373 -0.7149
 2464TIP3    H131587   4.591   0.496  16.286 -1.1183 -0.2707 -2.2810
 2464TIP3    H231588   4.734   0.474  16.332 -1.7721 -1.5991 -0.7820
 2465TIP3   OH231589   0.662   6.184  14.568 -0.0340  0.1615 -0.4697
 2465TIP3    H131590   0.668   6.278  14.552 -2.0677  0.2560 -0.8579
 2465TIP3    H231591   0.606   6.150  14.498  0.3039 -1.2736 -0.0885
 2466TIP3   OH231592   1.403   1.549  14.249  0.1326 -0.0266  0.5875
 2466TIP3    H131593   1.321   1.505  14.269 -0.3483  0.1451 -0.8517
 2466TIP3    H231594   1.472   1.487  14.274 -0.5058 -1.2494 -0.5463
 2467TIP3   OH231595   3.057   3.442  14.319  0.6424  0.3315  0.0140
 2467TIP3    H131596   3.061   3.522  14.372 -0.9887 -0.8318  2.0409
 2467TIP3    H231597   3.139   3.397  14.337  0.8458  0.7614  0.1820
 2468TIP3   OH231598   3.595   5.517  14.510  0.4728 -0.0225 -0.4023
 2468TIP3    H131599   3.683   5.479  14.520  0.6813  0.1559 -1.4765
 2468TIP3    H231600   3.603   5.577  14.437 -0.7001 -0.4742 -0.9196
 2469TIP3   OH231601   1.922   2.666  16.857 -0.8835  0.1327  0.1300
 2469TIP3    H131602   1.984   2.689  16.787 -1.4180  0.2964 -0.2929
 2469TIP3    H231603   1.976   2.664  16.936 -0.2660 -0.0727 -0.2863
 2470TIP3   OH231604   4.635   0.451  16.825 -0.0198 -0.1990  0.9323
 2470TIP3    H131605   4.717   0.475  16.867  1.2528 -1.1608 -0.8655
 2470TIP3    H231606   4.630   0.505  16.746  0.6630 -2.4542 -0.7830
 2471TIP3   OH231607   5.575   2.601  13.570 -0.5159  0.2638 -0.3594
 2471TIP3    H131608   5.555   2.674  13.510 -2.5916  0.7771  0.8400
 2471TIP3    H231609   5.489   2.565  13.592  0.2381 -0.3989  1.6907
 2472TIP3   OH231610   2.527   5.272  16.932 -0.0306 -0.0854 -0.4366
 2472TIP3    H131611   2.479   5.221  16.867  0.5982  0.7383 -1.5753
 2472TIP3    H231612   2.619   5.260  16.909  0.1676  0.8397 -0.1743
 2473TIP3   OH231613   4.800   4.471  15.408 -0.5398  0.4054 -0.6776
 2473TIP3    H131614   4.889   4.495  15.382 -0.9092  1.7789 -0.7532
 2473TIP3    H231615   4.754   4.554  15.416 -1.2587 -0.1200  1.4331
 2474TIP3   OH231616   3.961   6.022  13.918 -0.8071 -0.2225  0.9980
 2474TIP3    H131617   4.027   6.055  13.978 -1.1921 -0.5344  1.5992
 2474TIP3    H231618   4.004   5.950  13.872 -0.8727 -0.7319  1.7239
 2475TIP3   OH231619   3.097   4.605  14.092 -0.0748  0.1852 -0.0063
 2475TIP3    H131620   3.095   4.683  14.036  1.2421 -0.2453 -0.6998
 2475TIP3    H231621   3.174   4.617  14.148  0.0126 -0.5041  0.0371
 2476TIP3   OH231622   1.262   3.131  15.867 -0.2090  0.2637 -0.2741
 2476TIP3    H131623   1.258   3.195  15.796  0.3285  1.9254  1.1163
 2476TIP3    H231624   1.349   3.092  15.859 -0.5142 -0.2640 -1.0953
 2477TIP3   OH231625   3.561   3.488  14.778  0.1658 -0.3406 -0.0023
 2477TIP3    H131626   3.484   3.453  14.823 -0.3357 -1.2169 -1.4725
 2477TIP3    H231627   3.635   3.453  14.827 -0.3128  1.5820  2.2429
 2478TIP3   OH231628   5.473   1.480  16.470  0.1943  0.3251  0.1729
 2478TIP3    H131629   5.488   1.389  16.446 -1.0154  0.2079 -0.2083
 2478TIP3    H231630   5.546   1.502  16.528  1.3420 -0.4018 -0.9569
 2479TIP3   OH231631   5.401   3.833  13.472  0.1085 -0.3238 -0.5758
 2479TIP3    H131632   5.385   3.753  13.521 -1.4748 -0.8062 -1.7771
 2479TIP3    H231633   5.315   3.875  13.467  0.8569  1.3313 -0.2072
 2480TIP3   OH231634   4.433   5.898  16.834 -0.2630 -0.2992  0.0817
 2480TIP3    H131635   4.390   5.901  16.919 -2.0503  0.6912 -0.8075
 2480TIP3    H231636   4.380   5.954  16.777 -0.1718 -2.3153 -2.1670
 2481TIP3   OH231637   0.522   5.753  16.934  0.6679 -0.3802 -0.3303
 2481TIP3    H131638   0.467   5.781  16.861 -0.0886  1.3794  0.8513
 2481TIP3    H231639   0.463   5.704  16.991  0.1948  1.6229  1.0083
 2482TIP3   OH231640   2.813   2.107  16.404 -0.0855 -0.3010  0.1679
 2482TIP3    H131641   2.866   2.111  16.484  0.7020 -0.0204 -0.3546
 2482TIP3    H231642   2.877   2.092  16.334 -0.6908  0.1641 -0.4930
 2483TIP3   OH231643   4.934   0.490  13.655 -0.4267 -0.0850 -0.3279
 2483TIP3    H131644   4.914   0.432  13.582 -0.1673  0.7653 -1.0949
 2483TIP3    H231645   5.022   0.466  13.682  0.3674  1.0599 -1.7660
 2484TIP3   OH231646   1.681   0.991  16.280  0.1808  0.5283  0.1309
 2484TIP3    H131647   1.587   1.011  16.273 -0.7155 -2.6868  1.2692
 2484TIP3    H231648   1.706   1.025  16.366 -0.2839  0.2846  0.3681
 2485TIP3   OH231649   2.802   5.381  15.011  0.0127  0.1449  0.2168
 2485TIP3    H131650   2.788   5.291  15.042  2.7118 -0.1273  0.8635
 2485TIP3    H231651   2.814   5.372  14.917 -0.4318 -0.0578  0.1751
 2486TIP3   OH231652   3.666   0.464  16.580 -0.6195  0.0768 -0.5460
 2486TIP3    H131653   3.726   0.446  16.653  0.3825  1.0835 -1.0922
 2486TIP3    H231654   3.677   0.557  16.562 -0.4702 -0.2482 -2.2965
 2487TIP3   OH231655   1.184   5.402  14.260 -0.4565  0.6222 -0.7628
 2487TIP3    H131656   1.270   5.429  14.229 -0.4429  2.3955  0.6418
 2487TIP3    H231657   1.203   5.357  14.343 -0.8165 -0.0052 -1.0156
 2488TIP3   OH231658   6.296   5.952  16.098  0.1732 -0.0287 -0.0608
 2488TIP3    H131659   6.387   5.978  16.106  0.2526 -0.3572  0.1322
 2488TIP3    H231660   6.270   5.979  16.009  0.3276  0.4521  0.0374
 2489TIP3   OH231661   1.204   2.666  14.186 -0.5659  0.3032  0.2290
 2489TIP3    H131662   1.145   2.678  14.261 -0.8633 -0.1353  0.0729
 2489TIP3    H231663   1.259   2.592  14.210 -0.2838  0.5193  0.2469
 2490TIP3   OH231664   5.576   5.628  14.242 -0.2713 -0.4700  0.1754
 2490TIP3    H131665   5.601   5.711  14.282 -0.1059 -0.6081  0.3547
 2490TIP3    H231666   5.658   5.591  14.209 -0.6841  0.9162 -2.7361
 2491TIP3   OH231667   4.851   5.244  13.987 -0.7205  0.7446 -0.1185
 2491TIP3    H131668   4.854   5.290  13.904  2.2423  1.3244  0.2120
 2491TIP3    H231669   4.865   5.152  13.965  2.4781  1.1517 -0.2155
 2492TIP3   OH231670   3.097   5.272  15.374 -0.3719 -0.0187  0.2574
 2492TIP3    H131671   3.068   5.199  15.429 -0.9512 -0.8853 -1.1420
 2492TIP3    H231672   3.023   5.333  15.376  0.1470  0.6117  1.4988
 2493TIP3   OH231673   6.007   2.667  15.762  0.1541 -0.4775 -0.4099
 2493TIP3    H131674   5.934   2.669  15.824 -0.4291 -1.5702 -1.0353
 2493TIP3    H231675   6.038   2.758  15.759 -3.1929  0.7732 -2.4785
 2494TIP3   OH231676   2.031   3.099  15.422 -0.0535 -0.4082  0.0387
 2494TIP3    H131677   2.082   3.060  15.492 -0.5361  2.9565  2.5397
 2494TIP3    H231678   1.940   3.087  15.449 -0.2434  0.9370  0.0961
 2495TIP3   OH231679   5.149   5.805  13.621  0.4071  0.5038  0.1714
 2495TIP3    H131680   5.073   5.769  13.668  0.4480  0.4672  0.2104
 2495TIP3    H231681   5.214   5.736  13.625  0.8282  0.9264  1.0769
 2496TIP3   OH231682   3.384   3.886  15.750 -0.2916  0.6777  0.2719
 2496TIP3    H131683   3.348   3.805  15.786 -1.4987  0.9329 -0.2818
 2496TIP3    H231684   3.370   3.951  15.818 -2.0484  1.0365 -0.3813
 2497TIP3   OH231685   2.344   6.416  13.970  0.1014  0.3175 -0.1212
 2497TIP3    H131686   2.338   6.409  13.875 -0.7149 -1.6711  0.0193
 2497TIP3    H231687   2.326   6.327  14.002  0.9457  0.7896  1.8730
 2498TIP3   OH231688   4.537   4.139  15.837 -0.0493 -0.4138  0.0251
 2498TIP3    H131689   4.573   4.062  15.793 -0.0495 -0.8940  0.8463
 2498TIP3    H231690   4.502   4.193  15.766 -0.0236 -1.1528 -0.5626
 2499TIP3   OH231691   5.680   3.031  16.608  0.0849 -0.4153  0.5150
 2499TIP3    H131692   5.612   3.098  16.611 -1.7702 -2.1319 -0.6972
 2499TIP3    H231693   5.759   3.078  16.582 -0.8500  1.4658  0.8971
 2500TIP3   OH231694   0.309   0.165  14.770 -0.3499 -0.8082  0.5008
 2500TIP3    H131695   0.235   0.184  14.712 -1.1542  1.2385  2.0685
 2500TIP3    H231696   0.386   0.170  14.713 -1.1243  0.8177 -0.4857
 2501TIP3   OH231697   3.935   2.616  16.838  0.1633  0.3758 -0.1321
 2501TIP3    H131698   3.939   2.662  16.754  0.8095 -2.7061 -1.9462
 2501TIP3    H231699   3.855   2.648  16.879  0.7362  3.2739 -1.0296
 2502TIP3   OH231700   4.630   0.487  15.183 -0.6383  0.4836  0.1042
 2502TIP3    H131701   4.549   0.447  15.216 -1.1547  0.9285 -0.5822
 2502TIP3    H231702   4.646   0.561  15.241  0.0388 -0.4004  1.0684
 2503TIP3   OH231703   5.670   5.326  13.838  0.0708 -0.0690  0.9233
 2503TIP3    H131704   5.667   5.331  13.933 -0.7586  0.4839  0.8762
 2503TIP3    H231705   5.678   5.232  13.819 -0.4539 -0.2386  1.5222
 2504TIP3   OH231706   6.368   0.332  14.034 -0.2619 -0.3628 -0.3822
 2504TIP3    H131707   6.331   0.373  13.955  0.6908  2.4197  0.4740
 2504TIP3    H231708   6.298   0.277  14.068 -0.9228 -1.1340 -2.7835
 2505TIP3   OH231709   0.559   6.097  16.714  0.3861 -0.1503 -0.1209
 2505TIP3    H131710   0.652   6.076  16.725 -0.0075 -1.5596  0.7683
 2505TIP3    H231711   0.551   6.186  16.750  1.1595 -0.5113  1.0100
 2506TIP3   OH231712   2.166   4.496  16.732  0.8922  0.5046  0.5660
 2506TIP3    H131713   2.231   4.567  16.732  0.7366  0.6686 -0.5102
 2506TIP3    H231714   2.106   4.519  16.660  1.7092 -1.4945 -0.8470
 2507TIP3   OH231715   5.622   1.267  14.989 -0.1424 -0.5489  0.0363
 2507TIP3    H131716   5.693   1.328  15.009 -2.6110  3.1872 -1.3025
 2507TIP3    H231717   5.649   1.224  14.908  1.2491 -0.4566  0.4244
 2508TIP3   OH231718   0.750   4.210  14.762  0.0067 -0.3633 -0.4368
 2508TIP3    H131719   0.772   4.125  14.802 -1.3037 -1.4652 -1.9212
 2508TIP3    H231720   0.823   4.227  14.703 -0.0790 -0.8594 -0.6981
 2509TIP3   OH231721   4.843   6.121  13.763  0.0002  0.1502 -0.0995
 2509TIP3    H131722   4.901   6.076  13.702  0.7276 -0.0071  0.6875
 2509TIP3    H231723   4.779   6.055  13.789  0.9066 -0.3915  0.8477
 2510TIP3   OH231724   0.147   2.101  15.497  0.4464  0.0153 -0.7756
 2510TIP3    H131725   0.142   2.124  15.404  1.9295 -1.7212 -1.3480
 2510TIP3    H231726   0.228   2.143  15.528 -0.0919  0.6660 -0.2258
 2511TIP3   OH231727   0.997   3.511  16.114  0.1537  0.0841  0.1286
 2511TIP3    H131728   1.003   3.425  16.072 -2.8358  0.4152 -1.2276
 2511TIP3    H231729   0.992   3.490  16.208 -0.7608 -1.3093 -0.1823
 2512TIP3   OH231730   4.203   3.120  16.450 -0.1129  0.4454  0.2643
 2512TIP3    H131731   4.252   3.136  16.531 -1.9156 -3.8152  2.5427
 2512TIP3    H231732   4.262   3.066  16.397 -0.2787  0.0607  0.4662
 2513TIP3   OH231733   0.869   0.879  15.792 -0.0837 -0.0415  0.2728
 2513TIP3    H131734   0.778   0.853  15.777  0.2364 -0.4210 -1.1543
 2513TIP3    H231735   0.863   0.961  15.841 -1.1966  0.1897 -0.2304
 2514TIP3   OH231736   2.632   0.085  16.721  0.7125  0.0691  0.4893
 2514TIP3    H131737   2.569   0.094  16.792  1.4411 -1.4169  1.3683
 2514TIP3    H231738   2.675   0.002  16.737 -1.0951 -1.8546 -3.3306
 2515TIP3   OH231739   6.679   6.068  14.951  0.0661  0.3055  0.3128
 2515TIP3    H131740   6.651   6.022  14.872 -1.5520 -0.4123  1.2559
 2515TIP3    H231741   6.749   6.014  14.987 -1.5320 -1.3114  1.1832
 2516TIP3   OH231742   4.074   5.354  17.067  0.0701  0.4257  0.3471
 2516TIP3    H131743   3.984   5.321  17.071 -0.2261  0.9853 -1.0824
 2516TIP3    H231744   4.122   5.288  17.018 -0.0429  1.0954 -0.6849
 2517TIP3   OH231745   6.632   2.450  14.498 -0.5362 -0.0642  0.2394
 2517TIP3    H131746   6.622   2.530  14.549  0.9696  0.7550 -0.6791
 2517TIP3    H231747   6.727   2.441  14.486 -0.6289 -2.2090  0.6393
 2518TIP3   OH231748   6.113   0.137  15.761 -0.0959  0.4859 -0.1731
 2518TIP3    H131749   6.024   0.134  15.796  0.3872  1.1196  1.1749
 2518TIP3    H231750   6.104   0.182  15.677 -1.1827 -0.4065 -0.5651
 2519TIP3   OH231751   2.315   5.759  17.397 -0.2554  0.0273  0.4010
 2519TIP3    H131752   2.223   5.786  17.398  0.3190  2.4479 -1.5202
 2519TIP3    H231753   2.336   5.740  17.488 -3.0231 -2.1928  0.6819
 2520TIP3   OH231754   3.275   5.031  16.081 -0.6651  0.2381  0.0218
 2520TIP3    H131755   3.188   5.062  16.104 -1.2190 -1.4156  0.2785
 2520TIP3    H231756   3.335   5.094  16.122 -1.7157  0.7579  0.8059
 2521TIP3   OH231757   4.216   1.948  15.530  0.1924  0.5435  0.0907
 2521TIP3    H131758   4.191   1.998  15.608 -1.5410 -0.1526  0.0349
 2521TIP3    H231759   4.165   1.868  15.535  0.8266  0.0121 -1.2438
 2522TIP3   OH231760   5.079   5.259  15.454  0.2878  0.0327 -0.0518
 2522TIP3    H131761   5.111   5.349  15.459  1.1223 -0.0905 -2.0767
 2522TIP3    H231762   5.147   5.213  15.405 -0.9502 -1.2962 -0.5903
 2523TIP3   OH231763   4.472   0.467  17.262  0.7276 -0.0090 -0.1171
 2523TIP3    H131764   4.427   0.453  17.345  1.0366 -1.5946 -0.1946
 2523TIP3    H231765   4.408   0.513  17.208  0.0790 -0.0760  0.5786
 2524TIP3   OH231766   1.492   2.131  16.037 -0.4960  0.1629  0.4150
 2524TIP3    H131767   1.538   2.109  15.956  0.0398  0.2195  0.7028
 2524TIP3    H231768   1.453   2.049  16.066 -1.1455  0.2485 -0.1819
 2525TIP3   OH231769   3.815   2.223  14.574  0.6321 -0.5967 -0.5631
 2525TIP3    H131770   3.899   2.193  14.610  1.2116  1.3728 -0.1177
 2525TIP3    H231771   3.839   2.295  14.515 -0.7341  0.0369 -0.3868
 2526TIP3   OH231772   4.232   1.039  14.267 -0.4643 -0.1689 -0.3945
 2526TIP3    H131773   4.214   1.002  14.353  0.6923  0.6184  0.2254
 2526TIP3    H231774   4.241   0.964  14.209  2.4678 -0.9884  0.9481
 2527TIP3   OH231775   5.647   3.153  16.293  0.5085 -0.7045  0.5792
 2527TIP3    H131776   5.571   3.095  16.305  0.4698 -0.5603  1.0636
 2527TIP3    H231777   5.613   3.226  16.242  0.1534 -0.3274  1.3353
 2528TIP3   OH231778   2.160   6.089  14.888  0.5580  0.3604 -0.1632
 2528TIP3    H131779   2.195   6.094  14.800 -1.0335  0.6278 -0.8224
 2528TIP3    H231780   2.144   6.181  14.913 -2.3998  0.2017 -1.0977
 2529TIP3   OH231781   4.543   2.485  16.273  0.4620 -0.8058 -0.1232
 2529TIP3    H131782   4.485   2.440  16.335  0.2397  0.7623  0.8476
 2529TIP3    H231783   4.511   2.458  16.187 -1.8810  0.1821  0.3649
 2530TIP3   OH231784   3.453   3.931  17.089  0.1776  0.2718  0.7732
 2530TIP3    H131785   3.502   3.884  17.021 -1.1103 -0.9816  0.6436
 2530TIP3    H231786   3.413   3.861  17.141 -0.7157  1.2336  1.4087
 2531TIP3   OH231787   4.755   6.530  15.128  0.2526 -0.2056 -0.2180
 2531TIP3    H131788   4.662   6.551  15.140  0.1009  0.2344 -1.9348
 2531TIP3    H231789   4.781   6.579  15.050  1.8910 -0.4665  0.1278
 2532TIP3   OH231790   6.259   4.917  14.086 -0.2902  0.0098 -0.2576
 2532TIP3    H131791   6.234   4.936  13.996  0.4532 -1.6146 -0.8609
 2532TIP3    H231792   6.280   4.823  14.085 -2.1463 -0.5396  2.0409
 2533TIP3   OH231793   2.966   5.593  14.238  0.1519 -0.0628 -0.1986
 2533TIP3    H131794   2.986   5.535  14.311  0.5115 -0.0824 -0.3136
 2533TIP3    H231795   2.941   5.676  14.280  3.6647  1.0703 -0.0483
 2534TIP3   OH231796   4.046   5.847  16.621  0.2189  0.0071  0.3438
 2534TIP3    H131797   4.065   5.865  16.529  1.9621  1.0496  0.8514
 2534TIP3    H231798   4.048   5.751  16.628 -1.3928 -0.1624 -0.9366
 2535TIP3   OH231799   6.595   3.681  14.539 -0.4699 -0.2781  0.5549
 2535TIP3    H131800   6.604   3.769  14.504  0.7866 -1.1494 -1.4993
 2535TIP3    H231801   6.503   3.658  14.524 -0.7777  0.6204  1.0121
 2536TIP3   OH231802   3.249   4.040  15.930  0.6712  0.2477 -0.1103
 2536TIP3    H131803   3.231   4.129  15.963  2.6254  0.2145  1.2319
 2536TIP3    H231804   3.255   3.987  16.009 -1.1367 -1.2843 -0.9254
 2537TIP3   OH231805   0.172   2.734  14.961 -0.1423  0.0640  0.0204
 2537TIP3    H131806   0.176   2.812  15.016 -1.6281 -1.1948  2.0579
 2537TIP3    H231807   0.144   2.664  15.020 -1.8593 -1.4145 -2.3469
 2538TIP3   OH231808   2.339   5.231  15.492  0.0912  0.2204 -0.5724
 2538TIP3    H131809   2.286   5.304  15.460 -0.6952 -0.7475 -1.5699
 2538TIP3    H231810   2.320   5.225  15.585  0.5701  1.6028 -0.3725
 2539TIP3   OH231811   4.205   0.079  15.565 -0.4774  0.3165 -0.0592
 2539TIP3    H131812   4.162   0.161  15.542  0.3090  0.7350 -0.0866
 2539TIP3    H231813   4.153   0.011  15.523 -1.3149  0.7771  0.2196
 2540TIP3   OH231814   0.359   0.594  16.637 -0.3749 -0.0463 -0.0261
 2540TIP3    H131815   0.394   0.509  16.662  2.4271  1.0533  0.1753
 2540TIP3    H231816   0.354   0.591  16.542 -0.5111 -0.5097 -0.0056
 2541TIP3   OH231817   1.012   3.039  15.156  0.5990  0.1244 -1.1356
 2541TIP3    H131818   0.924   3.066  15.181  1.1659  2.1114 -1.1594
 2541TIP3    H231819   1.000   2.951  15.120 -1.0337 -0.5783  0.9067
 2542TIP3   OH231820   2.664   3.552  14.451  0.2636 -0.1161 -0.0224
 2542TIP3    H131821   2.637   3.545  14.542 -0.4476  0.2657 -0.1915
 2542TIP3    H231822   2.712   3.471  14.433  1.4849  0.3502  1.0333
 2543TIP3   OH231823   4.824   4.219  15.621  0.6216  0.0818  0.0141
 2543TIP3    H131824   4.780   4.295  15.585 -0.1520 -0.3767 -0.0225
 2543TIP3    H231825   4.759   4.149  15.618  1.5363 -0.7674 -0.6035
 2544TIP3   OH231826   2.044   2.494  16.550 -0.3431 -0.1978 -0.2161
 2544TIP3    H131827   1.988   2.494  16.473 -0.3943  2.5294 -0.2592
 2544TIP3    H231828   2.109   2.562  16.533 -0.5030  0.6539  2.2318
 2545TIP3   OH231829   2.149   3.458  15.252  0.0893  0.1852 -0.1440
 2545TIP3    H131830   2.198   3.519  15.197 -0.4765  0.0700 -0.7935
 2545TIP3    H231831   2.061   3.495  15.256 -0.4104 -0.8651 -1.0087
 2546TIP3   OH231832   6.287   5.630  16.539  0.5330  0.3437 -0.2924
 2546TIP3    H131833   6.341   5.576  16.481 -0.2242  0.4989 -1.1646
 2546TIP3    H231834   6.249   5.697  16.482 -2.4183 -1.1111 -0.2672
 2547TIP3   OH231835   4.401   2.207  16.810 -0.8028 -0.5911 -0.0100
 2547TIP3    H131836   4.320   2.253  16.790 -0.4940 -0.9755 -2.5222
 2547TIP3    H231837   4.378   2.114  16.805 -0.1651 -0.7121 -1.2482
 2548TIP3   OH231838   5.450   3.435  15.157 -0.4697 -0.3013 -0.4620
 2548TIP3    H131839   5.506   3.445  15.234  0.4050  0.1801 -1.1342
 2548TIP3    H231840   5.403   3.352  15.172  0.9583 -1.1036 -0.1938
 2549TIP3   OH231841   3.331   0.818  15.306 -0.0221 -0.6381  0.3243
 2549TIP3    H131842   3.358   0.740  15.355 -0.0672  0.6167  2.4460
 2549TIP3    H231843   3.399   0.882  15.323  0.4727 -0.4067 -2.1215
 2550TIP3   OH231844   3.670   4.245  16.376  0.0821  0.3483 -0.1245
 2550TIP3    H131845   3.611   4.178  16.343 -0.9163  1.1382  0.0282
 2550TIP3    H231846   3.687   4.220  16.467 -0.1291  0.1879 -0.1297
 2551TIP3   OH231847   4.797   2.402  16.349 -0.7140  0.0091  0.2515
 2551TIP3    H131848   4.787   2.309  16.330  0.4224  0.4212 -2.8913
 2551TIP3    H231849   4.720   2.443  16.310 -0.8537  0.4747  1.0006
 2552TIP3   OH231850   5.539   3.261  16.695  0.5134  0.5595 -0.6914
 2552TIP3    H131851   5.447   3.287  16.697 -0.0825 -1.3756 -0.4552
 2552TIP3    H231852   5.572   3.281  16.783 -1.0681 -2.9730  0.9343
 2553TIP3   OH231853   0.488   3.305  14.662 -0.5068 -0.7580 -0.2512
 2553TIP3    H131854   0.436   3.298  14.742 -0.6540  0.4913 -0.2158
 2553TIP3    H231855   0.424   3.301  14.591 -0.4447 -1.1338 -0.2924
 2554TIP3   OH231856   0.877   5.108  16.138 -0.6845 -0.5270  0.1020
 2554TIP3    H131857   0.839   5.152  16.214 -0.7648  0.3122 -0.4111
 2554TIP3    H231858   0.863   5.015  16.155  1.2891 -0.5179  2.1637
 2555TIP3   OH231859   2.013   1.135  15.889  0.1665  0.5511 -0.2531
 2555TIP3    H131860   1.953   1.064  15.910 -0.9268  1.2153 -1.0435
 2555TIP3    H231861   2.000   1.200  15.959  1.7931 -0.3525  0.9581
 2556TIP3   OH231862   5.250   5.504  16.034  0.3144 -0.2745  0.2701
 2556TIP3    H131863   5.161   5.519  16.003 -0.1109 -0.8993  1.1613
 2556TIP3    H231864   5.256   5.409  16.045  0.7927 -0.1564  1.1000
 2557TIP3   OH231865   4.679   6.167  16.050 -0.6258 -0.0738 -0.1619
 2557TIP3    H131866   4.667   6.122  16.134 -0.1499 -0.4439 -0.2873
 2557TIP3    H231867   4.653   6.103  15.985 -0.6214  0.0813 -0.3164
 2558TIP3   OH231868   1.862   0.562  15.447 -0.0098  0.4877  0.4827
 2558TIP3    H131869   1.820   0.634  15.495 -1.1740  0.8017 -0.9344
 2558TIP3    H231870   1.951   0.559  15.481 -0.5747  1.1446  2.1474
 2559TIP3   OH231871   5.925   5.294  15.673  0.7794 -0.2474  0.0921
 2559TIP3    H131872   5.921   5.228  15.742  0.4054 -0.2492  0.0708
 2559TIP3    H231873   5.884   5.253  15.597 -0.5562  0.4103  0.4166
 2560TIP3   OH231874   6.299   3.551  15.430  0.3155  0.5906 -0.6470
 2560TIP3    H131875   6.382   3.574  15.388  1.1257 -1.2134 -0.0999
 2560TIP3    H231876   6.314   3.566  15.523 -0.1223  0.6613 -0.5871
 2561TIP3   OH231877   5.443   4.002  16.630  0.4722  0.2804  0.2313
 2561TIP3    H131878   5.518   3.959  16.670  1.2574  2.1530  0.8634
 2561TIP3    H231879   5.402   3.933  16.577  1.2302 -1.4254  1.7290
 2562TIP3   OH231880   0.900   1.461  15.330  0.1126  0.0139  0.0046
 2562TIP3    H131881   0.840   1.396  15.293  0.3226 -0.3033  0.2220
 2562TIP3    H231882   0.891   1.450  15.425 -0.3714  0.7769  0.0584
 2563TIP3   OH231883   3.267   1.738  15.760 -0.3358 -0.5214  0.0318
 2563TIP3    H131884   3.232   1.778  15.680 -1.0174 -0.6002  0.2781
 2563TIP3    H231885   3.189   1.706  15.806  0.0795 -0.7908  0.5580
 2564TIP3   OH231886   5.191   2.524  14.720  0.5580  0.5191 -0.4690
 2564TIP3    H131887   5.120   2.588  14.724 -2.0886 -2.1754 -0.9300
 2564TIP3    H231888   5.196   2.499  14.628  2.9729  1.4179 -0.6590
 2565TIP3   OH231889   4.409   2.762  14.168  0.2017 -0.0620 -0.2103
 2565TIP3    H131890   4.342   2.760  14.236  0.0930 -0.5633 -0.3232
 2565TIP3    H231891   4.376   2.824  14.103 -0.4337 -0.7250 -0.5350
 2566TIP3   OH231892   4.339   0.866  14.916  0.0152 -0.1263  0.0041
 2566TIP3    H131893   4.374   0.835  15.000 -0.2726 -0.0080  0.1696
 2566TIP3    H231894   4.346   0.790  14.858  1.1286  0.0771 -0.1558
 2567TIP3   OH231895   3.711   5.705  14.369  0.0394 -0.8049  0.3925
 2567TIP3    H131896   3.747   5.793  14.376 -0.4412 -0.5527 -0.1567
 2567TIP3    H231897   3.785   5.649  14.348  0.3484 -0.5318  0.7580
 2568TIP3   OH231898   1.970   5.735  16.896  0.0722  0.5130  0.1878
 2568TIP3    H131899   1.974   5.801  16.965  0.7241 -0.3219  0.9697
 2568TIP3    H231900   2.051   5.684  16.907  0.6958  0.9832 -1.8321
 2569TIP3   OH231901   4.058   0.873  15.042  0.1321  0.1783  0.0409
 2569TIP3    H131902   4.035   0.960  15.073 -0.3851  0.5107 -1.2123
 2569TIP3    H231903   4.131   0.886  14.982 -0.6832 -0.0830 -1.0495
 2570TIP3   OH231904   2.129   4.255  16.048  0.1789 -0.4566  0.0751
 2570TIP3    H131905   2.074   4.331  16.069 -0.6982 -1.3020  0.9215
 2570TIP3    H231906   2.212   4.273  16.092  0.8465  1.1073 -1.6960
 2571TIP3   OH231907   3.740   2.570  15.650 -0.3543 -0.0295 -0.4567
 2571TIP3    H131908   3.726   2.595  15.742  1.3905 -3.2314  0.8362
 2571TIP3    H231909   3.657   2.530  15.624 -0.3157 -0.6784  0.3556
 2572TIP3   OH231910   2.914   3.535  15.231 -0.4037  0.0493  0.0706
 2572TIP3    H131911   2.877   3.493  15.153 -0.9130  1.8155 -0.6710
 2572TIP3    H231912   3.007   3.513  15.227 -0.3732  0.3454 -1.2005
 2573TIP3   OH231913   2.767   4.032  14.436 -0.2720 -0.1315  0.0132
 2573TIP3    H131914   2.767   3.946  14.393 -0.5644 -0.2267  0.2004
 2573TIP3    H231915   2.827   4.085  14.383 -1.7932  0.2265 -1.4436
 2574TIP3   OH231916   4.281   2.493  13.921  0.4644 -0.5399  0.6336
 2574TIP3    H131917   4.216   2.543  13.971  1.7511  0.7133  1.1219
 2574TIP3    H231918   4.241   2.481  13.835 -0.5237 -0.0237  0.9969
 2575TIP3   OH231919   5.832   3.017  16.135  0.4168  0.1334  0.1230
 2575TIP3    H131920   5.769   3.083  16.165 -1.3324 -1.3193 -0.2043
 2575TIP3    H231921   5.893   3.009  16.208  0.2197  1.5362  0.4836
 2576TIP3   OH231922   5.114   5.624  15.670  0.2507  0.6954 -0.1095
 2576TIP3    H131923   5.195   5.672  15.688  0.8199 -0.4285  0.4312
 2576TIP3    H231924   5.139   5.561  15.602  0.2211 -0.6414  1.0835
 2577TIP3   OH231925   2.919   4.914  15.710  0.0192 -0.6032  0.1029
 2577TIP3    H131926   2.882   4.849  15.770  0.2817 -0.0761  0.8650
 2577TIP3    H231927   2.922   4.995  15.762 -0.0610 -0.0500 -0.7397
 2578TIP3   OH231928   5.772   5.917  13.708 -0.3165 -0.2058 -0.2043
 2578TIP3    H131929   5.780   5.901  13.614  0.8786  0.6913 -0.2880
 2578TIP3    H231930   5.863   5.929  13.738 -0.7249  0.2299  0.9214
 2579TIP3   OH231931   4.947   4.597  14.444 -0.5906  0.3136  0.6104
 2579TIP3    H131932   4.993   4.680  14.434  0.5470 -0.3909 -0.2734
 2579TIP3    H231933   4.923   4.593  14.536 -0.4704  1.5199  0.7049
 2580TIP3   OH231934   4.886   0.194  16.833 -0.2811  0.4998 -0.3958
 2580TIP3    H131935   4.857   0.158  16.917  0.2660 -0.9735 -0.7974
 2580TIP3    H231936   4.894   0.117  16.776 -1.7239  1.5717 -2.1482
 2581TIP3   OH231937   2.555   2.040  15.706  0.1266 -0.2313  0.5639
 2581TIP3    H131938   2.618   2.076  15.644 -0.3322  0.5550  0.5428
 2581TIP3    H231939   2.577   2.080  15.790  1.5250 -2.2161  1.2209
 2582TIP3   OH231940   2.520   0.874  17.037 -0.3475 -0.5391 -0.1040
 2582TIP3    H131941   2.428   0.851  17.020 -0.5764 -0.3500  0.8014
 2582TIP3    H231942   2.543   0.933  16.966 -0.4574 -1.7539 -1.1831
 2583TIP3   OH231943   0.019   3.209  14.463 -0.7159 -0.0563 -0.9996
 2583TIP3    H131944  -0.063   3.170  14.495 -0.1216 -1.4557 -1.1096
 2583TIP3    H231945  -0.007   3.257  14.385 -1.7830  1.4002  0.1817
 2584TIP3   OH231946   0.969   0.511  14.210 -0.6412  0.0108 -0.1240
 2584TIP3    H131947   1.031   0.438  14.209 -0.9650 -0.2795 -1.5998
 2584TIP3    H231948   0.888   0.475  14.172 -0.3901  1.4405 -2.2205
 2585TIP3   OH231949   2.502   0.731  15.726 -0.5184  0.4062  0.1591
 2585TIP3    H131950   2.425   0.771  15.686 -1.1327  1.3689  2.1397
 2585TIP3    H231951   2.516   0.782  15.806  2.4681  0.5438 -0.3337
 2586TIP3   OH231952   2.003   2.224  16.232 -0.0153 -0.3374  0.1752
 2586TIP3    H131953   1.924   2.186  16.192 -0.6286  0.1387  0.9034
 2586TIP3    H231954   1.984   2.223  16.326  0.9945 -0.5270  0.3821
 2587TIP3   OH231955   4.391   5.144  14.734  0.1056 -0.1949  0.7261
 2587TIP3    H131956   4.380   5.233  14.769  0.0585 -0.1423  0.5797
 2587TIP3    H231957   4.369   5.152  14.641  0.8260 -0.2130  0.5481
 2588TIP3   OH231958   3.752   0.432  14.622 -0.1430  0.3698 -0.1478
 2588TIP3    H131959   3.824   0.432  14.559 -0.4727 -0.8069 -0.5526
 2588TIP3    H231960   3.695   0.504  14.594 -0.2249 -0.0636 -1.1427
 2589TIP3   OH231961   2.082   2.600  14.796  0.5297  0.4404  0.6445
 2589TIP3    H131962   2.086   2.650  14.714  0.9426 -1.6161 -0.6578
 2589TIP3    H231963   2.005   2.543  14.785  0.1915  0.6108  1.9897
 2590TIP3   OH231964   1.357   5.410  15.795 -0.0795 -0.4407  0.4116
 2590TIP3    H131965   1.362   5.417  15.699 -0.5831  0.8940  0.4515
 2590TIP3    H231966   1.334   5.319  15.812 -0.7801 -0.5030 -0.7847
 2591TIP3   OH231967   5.770   5.594  15.737  0.2600  0.6689  0.0658
 2591TIP3    H131968   5.729   5.674  15.769 -0.5134 -0.0654  0.9639
 2591TIP3    H231969   5.717   5.569  15.661 -0.9349 -0.1859  1.1229
 2592TIP3   OH231970   1.557   3.679  15.586  0.7469  0.0861  0.1494
 2592TIP3    H131971   1.525   3.606  15.640  2.8941  0.9186  2.7537
 2592TIP3    H231972   1.479   3.733  15.572 -0.5725 -1.8609 -0.5688
 2593TIP3   OH231973   3.431   2.441  15.020  0.0112  0.1616  0.0346
 2593TIP3    H131974   3.396   2.363  14.976 -0.6300  0.5813 -0.2158
 2593TIP3    H231975   3.373   2.454  15.095  0.6228 -0.0875  0.5538
 2594TIP3   OH231976   3.507   1.310  15.679 -0.0652  0.4267 -0.1480
 2594TIP3    H131977   3.539   1.264  15.757  0.0394 -1.3554 -1.1902
 2594TIP3    H231978   3.463   1.388  15.714 -0.2088 -0.4236  1.7074
 2595TIP3   OH231979   0.024   5.977  15.442  0.0987 -0.8619 -0.4004
 2595TIP3    H131980   0.077   6.016  15.373  2.9238  0.6230  2.3713
 2595TIP3    H231981   0.075   5.901  15.472  0.2578 -0.0057  1.6569
 2596TIP3   OH231982   6.505   2.862  14.137 -0.6020 -0.3311 -0.4422
 2596TIP3    H131983   6.499   2.794  14.204  0.7848  0.1260  0.1925
 2596TIP3    H231984   6.520   2.814  14.055 -0.7373 -0.8314 -0.1764
 2597TIP3   OH231985   2.372   3.195  14.771 -0.1939 -0.1697  0.5407
 2597TIP3    H131986   2.379   3.100  14.764  1.9104  0.0342 -0.8083
 2597TIP3    H231987   2.361   3.212  14.864  1.6877 -1.6498  1.0804
 2598TIP3   OH231988   4.698   1.849  13.789 -0.6198 -0.1476 -0.4053
 2598TIP3    H131989   4.791   1.871  13.778 -1.0689  1.3038 -1.7397
 2598TIP3    H231990   4.695   1.754  13.786  0.8890 -0.2387  0.2907
 2599TIP3   OH231991   0.327   2.744  14.156  0.1256  0.3082 -0.0565
 2599TIP3    H131992   0.276   2.802  14.212 -2.1697 -0.5065 -1.1796
 2599TIP3    H231993   0.267   2.719  14.086  2.6231  0.6731 -2.5150
 2600TIP3   OH231994   5.687   2.816  15.767  0.1663  0.4114  0.1565
 2600TIP3    H131995   5.708   2.840  15.677 -0.7757 -1.2599 -0.5608
 2600TIP3    H231996   5.751   2.864  15.820  1.3394  0.7192 -1.4430
 2601TIP3   OH231997   2.205   2.991  16.781  0.4321 -0.4950 -0.0431
 2601TIP3    H131998   2.224   3.050  16.708 -1.8692  0.4395  0.0243
 2601TIP3    H231999   2.248   3.033  16.857  1.1363 -0.3995 -0.4870
 2602TIP3   OH232000   4.492   2.459  14.918 -0.2338 -0.1347  0.2087
 2602TIP3    H132001   4.409   2.467  14.966 -0.0762  1.0940  0.2824
 2602TIP3    H232002   4.557   2.502  14.974  0.0486  0.8438 -0.8397
 2603TIP3   OH232003   3.790   3.463  15.165  0.2531  0.0960 -0.6158
 2603TIP3    H132004   3.872   3.495  15.202 -0.3622  1.6730 -0.5360
 2603TIP3    H232005   3.722   3.497  15.223 -0.6092  1.1105 -2.1397
 2604TIP3   OH232006   3.614   5.282  13.830  0.1477 -0.3129 -0.1564
 2604TIP3    H132007   3.639   5.324  13.748  0.3075 -0.5850 -0.2506
 2604TIP3    H232008   3.690   5.293  13.887  0.0508 -0.1569 -0.0580
 2605TIP3   OH232009   5.442   1.850  14.805 -0.1144  0.1465  0.0553
 2605TIP3    H132010   5.477   1.840  14.894 -0.6886  0.0858  0.2789
 2605TIP3    H232011   5.426   1.943  14.796 -2.7883 -0.1279  1.1019
 2606TIP3   OH232012   0.620   6.423  15.946  0.3302  0.9031 -0.2921
 2606TIP3    H132013   0.693   6.479  15.973 -0.1306  0.6477  1.6128
 2606TIP3    H232014   0.662   6.349  15.901  1.4736 -0.0054  2.0432
 2607TIP3   OH232015   3.423   4.861  15.112  0.4862 -0.2497 -0.1965
 2607TIP3    H132016   3.379   4.920  15.173  1.1512 -1.6406  1.7307
 2607TIP3    H232017   3.512   4.854  15.146  1.4710  0.3383 -2.4313
 2608TIP3   OH232018   3.709   3.179  15.387 -0.2436 -0.3116  0.2621
 2608TIP3    H132019   3.688   3.202  15.296  0.6340  0.6610  0.2826
 2608TIP3    H232020   3.640   3.222  15.438  0.2186  0.5775  0.1555
 2609TIP3   OH232021   5.261   1.739  17.142  0.0695  0.5696  0.4055
 2609TIP3    H132022   5.174   1.752  17.105 -1.2391 -2.9858  1.7512
 2609TIP3    H232023   5.247   1.740  17.237  1.2342 -1.0844  0.6456
 2610TIP3   OH232024   4.378   1.864  16.448  0.1177 -0.1693  0.5844
 2610TIP3    H132025   4.374   1.934  16.513  0.2468  1.3277 -0.9575
 2610TIP3    H232026   4.295   1.871  16.401  0.3742 -0.7053  0.0458
 2611TIP3   OH232027   3.115   0.255  15.246 -0.1827  0.0045 -0.0416
 2611TIP3    H132028   3.189   0.222  15.297 -0.4141 -0.8742 -0.2518
 2611TIP3    H232029   3.089   0.336  15.290  0.2419 -0.2297  0.6539
 2612TIP3   OH232030   5.755   3.766  16.434 -0.0075  0.2509 -0.1177
 2612TIP3    H132031   5.766   3.820  16.355 -1.0582  1.4901  0.5466
 2612TIP3    H232032   5.714   3.686  16.402 -0.3553  0.7113 -0.8503
 2613TIP3   OH232033   1.493   5.131  16.257  0.4232 -0.4873  0.1478
 2613TIP3    H132034   1.528   5.210  16.215  3.0015 -1.2425  0.6988
 2613TIP3    H232035   1.466   5.076  16.184  1.2219 -0.2004 -0.3822
 2614TIP3   OH232036   1.288   1.766  15.775  0.1994 -0.7092 -0.0670
 2614TIP3    H132037   1.192   1.763  15.784  0.0978  0.7053 -0.3933
 2614TIP3    H232038   1.311   1.684  15.732 -0.9220 -0.8702 -0.3979
 2615TIP3   OH232039   6.520   4.185  14.144  0.4025  0.3981  0.4397
 2615TIP3    H132040   6.504   4.272  14.106  0.9993 -0.1818 -1.2218
 2615TIP3    H232041   6.441   4.135  14.124  0.2916  0.3892  0.8948
 2616TIP3   OH232042   4.137   3.830  14.018 -0.3723 -0.0439  0.0778
 2616TIP3    H132043   4.127   3.821  13.923 -1.4072  1.6110 -0.0088
 2616TIP3    H232044   4.138   3.741  14.051 -1.0021 -0.6266 -1.4106
 2617TIP3   OH232045   4.989   6.014  15.224  0.0554 -0.4533  0.3964
 2617TIP3    H132046   5.008   6.064  15.304 -1.7958  1.7686 -0.4484
 2617TIP3    H232047   4.915   5.958  15.248 -0.7478  0.4887  0.1877
 2618TIP3   OH232048   0.684   5.350  14.644  0.1889 -0.0860 -0.1886
 2618TIP3    H132049   0.735   5.333  14.724  0.3914  0.5172 -0.1796
 2618TIP3    H232050   0.741   5.408  14.592  0.2128 -0.7673 -0.9350
 2619TIP3   OH232051   3.850   6.026  16.664  0.7874  0.3763  0.3715
 2619TIP3    H132052   3.891   6.110  16.648  0.5169  0.6206  0.9117
 2619TIP3    H232053   3.922   5.963  16.665  1.1263  0.7677  1.0858
 2620TIP3   OH232054   5.317   5.691  17.113 -0.4449 -0.0751  0.0487
 2620TIP3    H132055   5.343   5.725  17.028  1.3981 -0.9615  0.2157
 2620TIP3    H232056   5.399   5.664  17.155 -1.4610 -1.2141  1.4255
 2621TIP3   OH232057   4.637   0.801  17.270  0.1153  0.2462 -0.2611
 2621TIP3    H132058   4.587   0.721  17.285  0.9594 -0.3656 -0.6419
 2621TIP3    H232059   4.717   0.772  17.228  0.5347  1.2759 -0.2077
 2622TIP3   OH232060   1.587   1.170  14.817  0.3086  0.3063  0.4728
 2622TIP3    H132061   1.602   1.247  14.872 -1.7490  0.0802  1.4533
 2622TIP3    H232062   1.576   1.098  14.879  0.2404 -0.4066 -0.3463
 2623TIP3   OH232063   6.481   6.451  16.920 -0.0531 -0.5221 -0.3368
 2623TIP3    H132064   6.548   6.496  16.972 -0.6298  0.0263 -0.0677
 2623TIP3    H232065   6.398   6.487  16.950 -0.3903 -0.0622 -1.7748
 2624TIP3   OH232066   3.526   6.610  16.141  0.2652  0.5721 -0.0860
 2624TIP3    H132067   3.541   6.558  16.220  0.3095  1.2110  0.3358
 2624TIP3    H232068   3.498   6.696  16.174 -1.9048  0.1838 -0.7909
 2625TIP3   OH232069   4.609   0.369  15.742 -0.2469 -0.1284 -0.1935
 2625TIP3    H132070   4.679   0.428  15.712  1.0723 -1.2135  0.6057
 2625TIP3    H232071   4.641   0.281  15.721 -0.9609 -0.6988  1.0022
 2626TIP3   OH232072   2.599   4.614  17.222 -0.0187  0.0961  0.1522
 2626TIP3    H132073   2.687   4.583  17.199 -0.8137 -2.0367 -0.2627
 2626TIP3    H232074   2.553   4.619  17.139 -0.8995 -0.9552  0.5510
 2627TIP3   OH232075   4.534   1.126  14.954  0.3506  0.0893 -0.0191
 2627TIP3    H132076   4.607   1.172  14.995  0.0420  1.0849 -0.5494
 2627TIP3    H232077   4.487   1.086  15.028  0.3266  1.0787  0.5244
 2628TIP3   OH232078   6.115   1.794  16.867  0.4213  0.3618  0.1951
 2628TIP3    H132079   6.104   1.751  16.782  1.4165 -1.4827  0.9410
 2628TIP3    H232080   6.042   1.762  16.919  1.3825 -0.7924  0.8762
 2629TIP3   OH232081   1.254   1.401  16.995 -0.2986 -0.8431 -0.7811
 2629TIP3    H132082   1.218   1.314  16.977 -0.6174 -1.0253  0.6357
 2629TIP3    H232083   1.180   1.460  16.980  0.0181 -0.7465 -2.1195
 2630TIP3   OH232084   4.255   0.345  14.557 -0.2107 -0.0312 -0.5824
 2630TIP3    H132085   4.228   0.288  14.629 -0.5132  0.5556 -0.2234
 2630TIP3    H232086   4.351   0.344  14.560 -0.2225  0.9164  0.5769
 2631TIP3   OH232087   0.462   6.455  16.559 -0.3496 -0.4134  0.4372
 2631TIP3    H132088   0.377   6.426  16.591 -0.0693 -0.9581  0.6958
 2631TIP3    H232089   0.494   6.382  16.507 -2.0517  1.4057 -3.6232
 2632TIP3   OH232090   1.960   1.989  15.938 -0.0100 -0.1423  0.3673
 2632TIP3    H132091   2.039   1.996  15.886  0.8610  0.5913  1.7226
 2632TIP3    H232092   1.893   1.961  15.876  1.0154  0.4531 -1.0820
 2633TIP3   OH232093   4.905   0.832  16.037 -0.1994  0.1742 -0.3221
 2633TIP3    H132094   4.934   0.868  15.953  1.5314  0.1675  0.2301
 2633TIP3    H232095   4.949   0.886  16.103 -0.7129 -0.4681  0.5762
 2634TIP3   OH232096   2.751   0.876  13.393 -0.5909  0.3652 -0.3369
 2634TIP3    H132097   2.740   0.791  13.350 -1.8222  0.3020  0.0621
 2634TIP3    H232098   2.753   0.939  13.322  2.1310 -0.0985 -0.7715
 2635TIP3   OH232099   4.868   4.051  16.733  0.3562  0.8261  0.2814
 2635TIP3    H132100   4.868   4.112  16.807  0.6197  0.5491  0.5060
 2635TIP3    H232101   4.960   4.030  16.718  0.2143 -0.1715  0.7443
 2636TIP3   OH232102   0.134   4.789  16.027  0.1200 -0.4786 -1.0231
 2636TIP3    H132103   0.173   4.846  15.961  1.9894  1.4075  1.4715
 2636TIP3    H232104   0.055   4.835  16.056  0.6050 -0.0481 -0.3358
 2637TIP3   OH232105   3.145   5.219  16.252  0.0402 -0.0480 -0.3462
 2637TIP3    H132106   3.143   5.314  16.237 -1.0945  0.2068  1.1016
 2637TIP3    H232107   3.219   5.206  16.312 -0.8285  0.2044  0.8309
 2638TIP3   OH232108   4.259   4.174  14.642  0.1273  0.1187 -0.0484
 2638TIP3    H132109   4.207   4.113  14.590 -0.4109  0.4279  0.1171
 2638TIP3    H232110   4.328   4.204  14.583  0.0328 -0.1862 -0.3152
 2639TIP3   OH232111   0.269   1.605  15.253 -0.2294  0.3465 -0.3463
 2639TIP3    H132112   0.324   1.578  15.327 -1.1437  1.1923  0.6659
 2639TIP3    H232113   0.330   1.612  15.179  0.9305  0.7175  0.6194
 2640TIP3   OH232114   2.225   0.343  14.236 -0.0077 -0.1299 -0.4276
 2640TIP3    H132115   2.250   0.417  14.181 -0.0686  1.4899  1.6204
 2640TIP3    H232116   2.304   0.324  14.287 -0.3281 -0.7413 -0.1462
 2641TIP3   OH232117   0.526   6.373  13.731 -0.9413  0.5903  0.0575
 2641TIP3    H132118   0.542   6.309  13.800 -0.7968  1.1104  0.5203
 2641TIP3    H232119   0.507   6.321  13.653  0.9927 -0.0433 -0.0441
 2642TIP3   OH232120   5.474   4.177  14.143 -0.1209  0.3242 -0.5455
 2642TIP3    H132121   5.431   4.234  14.078  0.7191 -0.0835 -1.4832
 2642TIP3    H232122   5.557   4.153  14.102 -0.1239 -0.9632  0.1655
 2643TIP3   OH232123   4.525   1.370  16.807 -0.0386 -0.5328  0.5517
 2643TIP3    H132124   4.502   1.460  16.783  0.9547 -0.5132 -0.4234
 2643TIP3    H232125   4.616   1.377  16.839 -0.2444 -1.0698  1.2819
 2644TIP3   OH232126   0.935   5.462  13.614  0.0087  0.2368  0.2006
 2644TIP3    H132127   0.972   5.474  13.526 -0.0318  0.6253  0.2343
 2644TIP3    H232128   0.988   5.518  13.670 -0.8643  1.1022  0.1860
 2645TIP3   OH232129   5.999   3.814  15.824  0.0354  0.0537  0.0131
 2645TIP3    H132130   5.960   3.902  15.823 -0.8184 -0.3173 -1.1559
 2645TIP3    H232131   6.092   3.829  15.804 -0.3796  0.5969 -1.6819
 2646TIP3   OH232132   0.180   2.385  14.387 -0.2672 -0.5052 -0.6334
 2646TIP3    H132133   0.243   2.457  14.379  0.4417 -0.9500  0.7310
 2646TIP3    H232134   0.210   2.321  14.322 -0.3728  0.0350 -1.2259
 2647TIP3   OH232135   1.147   6.066  15.807 -0.5748  0.0941 -0.0846
 2647TIP3    H132136   1.122   6.134  15.870  0.1603 -1.1602  1.6317
 2647TIP3    H232137   1.154   5.986  15.859 -2.0897 -1.4996 -2.1507
 2648TIP3   OH232138   0.300   2.270  16.429  0.2083 -0.1238  0.4782
 2648TIP3    H132139   0.243   2.227  16.493 -0.1818  0.4397  0.5155
 2648TIP3    H232140   0.316   2.357  16.465  1.1037 -0.2714  0.4657
 2649TIP3   OH232141   6.603   6.234  15.535 -0.1062 -0.4658 -0.3986
 2649TIP3    H132142   6.588   6.192  15.450 -1.2165 -1.7435  0.3833
 2649TIP3    H232143   6.667   6.177  15.579 -0.1070 -0.2274 -0.0870
 2650TIP3   OH232144   3.970   4.591  15.242 -0.1423  0.3272  0.2853
 2650TIP3    H132145   3.972   4.512  15.296  2.6344 -0.1211 -0.3107
 2650TIP3    H232146   3.967   4.559  15.152  0.5125  0.8839  0.0547
 2651TIP3   OH232147   3.235   3.166  14.827 -0.8142 -0.1420 -0.4106
 2651TIP3    H132148   3.213   3.243  14.880 -2.7056  1.1015 -2.8238
 2651TIP3    H232149   3.322   3.141  14.858 -1.2245  1.2957  2.2940
 2652TIP3   OH232150   5.753   4.763  14.432 -0.2337  0.2259  0.3412
 2652TIP3    H132151   5.786   4.831  14.491  1.5504  0.1292 -0.4638
 2652TIP3    H232152   5.707   4.701  14.489 -0.6805  1.3832  1.2689
 2653TIP3   OH232153   3.798   2.169  16.397  0.1537 -0.3297 -0.6335
 2653TIP3    H132154   3.782   2.086  16.441 -0.5838 -0.4552 -1.1214
 2653TIP3    H232155   3.715   2.216  16.403  0.0154 -0.3637 -1.9125
 2654TIP3   OH232156   3.672   6.278  14.739 -0.3706 -0.4198 -0.4215
 2654TIP3    H132157   3.622   6.292  14.659 -0.1313  0.8526 -0.3707
 2654TIP3    H232158   3.616   6.220  14.792 -0.5646 -1.2103 -1.4490
 2655TIP3   OH232159   1.357   0.246  16.392 -0.5138 -0.7176 -0.2021
 2655TIP3    H132160   1.429   0.273  16.450  1.5089 -0.9485 -2.4451
 2655TIP3    H232161   1.333   0.159  16.423 -1.9364  0.4782  2.3967
 2656TIP3   OH232162   6.387   3.467  15.993 -0.3519 -0.0272  0.1562
 2656TIP3    H132163   6.297   3.446  15.968 -0.9333 -0.5205  2.4392
 2656TIP3    H232164   6.440   3.431  15.922 -1.7718 -2.7854  0.3377
 2657TIP3   OH232165   2.218   4.301  14.981 -0.3190 -0.1400  0.3210
 2657TIP3    H132166   2.170   4.230  14.938 -0.9082 -0.2250  1.0830
 2657TIP3    H232167   2.180   4.304  15.069  0.1177  0.7295  0.4820
 2658TIP3   OH232168   3.766   3.769  16.796  0.1775 -0.5729 -0.1995
 2658TIP3    H132169   3.701   3.726  16.853 -1.1058 -0.0806 -1.2311
 2658TIP3    H232170   3.716   3.796  16.719  2.1673 -2.9449 -2.5320
 2659TIP3   OH232171   4.628   3.075  14.194 -0.2791  0.1098  0.2911
 2659TIP3    H132172   4.590   3.162  14.186 -1.4672 -0.3681  0.5638
 2659TIP3    H232173   4.613   3.035  14.108 -0.3338 -0.0626  0.3805
 2660TIP3   OH232174   3.596   1.962  16.301  0.1087  0.5759 -0.6196
 2660TIP3    H132175   3.650   1.899  16.348  0.8666  0.3756 -1.7135
 2660TIP3    H232176   3.553   1.911  16.232 -0.9355  0.8690 -0.1985
 2661TIP3   OH232177   3.219   1.905  15.480  0.0276  0.0917 -0.7492
 2661TIP3    H132178   3.235   1.890  15.387  1.1191 -1.4285 -0.3536
 2661TIP3    H232179   3.289   1.964  15.507  0.0906  0.0221 -0.7598
 2662TIP3   OH232180   6.271   0.327  15.914 -0.4003 -0.1033 -0.6959
 2662TIP3    H132181   6.213   0.283  15.851 -0.4940 -0.1853 -0.5522
 2662TIP3    H232182   6.236   0.304  16.000 -1.0452  1.0685 -0.6303
 2663TIP3   OH232183   3.845   2.823  15.010 -0.6478 -0.0709  0.0034
 2663TIP3    H132184   3.826   2.828  15.104 -1.9087 -0.3527 -0.2195
 2663TIP3    H232185   3.930   2.779  15.006  0.1237  1.2509  1.0577
 2664TIP3   OH232186   6.054   6.151  13.602 -0.3870  0.5748 -0.4188
 2664TIP3    H132187   6.092   6.068  13.630 -0.3682  0.2045 -1.5256
 2664TIP3    H232188   5.988   6.171  13.669  0.2254  0.1361  0.3374
 2665TIP3   OH232189   4.663   1.317  17.127  0.5735  0.0471 -0.1695
 2665TIP3    H132190   4.675   1.229  17.162  0.6034 -0.0622 -0.4542
 2665TIP3    H232191   4.700   1.313  17.039  3.0577  1.0567  0.7236
 2666TIP3   OH232192   0.205   1.909  15.815 -0.9118 -0.4981  0.0833
 2666TIP3    H132193   0.276   1.846  15.803 -0.4847 -0.1694  0.8247
 2666TIP3    H232194   0.236   1.989  15.774 -0.9185 -0.3942  0.2809
 2667TIP3   OH232195   0.740   5.723  15.130 -0.6261 -0.3865 -0.2541
 2667TIP3    H132196   0.800   5.775  15.076  1.7136 -0.6702  1.9093
 2667TIP3    H232197   0.756   5.633  15.105 -1.0922 -0.3953 -0.5402
 2668TIP3   OH232198   0.240   0.429  14.247 -0.1973  0.4478 -0.4551
 2668TIP3    H132199   0.215   0.514  14.211 -0.8339  0.1071 -0.8333
 2668TIP3    H232200   0.262   0.375  14.171 -1.1428 -0.1446 -0.3299
 2669TIP3   OH232201   4.178   4.333  14.859  0.1526  0.5779  0.0403
 2669TIP3    H132202   4.174   4.316  14.765  1.6776  0.8999 -0.1147
 2669TIP3    H232203   4.172   4.428  14.867  0.7071  0.6077  0.1973
 2670TIP3   OH232204   5.371   2.065  14.268  0.0176  0.0352 -0.1267
 2670TIP3    H132205   5.355   2.096  14.179  1.4396 -0.8490 -0.7311
 2670TIP3    H232206   5.418   1.982  14.256 -1.8397 -1.3315  1.4273
 2671TIP3   OH232207   6.621   5.835  16.971 -0.4259  0.7945  0.0410
 2671TIP3    H132208   6.575   5.891  16.909 -0.5381  0.4277 -0.2046
 2671TIP3    H232209   6.557   5.769  16.997  0.4252 -0.7152 -1.5433
 2672TIP3   OH232210   1.196   6.529  14.262 -0.2265 -0.9250 -0.2457
 2672TIP3    H132211   1.196   6.493  14.351 -3.2412 -0.3680  0.0792
 2672TIP3    H232212   1.168   6.457  14.206 -1.8284 -0.3791 -0.2027
 2673TIP3   OH232213   5.415   6.124  14.885 -0.0587 -0.4970 -0.3600
 2673TIP3    H132214   5.342   6.163  14.837  1.2763  0.8378 -1.3925
 2673TIP3    H232215   5.489   6.130  14.825  0.8872 -1.9836  0.5933
 2674TIP3   OH232216   5.443   0.494  15.436 -0.4593  0.4793 -0.3235
 2674TIP3    H132217   5.504   0.444  15.383 -0.7159 -0.6383  0.4033
 2674TIP3    H232218   5.468   0.586  15.423  2.3551  0.0213  1.0994
 2675TIP3   OH232219   1.185   5.553  14.802  0.2312  0.0698  0.7874
 2675TIP3    H132220   1.185   5.483  14.867  0.6712 -0.8437 -0.1733
 2675TIP3    H232221   1.103   5.600  14.817 -0.1658 -0.7827  1.3136
 2676TIP3   OH232222   4.731   4.306  15.942  0.1915  0.3132 -0.8735
 2676TIP3    H132223   4.686   4.359  16.008  1.0542  0.0864 -0.0896
 2676TIP3    H232224   4.674   4.230  15.930  0.4183 -0.0625  0.2494
 2677TIP3   OH232225   5.683   2.794  16.134 -0.0658 -0.2466 -0.3876
 2677TIP3    H132226   5.678   2.778  16.228 -0.4683 -1.6659 -0.6298
 2677TIP3    H232227   5.729   2.877  16.126 -2.0272  1.0745  1.1484
 2678TIP3   OH232228   1.496   5.109  15.862 -0.2180 -1.2373  0.7030
 2678TIP3    H132229   1.519   5.178  15.800 -0.8779 -0.5535  1.2075
 2678TIP3    H232230   1.457   5.040  15.809 -2.2651 -0.0031  0.4981
 2679TIP3   OH232231   5.396   1.208  15.627 -0.1403 -0.6016 -0.4730
 2679TIP3    H132232   5.488   1.183  15.618 -0.4571 -1.9275 -0.1349
 2679TIP3    H232233   5.357   1.183  15.543 -0.5450 -1.6669  0.0193
 2680TIP3   OH232234   0.064   1.572  13.965  0.0207 -0.0609 -0.3078
 2680TIP3    H132235   0.004   1.630  13.918  1.5448  1.5956 -0.3221
 2680TIP3    H232236   0.012   1.538  14.038 -1.3450  0.1296 -1.1560
 2681TIP3   OH232237   6.625   1.768  13.857  0.3397 -0.0518  0.3739
 2681TIP3    H132238   6.622   1.858  13.825  0.1446 -0.2921 -0.2943
 2681TIP3    H232239   6.546   1.728  13.822  1.3401 -0.9955 -0.8920
 2682TIP3   OH232240   4.161   5.115  15.553  0.3958 -0.0471  0.3925
 2682TIP3    H132241   4.203   5.099  15.638  0.2729 -0.7220  0.3267
 2682TIP3    H232242   4.216   5.069  15.490 -0.6025 -1.2124  0.3441
 2683TIP3   OH232243   3.429   1.100  14.970 -0.4778  0.2306 -0.3043
 2683TIP3    H132244   3.506   1.064  15.013 -0.7547  2.9851  2.9179
 2683TIP3    H232245   3.457   1.187  14.941 -2.5275  1.7855  2.0116
 2684TIP3   OH232246   4.696   0.971  15.398  0.1588  0.4330 -0.1635
 2684TIP3    H132247   4.658   0.979  15.485  0.0090  0.6718 -0.2495
 2684TIP3    H232248   4.695   1.060  15.363 -1.7771  0.0445 -1.2589
 2685TIP3   OH232249   3.464   2.004  15.547  0.7062  0.1395  0.0930
 2685TIP3    H132250   3.511   2.078  15.585  0.1719 -0.3463  1.7694
 2685TIP3    H232251   3.531   1.939  15.528  0.9605  0.3266  0.3490
 2686TIP3   OH232252   2.989   5.892  16.201  0.2744 -0.3071 -0.3345
 2686TIP3    H132253   2.935   5.969  16.220  0.6992  0.3727 -1.6902
 2686TIP3    H232254   3.076   5.915  16.235  0.0345 -0.8477  0.6588
 2687TIP3   OH232255   4.399   6.490  16.099  0.1947 -0.0998 -0.0381
 2687TIP3    H132256   4.490   6.474  16.074 -0.1774 -0.2084 -1.3858
 2687TIP3    H232257   4.383   6.430  16.171  0.9006 -0.7963 -0.4490
 2688TIP3   OH232258   0.170   0.567  14.584 -0.1182 -0.2222 -0.3482
 2688TIP3    H132259   0.101   0.632  14.598 -0.9852 -1.1038 -0.4542
 2688TIP3    H232260   0.151   0.530  14.498  1.2687  0.4341 -0.9707
 2689TIP3   OH232261   2.584   2.331  14.561  0.6846  0.2261  0.0137
 2689TIP3    H132262   2.656   2.267  14.569  0.7489  0.1557 -0.9973
 2689TIP3    H232263   2.604   2.397  14.627 -0.2282 -1.5654  2.2078
 2690TIP3   OH232264   5.962   6.385  16.527 -0.2742 -0.4322  0.0507
 2690TIP3    H132265   6.006   6.302  16.506  1.0191  0.4539 -0.9026
 2690TIP3    H232266   5.879   6.381  16.480  0.4853 -0.5339 -1.3243
 2691TIP3   OH232267   4.476   6.707  16.707  0.6045  0.6196  0.2864
 2691TIP3    H132268   4.545   6.660  16.755  0.6017 -1.6808 -1.7543
 2691TIP3    H232269   4.396   6.656  16.724  1.0275 -1.9353 -3.9208
 2692TIP3   OH232270   6.271   6.602  14.776  0.1772  0.1338  0.7737
 2692TIP3    H132271   6.247   6.512  14.753 -0.0117  0.1942  0.7274
 2692TIP3    H232272   6.317   6.594  14.859  0.0471  0.0036  0.8347
 2693TIP3   OH232273   2.824   1.845  16.335 -0.3110  0.3650  0.0672
 2693TIP3    H132274   2.815   1.869  16.242 -1.0723  0.4791  0.1641
 2693TIP3    H232275   2.755   1.780  16.349 -1.2030  1.4683  0.9337
 2694TIP3   OH232276   1.788   6.296  14.862  0.2547 -0.0758 -0.1643
 2694TIP3    H132277   1.838   6.353  14.920  0.7764 -0.5271 -0.1656
 2694TIP3    H232278   1.842   6.287  14.784 -0.5776  0.7715 -0.8671
 2695TIP3   OH232279   3.666   4.263  17.124 -0.4934 -0.0737  0.2631
 2695TIP3    H132280   3.585   4.227  17.087  0.0418  0.9555 -2.0504
 2695TIP3    H232281   3.719   4.186  17.144 -0.9069 -0.7013 -0.9328
 2696TIP3   OH232282   0.295   3.949  16.239 -0.2392 -0.6726 -0.0379
 2696TIP3    H132283   0.368   3.926  16.296 -0.1625  1.7088  0.9416
 2696TIP3    H232284   0.220   3.959  16.298 -0.9010 -1.1950 -0.7763
 2697TIP3   OH232285   1.570   2.006  15.232  0.4139 -0.1895 -0.1088
 2697TIP3    H132286   1.548   1.952  15.308 -2.1117 -0.7153 -1.1166
 2697TIP3    H232287   1.489   2.054  15.212  0.8449 -0.3810 -2.6962
 2698TIP3   OH232288   6.299   2.759  15.656 -0.6311  0.2052 -0.2273
 2698TIP3    H132289   6.298   2.734  15.564  0.3108  1.8811 -0.7457
 2698TIP3    H232290   6.341   2.845  15.657 -0.1564  0.0088  1.8286
 2699TIP3   OH232291   5.523   2.492  15.364  0.2841 -0.2968 -0.3612
 2699TIP3    H132292   5.610   2.454  15.353  0.4320 -0.4493  1.1074
 2699TIP3    H232293   5.484   2.442  15.435  0.2841  1.8899  1.2918
 2700TIP3   OH232294   6.535   2.041  14.653 -0.1478 -0.6286 -0.2075
 2700TIP3    H132295   6.489   2.124  14.661 -1.4715 -1.2363 -1.0304
 2700TIP3    H232296   6.606   2.045  14.717 -2.7732 -0.5802  2.9425
 2701TIP3   OH232297   5.934   0.441  16.976  0.0243 -0.0446  0.2786
 2701TIP3    H132298   5.960   0.524  16.937 -1.1034  0.3281  0.2773
 2701TIP3    H232299   5.951   0.376  16.908  0.6341  0.2273  0.1712
 2702TIP3   OH232300   6.405   0.852  17.015 -0.1856 -0.5636  0.2125
 2702TIP3    H132301   6.385   0.911  16.943 -1.3960 -2.1068 -0.7699
 2702TIP3    H232302   6.488   0.811  16.991 -0.8622 -1.4939 -0.6359
 2703TIP3   OH232303   6.003   2.596  14.310  0.1240  0.6751 -0.3443
 2703TIP3    H132304   5.927   2.580  14.365  0.4521 -0.6817 -0.2341
 2703TIP3    H232305   6.017   2.690  14.313 -1.2543  0.8808  0.0199
 2704TIP3   OH232306   1.151   4.086  14.367  0.0962  0.2376 -0.4951
 2704TIP3    H132307   1.228   4.085  14.423 -1.0440  2.3975  1.2384
 2704TIP3    H232308   1.153   4.001  14.321  1.9947 -0.8809  1.5124
 2705TIP3   OH232309   4.924   1.002  14.529  0.2370  0.3547 -0.5047
 2705TIP3    H132310   4.955   0.912  14.516 -1.6729 -0.4487  0.1683
 2705TIP3    H232311   4.875   1.023  14.449 -0.6078  0.2178 -0.0285
 2706TIP3   OH232312   3.541   5.170  15.738  0.5243  0.0015  0.2084
 2706TIP3    H132313   3.461   5.205  15.776 -0.6086 -1.0180 -1.1334
 2706TIP3    H232314   3.546   5.211  15.651  2.1182  0.9550  0.7034
 2707TIP3   OH232315   4.699   6.409  15.582  0.3913  0.3044 -0.3296
 2707TIP3    H132316   4.732   6.374  15.665  0.0659  1.9271  0.5258
 2707TIP3    H232317   4.763   6.381  15.517  1.5122  0.3211  0.7339
 2708TIP3   OH232318   6.545   4.183  16.163  0.2530 -0.3873 -0.0894
 2708TIP3    H132319   6.475   4.150  16.106  0.5618 -1.7028  0.2553
 2708TIP3    H232320   6.511   4.265  16.197  0.7391  1.3957 -3.4879
 2709TIP3   OH232321   6.247   5.495  16.941 -0.1435 -0.1794  0.0924
 2709TIP3    H132322   6.157   5.472  16.918  0.3349  0.3402 -2.5831
 2709TIP3    H232323   6.294   5.411  16.944 -0.1526 -0.2431 -1.2692
 2710TIP3   OH232324   4.823   4.674  16.499  0.2905  0.0864  0.3983
 2710TIP3    H132325   4.820   4.579  16.511  1.9419 -0.4564 -2.4736
 2710TIP3    H232326   4.812   4.710  16.587  0.5346 -2.7737  1.7048
 2711TIP3   OH232327   0.657   2.029  14.901  0.0141  0.5095  0.4775
 2711TIP3    H132328   0.679   2.100  14.961 -1.3255  0.4430  1.0703
 2711TIP3    H232329   0.662   2.069  14.814  0.5180  0.9916  0.7250
 2712TIP3   OH232330   3.559   1.821  13.954  0.0306 -0.1766  0.0809
 2712TIP3    H132331   3.501   1.884  13.912  0.9537  0.1487 -0.7303
 2712TIP3    H232332   3.585   1.761  13.884  2.6169  1.1330 -0.2083
 2713TIP3   OH232333   4.328   2.947  14.544 -0.2928 -0.3695  0.4469
 2713TIP3    H132334   4.419   2.928  14.521 -0.8807 -0.6043 -1.8969
 2713TIP3    H232335   4.322   2.923  14.637  2.0353 -0.2543  0.6992
 2714TIP3   OH232336   2.000   3.159  16.537 -0.3119 -0.4733  0.2831
 2714TIP3    H132337   2.038   3.083  16.494  1.1478 -0.6256  1.7522
 2714TIP3    H232338   2.076   3.207  16.572 -1.2002  1.5571 -0.4395
 2715TIP3   OH232339   1.824   5.582  13.978  0.2700 -0.4090 -0.4679
 2715TIP3    H132340   1.801   5.658  13.925  0.1852  0.4059  0.6855
 2715TIP3    H232341   1.747   5.526  13.976  1.1153 -1.6647 -3.2263
 2716TIP3   OH232342   1.759   0.758  16.991  0.0622 -0.2550 -0.4027
 2716TIP3    H132343   1.773   0.823  16.922  1.9833  0.0856  0.2574
 2716TIP3    H232344   1.663   0.752  16.999 -0.1816  0.7076 -2.1153
 2717TIP3   OH232345   0.921   5.636  14.822 -0.1863 -0.6118  0.1452
 2717TIP3    H132346   0.904   5.692  14.898  1.9717 -0.4021  0.5567
 2717TIP3    H232347   0.887   5.685  14.748  0.1116  0.4535  0.6965
 2718TIP3   OH232348   3.449   6.689  14.220 -0.1097  0.0978 -0.0907
 2718TIP3    H132349   3.392   6.742  14.276  0.1950  1.5840 -1.1358
 2718TIP3    H232350   3.470   6.746  14.146 -0.2571 -1.7117 -1.5909
 2719TIP3   OH232351   6.498   5.963  15.134 -0.0852 -0.2471  0.4408
 2719TIP3    H132352   6.497   6.024  15.207 -1.5733  0.4204 -0.1025
 2719TIP3    H232353   6.544   6.010  15.064 -1.1493  0.2415  0.0528
 2720TIP3   OH232354   3.952   6.298  16.589 -0.1743  0.5684  0.1801
 2720TIP3    H132355   4.007   6.316  16.513  1.2082  2.9515  1.6211
 2720TIP3    H232356   3.976   6.365  16.653 -2.5177 -0.2629  2.0985
 2721TIP3   OH232357   2.314   3.892  15.966  0.2242 -0.0036 -0.1388
 2721TIP3    H132358   2.260   3.879  16.043 -0.3910 -0.3431 -0.6212
 2721TIP3    H232359   2.261   3.947  15.908  0.9836  0.8864 -0.0109
 2722TIP3   OH232360   2.053   0.672  14.205 -0.5166 -0.3357 -0.5152
 2722TIP3    H132361   2.141   0.705  14.186 -0.3206 -0.0851  0.7167
 2722TIP3    H232362   2.021   0.639  14.122  1.0395 -1.1023 -0.8433
 2723TIP3   OH232363   2.399   1.148  16.413 -0.4050  0.2934 -0.4647
 2723TIP3    H132364   2.457   1.219  16.439 -0.5063 -0.2187  1.2447
 2723TIP3    H232365   2.311   1.183  16.428 -0.5019  0.2863 -0.9779
 2724TIP3   OH232366   3.880   5.784  16.223 -0.0600 -0.0942 -0.1310
 2724TIP3    H132367   3.846   5.873  16.232 -0.4132 -0.2635  0.2658
 2724TIP3    H232368   3.961   5.784  16.274 -1.0975 -0.5383  1.6138
 2725TIP3   OH232369   2.685   0.887  16.126 -0.7243 -0.1118 -0.0250
 2725TIP3    H132370   2.608   0.842  16.091 -0.5393  0.0114 -0.6193
 2725TIP3    H232371   2.759   0.841  16.087 -0.5249  1.9495 -2.3902
 2726TIP3   OH232372   3.343   4.562  15.414  0.4533 -0.4854  0.4162
 2726TIP3    H132373   3.336   4.617  15.492 -1.4101  1.3895 -0.9447
 2726TIP3    H232374   3.397   4.614  15.353 -0.3704 -0.6400 -0.4805
 2727TIP3   OH232375   1.822   2.216  16.460  0.2789  0.1326  0.0517
 2727TIP3    H132376   1.758   2.149  16.439 -1.9275  2.1168 -0.0230
 2727TIP3    H232377   1.808   2.235  16.553  1.9081 -0.4945  0.4612
 2728TIP3   OH232378   4.289   6.661  15.126  0.3338  0.7973 -0.3628
 2728TIP3    H132379   4.381   6.648  15.104  0.7451 -0.1745  1.6886
 2728TIP3    H232380   4.287   6.749  15.164  0.5526  0.5931  0.1374
 2729TIP3   OH232381   1.467   3.458  14.642  0.1760  0.0088 -0.2824
 2729TIP3    H132382   1.511   3.453  14.557  0.6040 -0.1927 -0.0544
 2729TIP3    H232383   1.414   3.537  14.637  0.8267  0.4490 -0.4503
 2730TIP3   OH232384   4.944   5.276  16.849  0.5263 -0.1644 -0.1801
 2730TIP3    H132385   4.945   5.343  16.917  3.1988 -0.1837 -0.1130
 2730TIP3    H232386   4.896   5.316  16.776 -0.2836  0.7564  0.8397
 2731TIP3   OH232387   0.829   5.169  16.747 -0.2108  0.1978 -0.3961
 2731TIP3    H132388   0.913   5.210  16.770 -0.8456  0.7291  1.1084
 2731TIP3    H232389   0.839   5.078  16.773  0.0102  0.1893 -0.5065
 2732TIP3   OH232390   2.161   2.661  15.760 -0.0892  0.7683  0.2018
 2732TIP3    H132391   2.190   2.704  15.840  1.6069  0.1028 -0.0252
 2732TIP3    H232392   2.236   2.665  15.701 -1.3312  1.3402 -1.4369
 2733TIP3   OH232393   2.870   4.369  15.738 -0.1754  0.0527  0.3479
 2733TIP3    H132394   2.863   4.283  15.780 -3.0200 -0.0420 -0.1186
 2733TIP3    H232395   2.843   4.431  15.806 -2.8152  0.0715 -0.6117
 2734TIP3   OH232396   6.605   2.810  16.318  0.1539 -0.1940  0.2138
 2734TIP3    H132397   6.517   2.773  16.327 -1.4166  3.1794  0.0016
 2734TIP3    H232398   6.629   2.836  16.407  0.0619  0.6591 -0.0034
 2735TIP3   OH232399   4.261   4.971  15.320  0.0356 -0.1295  0.1522
 2735TIP3    H132400   4.237   4.890  15.364  1.4473 -0.9874 -0.5763
 2735TIP3    H232401   4.233   4.959  15.229 -1.1723  0.8606  0.3711
 2736TIP3   OH232402   1.885   0.521  16.532 -0.0908  0.2532  0.4093
 2736TIP3    H132403   1.927   0.479  16.607  2.0095  1.3239 -0.0870
 2736TIP3    H232404   1.958   0.551  16.477 -1.5067  2.0047 -0.6431
 2737TIP3   OH232405   6.269   1.662  14.411  0.3629 -0.5341 -0.1539
 2737TIP3    H132406   6.306   1.576  14.389 -0.9259 -1.0769 -0.2880
 2737TIP3    H232407   6.175   1.646  14.417  0.0814  0.9309 -0.4244
 2738TIP3   OH232408   4.994   3.019  13.571  0.7161  0.5393 -0.8597
 2738TIP3    H132409   4.935   3.093  13.565 -1.2376 -0.7591  0.9115
 2738TIP3    H232410   5.074   3.054  13.611  0.0264  1.7678 -0.5402
 2739TIP3   OH232411   3.273   2.700  16.349  0.0461 -0.0169  0.4317
 2739TIP3    H132412   3.342   2.693  16.283  0.0261 -0.0530  0.4146
 2739TIP3    H232413   3.271   2.794  16.371  0.6936 -0.1354  1.0553
 2740TIP3   OH232414   6.058   0.460  14.448  0.0053  0.2513  0.5390
 2740TIP3    H132415   6.145   0.484  14.478  0.3693 -0.0427 -0.2565
 2740TIP3    H232416   6.031   0.388  14.505  1.1907 -1.1264 -0.5786
 2741TIP3   OH232417   5.892   6.427  14.623  0.2934 -0.1480  0.1263
 2741TIP3    H132418   5.816   6.485  14.636  0.3205  0.3432 -1.6638
 2741TIP3    H232419   5.859   6.340  14.644 -0.7812  0.0567 -0.6082
 2742TIP3   OH232420   6.454   2.801  16.565 -0.3020  0.4351  0.1436
 2742TIP3    H132421   6.479   2.730  16.624  0.4709  0.6507  0.0810
 2742TIP3    H232422   6.509   2.875  16.591  1.0604  0.1567 -1.6987
 2743TIP3   OH232423   6.657   4.898  14.129 -0.3602 -0.0700  0.3545
 2743TIP3    H132424   6.642   4.955  14.054 -1.8096 -0.7462  0.0925
 2743TIP3    H232425   6.728   4.941  14.178 -0.9746  1.6272 -0.1557
 2744TIP3   OH232426   1.354   5.471  15.535  0.0112  0.4789 -0.3458
 2744TIP3    H132427   1.301   5.416  15.476 -1.3406  1.4007 -0.0320
 2744TIP3    H232428   1.410   5.521  15.476  1.2711 -1.1969 -0.6365
 2745TIP3   OH232429   5.863   2.921  14.597 -0.8369 -0.2824  0.9162
 2745TIP3    H132430   5.862   3.000  14.652  2.4074  1.0948 -0.7390
 2745TIP3    H232431   5.953   2.890  14.602 -1.2853 -2.0787 -0.9484
 2746TIP3   OH232432   0.997   4.186  14.599  0.7174  0.1013 -0.2246
 2746TIP3    H132433   1.006   4.274  14.637 -0.6234  0.7294 -1.2604
 2746TIP3    H232434   1.051   4.188  14.520  1.8213 -0.5003  0.4965
 2747TIP3   OH232435   3.216   1.850  15.204  0.1238 -0.2470  0.4405
 2747TIP3    H132436   3.244   1.780  15.145 -1.7036 -0.4269 -0.2742
 2747TIP3    H232437   3.266   1.926  15.176  1.1348 -0.9288  0.3386
 2748TIP3   OH232438   5.625   0.635  15.156 -0.3872  0.0905  0.3661
 2748TIP3    H132439   5.703   0.634  15.100 -0.7373  0.2772 -0.1319
 2748TIP3    H232440   5.618   0.546  15.190  1.0979  0.4942  1.9072
 2749TIP3   OH232441   5.571   1.113  14.238  0.3329 -0.4135 -0.0169
 2749TIP3    H132442   5.592   1.156  14.156  0.1850 -0.1188  0.0985
 2749TIP3    H232443   5.644   1.135  14.296  0.4815 -0.6948 -0.0945
 2750TIP3   OH232444   0.047   2.464  16.655 -0.2484 -0.7527 -0.1477
 2750TIP3    H132445   0.030   2.462  16.561  1.1672 -0.8206 -0.4079
 2750TIP3    H232446  -0.027   2.514  16.691  0.4951  1.5292 -1.5824
 2751TIP3   OH232447   4.565   2.910  15.938  0.1432 -0.3131 -0.1106
 2751TIP3    H132448   4.635   2.866  15.985  0.0649 -0.2660  0.0537
 2751TIP3    H232449   4.514   2.840  15.898 -0.1175 -0.3865  0.3439
 2752TIP3   OH232450   6.615   2.229  15.371  0.2448 -0.0936  0.2572
 2752TIP3    H132451   6.616   2.135  15.388  0.1688 -0.0396  0.5683
 2752TIP3    H232452   6.684   2.264  15.427  1.5200 -0.1776 -1.1874
 2753TIP3   OH232453   4.901   0.911  17.122  0.1719 -0.5521  0.6410
 2753TIP3    H132454   4.854   0.876  17.046 -2.2261  1.9192  0.8140
 2753TIP3    H232455   4.982   0.946  17.085 -1.0103  0.7491 -0.9290
 2754TIP3   OH232456   4.905   5.399  13.746 -0.3477 -0.2446 -0.5477
 2754TIP3    H132457   4.964   5.402  13.671 -0.5798  1.9108 -0.6952
 2754TIP3    H232458   4.853   5.479  13.740 -1.3088 -0.6729  1.1757
 2755TIP3   OH232459   5.395   1.584  15.858 -0.3967 -0.4749 -0.3091
 2755TIP3    H132460   5.339   1.631  15.797  0.7518  1.0452 -0.2302
 2755TIP3    H232461   5.370   1.617  15.945  1.4736  1.2553 -0.3574
 2756TIP3   OH232462   0.532   4.987  16.078  0.4220  0.0321  0.3295
 2756TIP3    H132463   0.576   5.004  16.161  1.7692  0.1255 -0.3868
 2756TIP3    H232464   0.575   4.908  16.043  0.6935  0.6735 -0.8334
 2757TIP3   OH232465   2.998   5.503  15.547  0.2744 -0.0019 -0.1132
 2757TIP3    H132466   2.930   5.436  15.545  1.0858 -0.9417  1.5145
 2757TIP3    H232467   3.046   5.486  15.628  0.6279  2.4558  0.2650
 2758TIP3   OH232468   0.571   5.317  14.237  0.2208  0.0900 -0.9591
 2758TIP3    H132469   0.574   5.387  14.302  1.5838 -0.0656 -0.8102
 2758TIP3    H232470   0.519   5.248  14.278 -0.7570  0.8321 -0.9256
 2759TIP3   OH232471   3.596   0.356  15.009  0.8944  0.1351  0.2227
 2759TIP3    H132472   3.519   0.312  15.044  0.8839 -1.3459 -1.5725
 2759TIP3    H232473   3.664   0.342  15.076  0.2389 -0.5274  0.7629
 2760TIP3   OH232474   0.238   3.238  15.351 -0.4190  0.0465 -0.3911
 2760TIP3    H132475   0.304   3.175  15.381 -0.9085 -0.6025 -0.6444
 2760TIP3    H232476   0.288   3.309  15.312  0.1857  0.2729  0.7515
 2761TIP3   OH232477   4.314   5.703  15.981  0.2119  0.2798 -0.0573
 2761TIP3    H132478   4.335   5.645  16.054  0.7336 -1.0683 -1.2162
 2761TIP3    H232479   4.399   5.723  15.942  0.1739  2.8371  0.9802
 2762TIP3   OH232480   1.102   1.913  13.928  0.7587  0.0950 -0.1954
 2762TIP3    H132481   1.033   1.860  13.888  1.4977  0.0524 -1.4876
 2762TIP3    H232482   1.076   1.922  14.020  0.2370 -1.8675 -0.1094
 2763TIP3   OH232483   3.006   6.040  15.575  0.6681  0.0877  0.3092
 2763TIP3    H132484   2.967   5.966  15.622  0.3295  0.5312  0.7343
 2763TIP3    H232485   2.952   6.051  15.498  0.3426  0.2826  0.5624
 2764TIP3   OH232486   5.638   5.945  16.396 -0.3044 -0.0595  0.5732
 2764TIP3    H132487   5.563   5.905  16.440  0.3082 -1.7561  0.1597
 2764TIP3    H232488   5.653   6.026  16.444 -2.0888  0.0946  0.9666
 2765TIP3   OH232489   0.627   0.633  16.494 -0.0894  0.0533 -0.1300
 2765TIP3    H132490   0.548   0.606  16.448 -1.4002  0.8395  1.5536
 2765TIP3    H232491   0.637   0.726  16.472  2.2289 -0.6592 -2.8187
 2766TIP3   OH232492   5.935   6.244  14.401 -0.0743  0.2288 -0.6067
 2766TIP3    H132493   5.957   6.242  14.494  0.5898 -1.2795 -0.7732
 2766TIP3    H232494   5.938   6.337  14.378  1.1780  0.5135  0.5549
 2767TIP3   OH232495   4.106   1.218  16.721  0.1881 -0.0733  0.5441
 2767TIP3    H132496   4.177   1.281  16.734  0.9029 -0.6395 -0.4762
 2767TIP3    H232497   4.127   1.146  16.780  1.5782 -1.1150 -1.0967
 2768TIP3   OH232498   2.931   5.756  15.966 -0.2690  0.7344 -0.2329
 2768TIP3    H132499   2.935   5.806  15.883 -1.5492 -0.6965 -1.2025
 2768TIP3    H232500   2.983   5.808  16.027  2.3942  0.8953 -2.4224
 2769TIP3   OH232501   2.945   5.468  15.962  0.3893 -1.1921  0.0067
 2769TIP3    H132502   2.994   5.435  15.887  2.6945 -1.0398  1.3404
 2769TIP3    H232503   2.937   5.562  15.947 -0.4794 -1.3783 -0.7350
 2770TIP3   OH232504   3.397   0.554  14.717  0.0487 -0.3153  0.5510
 2770TIP3    H132505   3.320   0.524  14.765 -0.2993 -0.2897  0.0178
 2770TIP3    H232506   3.453   0.593  14.784 -0.8987  0.6755  0.7877
 2771TIP3   OH232507   4.782   4.221  16.934  0.2564  0.7710  0.3533
 2771TIP3    H132508   4.726   4.288  16.894 -1.1039 -1.4701 -1.7663
 2771TIP3    H232509   4.721   4.151  16.958  1.9718 -1.3144 -1.0400
 2772TIP3   OH232510   1.234   4.120  15.976 -0.0702 -0.3769 -0.0273
 2772TIP3    H132511   1.256   4.213  15.981  0.7135 -0.5583 -0.0021
 2772TIP3    H232512   1.147   4.114  16.015  1.1342 -0.1147  2.9457
 2773TIP3   OH232513   3.111   1.296  15.351 -0.0004  0.3340 -0.0543
 2773TIP3    H132514   3.194   1.337  15.377 -1.5890  3.1410  1.0222
 2773TIP3    H232515   3.135   1.235  15.282  2.8828  1.5095 -0.2280
 2774TIP3   OH232516   3.384   1.450  15.411 -0.2748  0.1107  0.2325
 2774TIP3    H132517   3.406   1.535  15.372  1.0163 -1.2787 -2.3398
 2774TIP3    H232518   3.467   1.419  15.447 -0.8304  0.0702  1.5292
 2775TIP3   OH232519   3.834   6.652  13.405  0.4092 -0.6698  0.3165
 2775TIP3    H132520   3.898   6.582  13.406  2.2144  0.8388 -1.2158
 2775TIP3    H232521   3.754   6.612  13.369  1.3410 -1.9710 -0.3731
 2776TIP3   OH232522   3.319   5.783  15.096 -0.0018  0.4049 -0.5168
 2776TIP3    H132523   3.288   5.694  15.111  1.1654  0.0732 -0.0096
 2776TIP3    H232524   3.414   5.775  15.090  0.0167  1.4093 -1.9875
 2777TIP3   OH232525   3.415   0.995  15.658 -0.2468 -0.4667 -0.4031
 2777TIP3    H132526   3.431   0.989  15.564 -1.0517  0.2412 -0.5980
 2777TIP3    H232527   3.399   1.088  15.674  0.2046 -0.5292  0.4940
 2778TIP3   OH232528   5.012   0.142  13.825  0.7705  0.0625  0.2724
 2778TIP3    H132529   4.964   0.136  13.907 -0.4618 -0.6755 -0.4750
 2778TIP3    H232530   5.045   0.232  13.823  0.5129  0.1952  1.3975
 2779TIP3   OH232531   5.800   0.663  16.676 -0.7051  0.1437 -0.0878
 2779TIP3    H132532   5.744   0.589  16.655 -0.3421 -0.0216 -0.4631
 2779TIP3    H232533   5.805   0.663  16.772  1.3030 -1.8404 -0.1095
 2780TIP3   OH232534   5.364   6.138  15.177  0.4802 -0.0542  0.0569
 2780TIP3    H132535   5.417   6.079  15.232  0.0007 -0.6062 -0.0591
 2780TIP3    H232536   5.373   6.102  15.089  0.2091  0.0626 -0.0184
 2781TIP3   OH232537   1.693   5.998  15.062 -0.0411 -0.3315  0.4167
 2781TIP3    H132538   1.764   5.969  15.006 -1.2672 -0.8639 -0.9249
 2781TIP3    H232539   1.734   6.017  15.146  2.1011  1.8413 -0.9959
 2782TIP3   OH232540   0.416   1.288  15.155 -0.0697  0.0146 -0.0677
 2782TIP3    H132541   0.376   1.280  15.242  0.8744 -1.9382  0.2456
 2782TIP3    H232542   0.418   1.382  15.138  1.0514  0.5631  2.6737
 2783TIP3   OH232543   2.814   6.046  16.915 -0.4531 -0.0150 -0.1913
 2783TIP3    H132544   2.869   5.998  16.854  0.7966 -0.8875  1.5425
 2783TIP3    H232545   2.731   6.057  16.869 -0.1217 -2.0940 -1.4033
 2784TIP3   OH232546   1.991   0.409  16.156 -0.3115  0.5765 -0.4959
 2784TIP3    H132547   1.970   0.333  16.211  1.4564  1.6332  1.7968
 2784TIP3    H232548   1.955   0.387  16.071 -1.2293 -2.1560  0.4854
 2785TIP3   OH232549   3.869   6.545  15.533  0.3915  0.5852 -0.1029
 2785TIP3    H132550   3.957   6.529  15.499 -0.2655 -0.2735 -1.4490
 2785TIP3    H232551   3.831   6.608  15.473 -0.4934 -0.3142 -0.5131
 2786TIP3   OH232552   4.479   3.537  15.568 -0.1022 -0.4359  0.2564
 2786TIP3    H132553   4.477   3.481  15.645 -2.4915  1.3046  1.5963
 2786TIP3    H232554   4.404   3.595  15.578 -0.0933  0.3701 -3.0469
 2787TIP3   OH232555   3.912   2.454  16.549  0.1758  0.1133  0.1713
 2787TIP3    H132556   3.845   2.474  16.483  1.8278  3.4327 -0.7369
 2787TIP3    H232557   3.949   2.540  16.571  0.8631 -1.0559  4.2669
 2788TIP3   OH232558   5.170   4.413  14.428 -0.6383 -0.8843  0.6132
 2788TIP3    H132559   5.172   4.337  14.370  0.0465  0.4511 -1.1904
 2788TIP3    H232560   5.100   4.467  14.394 -2.3746 -1.4682  3.0007
 2789TIP3   OH232561   6.509   0.067  14.701  0.0899  0.5629  0.0278
 2789TIP3    H132562   6.431   0.012  14.691  0.5962 -0.1194 -0.2251
 2789TIP3    H232563   6.494   0.115  14.783  0.0114 -0.5768  0.7016
 2790TIP3   OH232564   5.077   3.378  16.218  0.1787  0.2861  0.2330
 2790TIP3    H132565   5.018   3.342  16.152  1.4583  2.3565 -2.2195
 2790TIP3    H232566   5.031   3.454  16.253  0.4043  0.4782  0.1118
 2791TIP3   OH232567   0.213   0.471  14.847 -0.1221 -0.3453 -0.0776
 2791TIP3    H132568   0.222   0.493  14.755  1.8193 -1.2194 -0.1550
 2791TIP3    H232569   0.126   0.431  14.855 -0.4526  0.0722 -1.4385
 2792TIP3   OH232570   4.443   0.743  16.560 -0.4589 -0.1088 -0.0469
 2792TIP3    H132571   4.528   0.699  16.565  0.1768  1.0453 -0.3652
 2792TIP3    H232572   4.426   0.750  16.466 -1.3578 -1.1288  0.0127
 2793TIP3   OH232573   2.402   5.115  16.731  0.0416  0.1534 -0.5250
 2793TIP3    H132574   2.330   5.136  16.790  0.9035  1.1273  0.2050
 2793TIP3    H232575   2.396   5.179  16.661 -1.5100 -1.5371 -2.0227
 2794TIP3   OH232576   2.812   1.122  15.464 -0.0447  0.3583 -0.2363
 2794TIP3    H132577   2.798   1.099  15.372 -0.0950 -0.7235  0.0252
 2794TIP3    H232578   2.736   1.085  15.510  0.0719  0.7297  0.2655
 2795TIP3   OH232579   5.033   5.763  14.957 -0.0038  0.0640 -0.7050
 2795TIP3    H132580   5.026   5.856  14.935  0.3946  0.7070  1.6327
 2795TIP3    H232581   4.957   5.746  15.013 -0.3886 -1.2031 -1.5513
 2796TIP3   OH232582   1.292   3.530  15.280  0.1819 -0.0227  0.5035
 2796TIP3    H132583   1.246   3.447  15.282 -0.2218  0.1857  0.0524
 2796TIP3    H232584   1.383   3.508  15.300  0.0475 -0.5457  0.5447
 2797TIP3   OH232585   5.765   2.362  15.332 -0.1620  0.2793  0.2837
 2797TIP3    H132586   5.854   2.398  15.322 -0.5165  1.2523  0.5207
 2797TIP3    H232587   5.757   2.299  15.260 -0.1040  1.9125 -1.2295
 2798TIP3   OH232588   5.822   1.704  16.272 -0.2813 -0.5916 -0.3559
 2798TIP3    H132589   5.787   1.691  16.360 -0.4845  2.1369  0.0523
 2798TIP3    H232590   5.883   1.777  16.281 -1.2533  0.6019 -2.6912
 2799TIP3   OH232591   1.674   2.859  16.170 -0.0160  0.0268  0.5589
 2799TIP3    H132592   1.652   2.802  16.096  0.6971  0.4209  0.0355
 2799TIP3    H232593   1.749   2.816  16.212  1.0447  0.9580 -0.3110
 2800TIP3   OH232594   2.001   4.510  16.104 -0.4519 -0.7140  0.2102
 2800TIP3    H132595   2.017   4.600  16.075 -0.1423 -0.3309  1.5107
 2800TIP3    H232596   1.933   4.478  16.044  0.1934  0.0003 -0.9595
 2801TIP3   OH232597   1.255   3.510  14.418  0.6343 -0.2133 -0.1282
 2801TIP3    H132598   1.238   3.536  14.509 -0.9792  2.1854 -1.0242
 2801TIP3    H232599   1.186   3.552  14.367  0.3661 -3.0127 -2.3295
 2802TIP3   OH232600   2.486   5.776  15.111  0.3875  0.4320 -0.1454
 2802TIP3    H132601   2.409   5.731  15.076  0.2476  0.6019 -0.0578
 2802TIP3    H232602   2.498   5.852  15.053 -0.4160  1.2501  0.7267
 2803TIP3   OH232603   4.332   6.290  15.912 -0.4128 -0.5544 -0.3387
 2803TIP3    H132604   4.356   6.346  15.985 -0.1181  0.4025 -1.1493
 2803TIP3    H232605   4.337   6.347  15.835 -1.3855 -1.3564 -1.0226
 2804TIP3   OH232606   3.880   3.638  14.322 -0.5120 -0.2956  0.1675
 2804TIP3    H132607   3.833   3.716  14.291 -2.4786 -0.8614  1.5861
 2804TIP3    H232608   3.972   3.656  14.301 -1.0906  1.7615 -0.8451
 2805TIP3   OH232609   6.331   0.099  15.361  0.2699  0.2503 -0.5853
 2805TIP3    H132610   6.330   0.177  15.307 -1.0514  0.9421  0.3975
 2805TIP3    H232611   6.422   0.067  15.355  0.3150  0.6457 -2.6413
 2806TIP3   OH232612   1.529   4.084  15.581 -0.1267  0.4805  0.0043
 2806TIP3    H132613   1.466   4.078  15.652  0.5209 -1.5728  0.4803
 2806TIP3    H232614   1.479   4.063  15.502 -0.4882  1.1145  0.0534
 2807TIP3   OH232615   1.517   6.706  16.420  0.0836  0.1884  0.0651
 2807TIP3    H132616   1.588   6.708  16.356 -0.2054 -0.0308 -0.2660
 2807TIP3    H232617   1.444   6.666  16.374 -0.3192  0.5912  0.3416
 2808TIP3   OH232618   5.620   2.429  16.248  0.2378 -0.5611 -0.4957
 2808TIP3    H132619   5.676   2.413  16.323 -1.5225 -0.1355  0.9660
 2808TIP3    H232620   5.566   2.504  16.273 -1.3018 -1.2208 -1.6388
 2809TIP3   OH232621   4.511   4.675  14.003 -0.1704 -0.5430 -0.2536
 2809TIP3    H132622   4.526   4.769  14.000  0.3938 -0.6417 -0.6469
 2809TIP3    H232623   4.447   4.658  13.934 -0.9489 -0.3330  0.4051
 2810TIP3   OH232624   1.670   1.291  16.238 -0.0861  0.3107  0.2043
 2810TIP3    H132625   1.608   1.222  16.213  1.0788 -0.7302  0.0984
 2810TIP3    H232626   1.644   1.315  16.327 -1.6594  1.0941 -0.4217
 2811TIP3   OH232627   5.372   1.643  16.786 -0.5851 -0.2021 -0.0130
 2811TIP3    H132628   5.335   1.728  16.811 -1.1663 -0.0650 -1.2200
 2811TIP3    H232629   5.302   1.601  16.736 -0.1155 -1.1842  0.1297
 2812TIP3   OH232630   2.938   5.136  14.518  0.3486  0.1780  0.0750
 2812TIP3    H132631   2.896   5.130  14.433 -1.8188  0.7951  1.0269
 2812TIP3    H232632   2.981   5.222  14.517  0.8972 -0.1042 -0.6302
 2813TIP3   OH232633   2.547   2.127  13.568  0.3069 -0.2265  0.2048
 2813TIP3    H132634   2.584   2.186  13.634  0.4553 -1.0374  0.8594
 2813TIP3    H232635   2.454   2.119  13.593  0.5696 -1.2757  0.8872
 2814TIP3   OH232636   0.882   1.940  14.115 -0.4921  0.3309 -0.3390
 2814TIP3    H132637   0.946   1.981  14.175 -1.0671  0.4699  0.1955
 2814TIP3    H232638   0.900   1.847  14.121  0.7148  0.4743 -1.4273
 2815TIP3   OH232639   6.280   2.481  14.384  0.3568 -0.0176  0.0214
 2815TIP3    H132640   6.198   2.529  14.380  1.2753  1.5559 -2.9115
 2815TIP3    H232641   6.255   2.389  14.379 -1.2273  0.4302 -0.7114
 2816TIP3   OH232642   2.656   0.139  17.173  0.3841 -0.0711  0.2065
 2816TIP3    H132643   2.742   0.109  17.203  1.2460  0.7757 -1.2930
 2816TIP3    H232644   2.669   0.231  17.152 -0.9632  0.1259  0.1574
 2817TIP3   OH232645   4.498   0.182  14.164 -0.1433 -0.1214 -0.6720
 2817TIP3    H132646   4.453   0.197  14.081 -0.8853  1.4032 -0.0409
 2817TIP3    H232647   4.444   0.119  14.210 -2.0338  2.0204  0.2713
 2818TIP3   OH232648   6.533   2.594  16.791  0.7744 -0.0139  0.4840
 2818TIP3    H132649   6.458   2.555  16.836  0.0450 -0.0261 -0.7140
 2818TIP3    H232650   6.563   2.663  16.850 -2.4956  2.5561 -0.6109
 2819TIP3   OH232651   5.687   0.924  14.448  0.3353  0.2679 -0.1985
 2819TIP3    H132652   5.765   0.977  14.431 -0.0096  1.4043  1.4701
 2819TIP3    H232653   5.662   0.947  14.538 -2.6597  0.9219 -1.0837
 2820TIP3   OH232654   0.408   0.658  17.031 -0.5125  0.7917  0.6666
 2820TIP3    H132655   0.426   0.567  17.009  1.1203  1.1667  0.3413
 2820TIP3    H232656   0.315   0.659  17.052 -0.8658 -0.7131 -0.5814
 2821TIP3   OH232657   0.380   2.841  15.732 -0.1531 -0.5041  0.5948
 2821TIP3    H132658   0.290   2.826  15.761  0.0997  0.3297  1.9044
 2821TIP3    H232659   0.380   2.817  15.640 -1.8227 -0.1482  0.4700
 2822TIP3   OH232660   4.353   3.914  15.768  0.2525  0.0095 -0.2205
 2822TIP3    H132661   4.449   3.917  15.766  0.2453  0.6938  0.1694
 2822TIP3    H232662   4.326   3.949  15.682  0.3589 -1.1503 -0.7386
 2823TIP3   OH232663   2.131   6.318  14.386  0.4849 -0.3030  0.4217
 2823TIP3    H132664   2.041   6.351  14.400  0.3568 -1.0147  1.3798
 2823TIP3    H232665   2.179   6.395  14.357  0.0126  0.6013  1.8897
 2824TIP3   OH232666   1.282   4.022  15.335 -0.1538 -0.0543 -0.0638
 2824TIP3    H132667   1.343   4.085  15.297 -0.2522  1.3563  1.9318
 2824TIP3    H232668   1.240   3.980  15.260  1.7890  0.3791 -1.4723
 2825TIP3   OH232669   3.184   2.634  16.992  0.5321  0.1717  0.3574
 2825TIP3    H132670   3.126   2.593  17.057  0.8010 -0.4387  0.2200
 2825TIP3    H232671   3.191   2.569  16.922  2.3814 -0.3035  0.9365
 2826TIP3   OH232672   4.794   0.047  13.674 -0.1008 -0.3402 -0.2992
 2826TIP3    H132673   4.845   0.101  13.735 -1.6795  0.4417  0.3948
 2826TIP3    H232674   4.837   0.060  13.589  0.0354  1.3922 -0.0022
 2827TIP3   OH232675   4.608   0.576  14.431  0.3545 -0.0648 -0.1152
 2827TIP3    H132676   4.670   0.614  14.494  0.1664  0.6630 -0.3619
 2827TIP3    H232677   4.534   0.636  14.430  0.6453  0.3173 -1.5351
 2828TIP3   OH232678   0.439   6.688  15.147  0.0553  0.3045 -0.0455
 2828TIP3    H132679   0.513   6.662  15.093 -0.0641 -0.7943  0.3038
 2828TIP3    H232680   0.396   6.757  15.097 -0.4015 -1.0903 -1.6736
 2829TIP3   OH232681   2.169   1.327  14.104 -0.0891 -0.4413  0.4757
 2829TIP3    H132682   2.101   1.376  14.059  2.0458  0.7050 -1.7504
 2829TIP3    H232683   2.123   1.253  14.143 -2.3908 -0.7174 -2.3698
 2830TIP3   OH232684   5.996   6.594  14.891 -0.0406  0.3869 -0.3981
 2830TIP3    H132685   5.947   6.516  14.864  1.3212 -0.6988  0.1578
 2830TIP3    H232686   6.004   6.586  14.986 -3.5054  3.4164  0.3540
 2831TIP3   OH232687   1.939   0.793  16.379  0.0282 -0.7049 -0.2849
 2831TIP3    H132688   1.844   0.801  16.371  0.0777 -1.0753 -1.4436
 2831TIP3    H232689   1.973   0.877  16.347  0.1161 -0.9240 -0.7775
 2832TIP3   OH232690   0.214   3.076  14.655 -0.5806 -0.2789  0.3936
 2832TIP3    H132691   0.156   3.003  14.676 -1.0228  0.2124  0.8986
 2832TIP3    H232692   0.159   3.154  14.665 -0.1400  0.1171 -0.2416
 2833TIP3   OH232693   3.115   2.189  16.847 -0.1082  0.1907  0.3774
 2833TIP3    H132694   3.091   2.272  16.889  0.2748  1.5053 -1.8533
 2833TIP3    H232695   3.209   2.196  16.832 -0.3296  0.0296 -1.2007
 2834TIP3   OH232696   1.893   5.723  15.247  0.2467  0.1536 -0.6234
 2834TIP3    H132697   1.841   5.709  15.167 -2.9798 -0.7981  1.4413
 2834TIP3    H232698   1.904   5.818  15.251  0.8768  0.1935 -2.3853
 2835TIP3   OH232699   5.597   3.282  13.891 -0.0309 -0.1982 -0.4866
 2835TIP3    H132700   5.538   3.247  13.825 -0.0589  0.9141 -1.0731
 2835TIP3    H232701   5.670   3.320  13.841 -0.5018  1.4961  0.0284
 2836TIP3   OH232702   4.446   4.328  14.440  0.4953  0.3841 -0.0435
 2836TIP3    H132703   4.423   4.270  14.367  1.1257 -0.6939  0.5814
 2836TIP3    H232704   4.410   4.413  14.415  0.2640 -0.0719 -1.3759
 2837TIP3   OH232705   4.061   3.287  15.856 -0.5653  0.2691 -0.0554
 2837TIP3    H132706   4.005   3.363  15.871  0.3995  1.1843 -0.9438
 2837TIP3    H232707   4.120   3.314  15.785  2.1262 -0.0310  1.9382
 2838TIP3   OH232708   3.723   4.903  14.419  0.6496  0.1957 -0.1364
 2838TIP3    H132709   3.796   4.945  14.466  0.8309  0.3526 -0.5578
 2838TIP3    H232710   3.649   4.912  14.478  1.2277 -1.0144  0.8451
 2839TIP3   OH232711   1.598   2.683  15.397  0.8487 -0.6481 -0.1772
 2839TIP3    H132712   1.633   2.607  15.350  1.8822 -0.6630  0.5961
 2839TIP3    H232713   1.512   2.654  15.428 -0.4456 -0.2275 -3.0672
 2840TIP3   OH232714   5.939   5.964  14.261  0.3783 -0.3660 -0.2684
 2840TIP3    H132715   5.910   6.043  14.307 -0.6346 -0.3015 -0.9923
 2840TIP3    H232716   6.010   5.930  14.316 -0.3219  0.0930  0.9747
 2841TIP3   OH232717   0.411   1.195  17.103 -0.1180 -0.4625 -0.2696
 2841TIP3    H132718   0.326   1.157  17.083 -0.8482 -1.2265  3.4585
 2841TIP3    H232719   0.439   1.149  17.183  2.1689  2.1352  0.5750
 2842TIP3   OH232720   3.217   3.423  17.076 -0.2819 -0.5070  0.3668
 2842TIP3    H132721   3.277   3.493  17.051 -0.7330 -0.5620 -0.9269
 2842TIP3    H232722   3.134   3.446  17.035 -0.3884 -1.8894 -0.2384
 2843TIP3   OH232723   5.019   5.170  16.470  0.6870  0.7579  0.2893
 2843TIP3    H132724   5.029   5.253  16.423  0.6018  1.6197  1.7316
 2843TIP3    H232725   5.103   5.157  16.513  0.1151  1.0621  1.5498
 2844TIP3   OH232726   6.703   6.034  16.162 -0.2895 -0.3980  0.1698
 2844TIP3    H132727   6.706   5.970  16.233 -1.0491  0.9569  1.5045
 2844TIP3    H232728   6.764   6.000  16.096 -0.3172 -2.2192  1.0148
 2845TIP3   OH232729   5.005   1.528  13.862  0.0930 -0.1610 -0.0610
 2845TIP3    H132730   5.055   1.600  13.823 -0.2288  0.4734  0.6884
 2845TIP3    H232731   5.070   1.479  13.913  0.3760 -0.5977 -0.8285
 2846TIP3   OH232732   1.403   6.627  16.836  0.7109 -0.5243 -0.3313
 2846TIP3    H132733   1.335   6.577  16.881  0.4024 -1.1752 -1.4772
 2846TIP3    H232734   1.485   6.586  16.862  0.7615  0.7134  1.6264
 2847TIP3   OH232735   0.146   6.166  15.225  0.6045  0.1093 -0.0467
 2847TIP3    H132736   0.187   6.246  15.257  0.9186 -0.1831  0.2820
 2847TIP3    H232737   0.213   6.124  15.170 -0.7298  1.8698 -3.2726
 2848TIP3   OH232738   3.101   4.364  16.873 -0.4232  0.8856  0.2045
 2848TIP3    H132739   3.085   4.445  16.920  0.3223  2.5228 -2.2020
 2848TIP3    H232740   3.191   4.372  16.840 -0.9198 -0.1285 -1.5120
 2849TIP3   OH232741   3.808   1.070  14.887 -0.2244 -0.3601  0.3405
 2849TIP3    H132742   3.855   1.146  14.854 -2.3898  1.6295  1.4824
 2849TIP3    H232743   3.733   1.060  14.828 -0.4070 -1.0903  0.6800
 2850TIP3   OH232744   6.705   3.550  16.535  0.1626  0.3781  0.3102
 2850TIP3    H132745   6.738   3.635  16.506  1.3369  0.3191  1.3917
 2850TIP3    H232746   6.781   3.506  16.574 -0.8264 -0.3973  1.4550
 2851TIP3   OH232747   5.107   0.226  16.031  0.5735 -0.5047  0.0912
 2851TIP3    H132748   5.106   0.168  16.107  2.6181  0.6988  1.1068
 2851TIP3    H232749   5.089   0.169  15.956 -1.7787 -1.6671  1.4542
 2852TIP3   OH232750   2.010   0.900  15.519 -0.0724 -0.1389 -0.6220
 2852TIP3    H132751   1.969   0.972  15.470 -0.2216  0.7386  0.7511
 2852TIP3    H232752   1.939   0.863  15.571  0.4259  0.0302  0.1939
 2853TIP3   OH232753   2.456   2.701  16.839 -0.2153 -0.4505  0.3202
 2853TIP3    H132754   2.405   2.633  16.796  0.6767 -2.1782  1.8743
 2853TIP3    H232755   2.493   2.659  16.916  1.7440  1.3537  0.4682
 2854TIP3   OH232756   4.050   5.900  15.214 -0.5266 -0.7537  0.3036
 2854TIP3    H132757   4.064   5.866  15.302 -0.3579  0.8135  0.9201
 2854TIP3    H232758   4.125   5.868  15.164  0.3920 -0.1354  1.2220
 2855TIP3   OH232759   5.110   5.786  16.320 -0.1418 -0.0868  0.0574
 2855TIP3    H132760   5.139   5.797  16.229 -0.1904 -1.3543 -0.1294
 2855TIP3    H232761   5.142   5.700  16.345 -1.8774 -0.6327  0.5657
 2856TIP3   OH232762   1.166   0.436  16.980  0.2168 -0.0907  0.1353
 2856TIP3    H132763   1.211   0.364  16.935 -2.5703 -1.4618 -0.7013
 2856TIP3    H232764   1.097   0.463  16.920 -1.5339  0.3146  2.1668
 2857TIP3   OH232765   0.959   0.910  15.182  0.4545  0.1385  0.0170
 2857TIP3    H132766   0.978   0.998  15.149  0.4684 -0.6260 -2.1339
 2857TIP3    H232767   0.909   0.868  15.113 -1.8327 -0.7554  2.0565
 2858TIP3   OH232768   1.904   5.856  16.618 -0.2183 -0.0557  0.4875
 2858TIP3    H132769   1.947   5.779  16.656  0.7986 -0.4748 -1.3809
 2858TIP3    H232770   1.972   5.896  16.564 -0.7270  2.2071  1.4447
 2859TIP3   OH232771   3.239   1.250  15.614  0.1231  0.4737  1.0250
 2859TIP3    H132772   3.310   1.275  15.554 -0.5326  2.0068  0.8269
 2859TIP3    H232773   3.260   1.295  15.696 -0.2897  0.4280  1.1611
 2860TIP3   OH232774   0.417   6.563  13.892 -0.3221 -0.5818 -0.4531
 2860TIP3    H132775   0.487   6.628  13.888  0.8455 -1.5890  1.6148
 2860TIP3    H232776   0.453   6.486  13.849 -0.4880 -0.8373 -0.1365
 2861TIP3   OH232777   3.371   0.406  16.681 -0.2278  0.1572 -0.8080
 2861TIP3    H132778   3.388   0.404  16.587  1.2726 -1.3628 -0.5348
 2861TIP3    H232779   3.456   0.393  16.722 -1.1260 -1.2656  0.7325
 2862TIP3   OH232780   0.500   6.333  14.995  0.0065 -0.5428 -0.0491
 2862TIP3    H132781   0.445   6.412  14.992 -0.0201 -0.5630 -0.0917
 2862TIP3    H232782   0.577   6.360  15.045 -0.9210 -1.0621  1.7882
 2863TIP3   OH232783   1.184   5.380  14.595  0.3050 -0.6169  0.5980
 2863TIP3    H132784   1.190   5.422  14.681  2.4312  1.9635 -0.6591
 2863TIP3    H232785   1.268   5.337  14.583  1.5827  2.1689 -1.5327
 2864TIP3   OH232786   2.664   1.394  14.145  0.0893  0.1203  0.0723
 2864TIP3    H132787   2.691   1.305  14.169 -0.0388  0.7807  2.9647
 2864TIP3    H232788   2.732   1.424  14.084 -0.1737 -2.0999 -1.4421
 2865TIP3   OH232789   3.699   2.217  13.633  0.2403 -0.0853 -0.0004
 2865TIP3    H132790   3.605   2.203  13.633  0.2877 -0.4339  0.5863
 2865TIP3    H232791   3.710   2.306  13.598 -0.2243 -0.4780 -1.1887
 2866TIP3   OH232792   1.661   1.927  16.481 -0.2767  0.2924  0.2241
 2866TIP3    H132793   1.650   1.880  16.399  0.3418 -0.4569  0.5597
 2866TIP3    H232794   1.577   1.918  16.526 -0.5078  0.4267 -0.1779
 2867TIP3   OH232795   5.743   5.671  16.186 -0.4400 -0.3410 -0.3274
 2867TIP3    H132796   5.796   5.614  16.242  0.9847 -0.3063 -1.5670
 2867TIP3    H232797   5.797   5.750  16.175 -3.0668  2.2001  2.7923
 2868TIP3   OH232798   3.131   1.319  16.174 -0.8017 -0.0915 -0.1605
 2868TIP3    H132799   3.068   1.254  16.205  0.5514 -0.4418  2.0520
 2868TIP3    H232800   3.082   1.401  16.173 -1.8688 -0.7158 -0.6265
 2869TIP3   OH232801   6.506   4.446  16.318 -0.0405  0.2740  0.1936
 2869TIP3    H132802   6.453   4.461  16.396  1.4106  2.1781  0.8751
 2869TIP3    H232803   6.470   4.506  16.252 -0.2821 -0.2282 -0.1426
 2870TIP3   OH232804   3.979   3.969  14.306  0.0217 -0.2852 -0.1984
 2870TIP3    H132805   4.038   3.894  14.315 -0.2990 -0.5451 -0.2301
 2870TIP3    H232806   3.916   3.942  14.240 -1.2810 -0.7769  1.1726
 2871TIP3   OH232807   6.555   5.365  17.101 -0.1318  0.0684 -0.0067
 2871TIP3    H132808   6.500   5.443  17.107 -1.5643 -0.7626 -1.6382
 2871TIP3    H232809   6.623   5.388  17.038  1.6995  1.1983  2.2261
 2872TIP3   OH232810   1.789   3.774  13.738  0.8764 -0.1155  0.0226
 2872TIP3    H132811   1.783   3.742  13.828  0.8998 -0.0450  0.0493
 2872TIP3    H232812   1.701   3.760  13.702  0.7657  0.1814  0.1673
 2873TIP3   OH232813   5.295   3.420  14.330 -0.2778  0.2353  0.0516
 2873TIP3    H132814   5.322   3.510  14.314  2.1562  0.1266  2.6961
 2873TIP3    H232815   5.323   3.372  14.251  1.8189  1.2271  0.1316
 2874TIP3   OH232816   5.806   2.520  16.658  0.2931  0.0979 -0.0663
 2874TIP3    H132817   5.736   2.502  16.596  1.1844 -1.3654 -0.7113
 2874TIP3    H232818   5.771   2.589  16.715 -1.2124  0.2062 -1.0699
 2875TIP3   OH232819   4.083   4.363  13.990 -0.6452 -0.0346  0.0202
 2875TIP3    H132820   4.083   4.267  13.988  0.4161 -0.1301  1.9517
 2875TIP3    H232821   4.107   4.389  13.901  2.2378 -1.6910  0.1769
 2876TIP3   OH232822   4.611   1.084  15.842 -0.4903 -0.0590 -0.1957
 2876TIP3    H132823   4.670   1.139  15.790 -0.0833  0.2930  0.6143
 2876TIP3    H232824   4.655   1.076  15.927 -0.7056 -1.3561 -0.1764
 2877TIP3   OH232825   3.793   0.115  16.501 -1.1637  0.1184  0.1494
 2877TIP3    H132826   3.841   0.037  16.476 -0.0821  1.2272 -1.4596
 2877TIP3    H232827   3.841   0.151  16.575 -1.0359 -0.1466  0.1970
 2878TIP3   OH232828   2.446   5.746  15.377 -0.2692  0.2411 -0.2316
 2878TIP3    H132829   2.353   5.770  15.379  0.2349  2.3940  0.4386
 2878TIP3    H232830   2.469   5.747  15.284 -0.6399  0.9410 -0.3227
 2879TIP3   OH232831   6.449   2.371  16.572 -0.2356  0.0054 -0.7504
 2879TIP3    H132832   6.493   2.438  16.625 -0.9929  0.3828 -0.5894
 2879TIP3    H232833   6.356   2.382  16.592 -0.5425  0.1458 -2.1527
 2880TIP3   OH232834   3.944   2.782  16.590  0.4629  0.6317  0.3046
 2880TIP3    H132835   3.895   2.840  16.532  0.9852  0.5059 -0.2768
 2880TIP3    H232836   4.033   2.817  16.591  1.4044 -1.3922 -1.8992
 2881TIP3   OH232837   6.328   1.652  16.523  0.2306 -0.3554  0.1096
 2881TIP3    H132838   6.387   1.598  16.575  0.6876 -1.5258 -1.5152
 2881TIP3    H232839   6.374   1.735  16.513  0.1963 -0.1683  1.4271
 2882TIP3   OH232840   1.843   4.787  15.796  0.3115  0.1008  1.5419
 2882TIP3    H132841   1.752   4.767  15.774 -0.3839  1.3659  3.0881
 2882TIP3    H232842   1.841   4.878  15.825  2.4161  0.7371 -0.1107
 2883TIP3   OH232843   3.981   1.856  14.289 -0.2710 -0.4722  0.2602
 2883TIP3    H132844   3.932   1.862  14.206  1.7893  0.4247 -0.9675
 2883TIP3    H232845   4.070   1.831  14.263  0.5312  0.1766  2.1697
 2884TIP3   OH232846   3.227   2.979  16.151  0.2013  0.2537  0.3137
 2884TIP3    H132847   3.138   3.012  16.162 -0.1490 -0.3629 -0.5213
 2884TIP3    H232848   3.278   3.023  16.219 -1.1227 -0.9359  2.1711
 2885TIP3   OH232849   0.156   0.061  13.376  0.1092 -0.6327 -0.1853
 2885TIP3    H132850   0.187   0.138  13.329  1.5141 -0.1233  1.4576
 2885TIP3    H232851   0.086   0.094  13.433 -1.4649 -1.2121 -1.7002
 2886TIP3   OH232852   6.710   3.371  15.384  0.5098 -0.6363 -0.4959
 2886TIP3    H132853   6.747   3.459  15.388  0.5223 -0.5814 -1.5871
 2886TIP3    H232854   6.786   3.314  15.376  0.5444 -0.8229  0.8318
 2887TIP3   OH232855   1.870   3.865  16.129 -0.1096 -0.2341 -0.2571
 2887TIP3    H132856   1.939   3.920  16.168 -1.1553  1.1097 -0.2259
 2887TIP3    H232857   1.874   3.783  16.178  1.6477 -0.3124 -0.4448
 2888TIP3   OH232858   0.252   1.083  14.554  0.0954  0.0028 -0.3510
 2888TIP3    H132859   0.254   1.048  14.643 -1.3713  1.8977  0.5101
 2888TIP3    H232860   0.186   1.030  14.509  0.2701 -0.4475 -0.0819
 2889TIP3   OH232861   0.387   5.770  14.537 -0.0180 -0.3147 -0.1429
 2889TIP3    H132862   0.320   5.713  14.499 -0.2048 -1.1560  1.3446
 2889TIP3    H232863   0.351   5.858  14.528  0.2077 -0.4062 -2.3494
 2890TIP3   OH232864   5.379   3.148  14.744  0.4411  0.6479  0.3577
 2890TIP3    H132865   5.405   3.084  14.678 -1.0755  1.0576 -0.6737
 2890TIP3    H232866   5.310   3.105  14.794 -0.3622  1.3469 -0.1324
 2891TIP3   OH232867   3.644   5.335  14.268 -0.0350  0.2896  0.3113
 2891TIP3    H132868   3.668   5.327  14.361  0.5670 -1.5944  0.0315
 2891TIP3    H232869   3.567   5.280  14.258  1.9991 -2.5487 -0.9737
 2892TIP3   OH232870   2.550   3.326  15.236  0.3128  0.2124  0.0441
 2892TIP3    H132871   2.523   3.408  15.277 -0.1829  0.3075 -0.4549
 2892TIP3    H232872   2.635   3.307  15.274  0.7529  1.3318 -0.3566
 2893TIP3   OH232873   0.294   6.060  17.129 -0.2597 -0.2227 -0.1189
 2893TIP3    H132874   0.331   5.976  17.154 -0.7986 -0.5828 -0.4989
 2893TIP3    H232875   0.199   6.048  17.140 -0.4616 -0.1750 -1.6644
 2894TIP3   OH232876   6.110   6.703  16.024  0.1891 -0.1173 -0.5211
 2894TIP3    H132877   6.168   6.691  16.099  1.0415 -0.4973 -1.2051
 2894TIP3    H232878   6.164   6.751  15.960 -1.4559  2.9504  0.1959
 2895TIP3   OH232879   0.474   5.432  15.872 -0.5555 -0.0612  0.1460
 2895TIP3    H132880   0.455   5.341  15.895  0.5711 -0.1512  0.7752
 2895TIP3    H232881   0.543   5.459  15.933 -0.9562  1.2562  0.0458
 2896TIP3   OH232882   3.279   0.317  14.160 -0.5425 -0.1611 -0.7811
 2896TIP3    H132883   3.302   0.274  14.243 -0.0991 -1.3487 -1.4958
 2896TIP3    H232884   3.359   0.360  14.133 -0.1800 -1.1830 -1.4078
 2897TIP3   OH232885   2.730   0.806  15.630 -0.2014 -0.2285  0.2427
 2897TIP3    H132886   2.687   0.885  15.595 -1.6691 -1.5787 -1.1502
 2897TIP3    H232887   2.659   0.757  15.672  0.7702 -0.6462  1.4575
 2898TIP3   OH232888   2.047   0.425  16.717  1.0117  0.0806 -0.1552
 2898TIP3    H132889   2.029   0.422  16.811  0.1585  1.0148 -0.2607
 2898TIP3    H232890   2.131   0.470  16.710  1.2227 -0.2586  0.1738
 2899TIP3   OH232891   0.578   2.454  13.715 -0.3014  0.2468 -0.2843
 2899TIP3    H132892   0.550   2.363  13.706  1.0706 -0.2822  0.4995
 2899TIP3    H232893   0.506   2.505  13.678 -1.2449 -1.1354 -0.4299
 2900TIP3   OH232894   4.988   6.013  13.583  0.0833 -0.5976 -1.2620
 2900TIP3    H132895   5.061   6.076  13.584  0.7899 -1.3000  1.4337
 2900TIP3    H232896   5.030   5.928  13.595 -0.9950 -1.4219 -2.9878
 2901TIP3   OH232897   6.053   0.184  14.869 -0.3277  0.3398 -0.2945
 2901TIP3    H132898   6.045   0.206  14.962 -2.6698  1.4802 -0.6885
 2901TIP3    H232899   6.024   0.093  14.863  1.8932 -0.4633  0.3224
 2902TIP3   OH232900   6.267   2.823  16.836  0.1726  0.1310 -0.1849
 2902TIP3    H132901   6.339   2.859  16.784  1.6025  0.8882  2.1808
 2902TIP3    H232902   6.296   2.735  16.861  0.0870  0.2692  0.4152
 2903TIP3   OH232903   3.980   2.828  17.140  0.5269  0.3532  0.0983
 2903TIP3    H132904   3.970   2.911  17.186  2.2078  0.9268 -0.4942
 2903TIP3    H232905   3.937   2.764  17.196  2.4069  1.0207  2.4908
 2904TIP3   OH232906   6.108   0.754  15.325 -0.0442 -0.4748  0.4200
 2904TIP3    H132907   6.170   0.690  15.290 -0.1169 -0.4456  0.2395
 2904TIP3    H232908   6.140   0.838  15.295 -0.1912 -0.4623  0.2928
 2905TIP3   OH232909   5.071   0.083  17.069  0.2713  0.2986 -0.0386
 2905TIP3    H132910   5.123   0.131  17.134  1.8606  0.2212 -1.1880
 2905TIP3    H232911   4.982   0.117  17.080  0.7450  1.2366  1.2636
 2906TIP3   OH232912   3.572   4.210  15.910  0.3552 -0.4469 -0.1718
 2906TIP3    H132913   3.628   4.272  15.958  0.8390 -1.3459  0.4594
 2906TIP3    H232914   3.496   4.262  15.883  1.0099  0.5488 -0.1418
 2907TIP3   OH232915   0.113   0.579  17.051 -0.2108  0.0229  0.1122
 2907TIP3    H132916   0.052   0.525  17.103 -0.0479  0.2396  0.5344
 2907TIP3    H232917   0.174   0.516  17.014 -0.1509 -0.1105  0.4294
 2908TIP3   OH232918   3.264   2.332  15.682  0.3565  0.8114 -0.2853
 2908TIP3    H132919   3.313   2.322  15.764 -0.1749  0.7963  0.0300
 2908TIP3    H232920   3.223   2.418  15.690 -0.5892  0.3465 -0.0539
 2909TIP3   OH232921   5.579   5.085  14.179 -0.0107 -0.3567 -0.0706
 2909TIP3    H132922   5.570   4.991  14.197 -1.9563 -0.3355 -0.6992
 2909TIP3    H232923   5.671   5.096  14.154  0.5925 -1.8442  1.3374
 2910TIP3   OH232924   6.078   6.325  16.764 -0.0392 -0.2953 -0.1545
 2910TIP3    H132925   5.991   6.290  16.784 -0.7642  0.7221 -1.3062
 2910TIP3    H232926   6.070   6.359  16.674  1.8461 -1.0571 -0.6638
 2911TIP3   OH232927   6.203   3.653  15.048  0.3094 -0.1433 -0.3832
 2911TIP3    H132928   6.293   3.649  15.014  0.7467  0.1759  0.7084
 2911TIP3    H232929   6.169   3.737  15.016  1.9859  1.9960  2.8933
 2912TIP3   OH232930   0.895   5.861  14.954 -0.5881 -0.3826 -0.2546
 2912TIP3    H132931   0.938   5.942  14.979  2.0823 -1.4751 -0.9486
 2912TIP3    H232932   0.836   5.887  14.883 -0.9347  1.1495  0.5455
 2913TIP3   OH232933   5.040   2.454  16.042 -0.5712  0.2234 -0.3243
 2913TIP3    H132934   4.955   2.487  16.014 -1.6990 -0.7003  1.7265
 2913TIP3    H232935   5.019   2.374  16.090  1.5395 -0.3708 -0.3063
 2914TIP3   OH232936   1.058   1.484  13.992  0.3018  0.4483 -0.0595
 2914TIP3    H132937   1.016   1.568  13.973  0.8658  0.7401 -0.0503
 2914TIP3    H232938   1.150   1.499  13.971  0.4876 -0.0216  0.4077
 2915TIP3   OH232939   1.956   6.305  14.020 -0.3736 -0.0061  0.1115
 2915TIP3    H132940   1.867   6.330  14.045 -1.1710 -1.1865 -1.3184
 2915TIP3    H232941   1.993   6.384  13.981 -0.5134  0.7015  1.3554
 2916TIP3   OH232942   1.789   1.471  15.883 -0.2484  0.8464 -0.1688
 2916TIP3    H132943   1.792   1.454  15.789  0.7170  0.2543 -0.0377
 2916TIP3    H232944   1.872   1.514  15.903  0.2635 -0.4635  0.6672
 2917TIP3   OH232945   6.469   0.387  16.259  0.1176 -0.4794 -0.3682
 2917TIP3    H132946   6.430   0.300  16.256  1.0655 -0.9174 -0.4344
 2917TIP3    H232947   6.534   0.382  16.329 -1.1678  0.7764  0.9652
 2918TIP3   OH232948   4.245   6.664  14.274 -0.3263 -0.5223  0.0370
 2918TIP3    H132949   4.179   6.676  14.343 -0.5585 -0.4908 -0.1890
 2918TIP3    H232950   4.328   6.673  14.319 -0.4827  0.3237  0.1673
 2919TIP3   OH232951   2.119   1.181  15.621 -0.1406 -0.0623 -0.7322
 2919TIP3    H132952   2.079   1.146  15.541 -0.7673  0.5490 -0.6996
 2919TIP3    H232953   2.062   1.149  15.692 -0.0167  0.0169 -0.5986
 2920TIP3   OH232954   0.922   1.703  15.174 -0.1801  0.1527 -0.3356
 2920TIP3    H132955   1.013   1.682  15.152  0.1855  1.2359  0.1168
 2920TIP3    H232956   0.892   1.627  15.225  0.3527 -0.3569 -0.7622
 2921TIP3   OH232957   1.310   0.907  15.138  0.9506 -0.2385 -0.0842
 2921TIP3    H132958   1.323   0.840  15.205  0.8093 -0.4870 -0.3004
 2921TIP3    H232959   1.296   0.857  15.057  0.8211  0.0531 -0.2419
 2922TIP3   OH232960   1.776   5.329  13.666 -0.2483  0.2116 -0.0262
 2922TIP3    H132961   1.738   5.252  13.623 -3.3807  0.5006  1.9031
 2922TIP3    H232962   1.842   5.360  13.604  1.0659 -3.8324 -0.9835
 2923TIP3   OH232963   1.767   6.589  16.563 -0.3319  0.4673 -0.0314
 2923TIP3    H132964   1.798   6.648  16.632 -1.3789  0.6157  0.3361
 2923TIP3    H232965   1.844   6.574  16.508  1.3552 -1.8955  2.6786
 2924TIP3   OH232966   3.728   3.450  16.413  0.6175 -1.2567  0.4637
 2924TIP3    H132967   3.777   3.435  16.494  1.2129 -0.6051  0.2278
 2924TIP3    H232968   3.789   3.428  16.343  0.8481  0.3038  0.1553
 2925TIP3   OH232969   4.075   6.289  14.408  0.4479 -0.0975 -0.6440
 2925TIP3    H132970   4.105   6.336  14.486  0.6987 -1.4557  0.1065
 2925TIP3    H232971   4.069   6.356  14.340  0.7274  1.0176  0.4099
 2926TIP3   OH232972   6.614   2.600  15.871 -0.1530  0.7854 -0.2542
 2926TIP3    H132973   6.668   2.527  15.901 -0.4185  0.4417 -0.6124
 2926TIP3    H232974   6.636   2.671  15.931  0.8555  0.7123 -0.5116
 2927TIP3   OH232975   2.191   4.214  14.432  0.1973  0.4872  0.2587
 2927TIP3    H132976   2.137   4.216  14.353  0.7091  0.2802 -0.0976
 2927TIP3    H232977   2.132   4.182  14.500  0.3369 -1.5856 -0.5087
 2928TIP3   OH232978   4.856   4.003  14.653 -0.0433 -0.4215  0.0578
 2928TIP3    H132979   4.879   3.919  14.692 -1.4077 -0.0849  1.6982
 2928TIP3    H232980   4.788   3.982  14.589 -0.0689 -0.6166  0.1463
 2929TIP3   OH232981   0.120   6.385  14.682  0.2064  0.0748  0.2692
 2929TIP3    H132982   0.142   6.306  14.633  2.6831  0.1284  1.1378
 2929TIP3    H232983   0.200   6.406  14.731 -1.1727  1.7394  1.9694
 2930TIP3   OH232984   5.547   4.768  14.841 -0.2566 -0.2464 -0.2174
 2930TIP3    H132985   5.618   4.809  14.890  0.2100 -2.2973  0.9471
 2930TIP3    H232986   5.468   4.788  14.891  0.2781 -2.8056  1.8901
 2931TIP3   OH232987   6.459   0.196  16.840  0.0146  1.0073 -0.3548
 2931TIP3    H132988   6.406   0.266  16.801 -2.5442  0.0522  1.1741
 2931TIP3    H232989   6.395   0.136  16.878  2.1584 -1.5517 -0.5012
 2932TIP3   OH232990   5.781   4.077  16.697  0.4873  0.3531 -0.4324
 2932TIP3    H132991   5.748   4.117  16.778  0.6360 -1.3862  0.5580
 2932TIP3    H232992   5.752   3.986  16.703  3.1587 -0.6075 -0.7841
 2933TIP3   OH232993   4.544   6.579  15.773  0.3168 -0.2988  0.0910
 2933TIP3    H132994   4.453   6.590  15.747  0.6669  2.5643 -0.2419
 2933TIP3    H232995   4.588   6.545  15.695 -0.2179 -0.3385 -0.1966
 2934TIP3   OH232996   4.259   2.928  14.814 -0.2032  0.4902  0.5719
 2934TIP3    H132997   4.321   2.932  14.886  0.5519  0.8821 -0.0836
 2934TIP3    H232998   4.222   3.016  14.809  0.6000  0.8012 -0.2347
 2935TIP3   OH232999   3.516   3.082  14.356  0.0352  0.3601 -0.5867
 2935TIP3    H133000   3.537   3.107  14.266 -1.2338  2.5624 -0.3381
 2935TIP3    H233001   3.442   3.022  14.347  1.6168 -1.6311 -1.0776
 2936TIP3   OH233002   0.233   3.560  15.428  0.0880  0.0378 -0.2541
 2936TIP3    H133003   0.258   3.649  15.402  0.0621  0.2228  0.3432
 2936TIP3    H233004   0.270   3.549  15.515 -0.3383 -0.3544 -0.1182
 2937TIP3   OH233005   0.451   4.234  16.720  0.6244 -1.1112  0.5587
 2937TIP3    H133006   0.456   4.266  16.811  0.5284 -0.1237  0.2290
 2937TIP3    H233007   0.358   4.236  16.699  0.7920  0.6312 -0.2138
 2938TIP3   OH233008   3.873   4.112  17.167 -0.1066  0.3335  0.5486
 2938TIP3    H133009   3.870   4.058  17.087 -0.4156  1.0422  0.0778
 2938TIP3    H233010   3.919   4.057  17.230 -0.8924 -0.7054  0.2475
 2939TIP3   OH233011   6.009   6.626  16.672 -0.0922  0.7854 -0.1972
 2939TIP3    H133012   6.075   6.557  16.686  0.4405  1.0034 -1.4891
 2939TIP3    H233013   5.947   6.587  16.610 -2.1152  0.0097  2.1590
 2940TIP3   OH233014   5.239   2.175  17.118 -0.1400 -0.9127  0.0606
 2940TIP3    H133015   5.210   2.096  17.164 -1.2911 -0.0202  0.9353
 2940TIP3    H233016   5.158   2.223  17.100  0.3608 -0.8410 -2.2168
 2941TIP3   OH233017   6.059   2.570  14.038 -0.0164 -0.2797 -0.3648
 2941TIP3    H133018   5.978   2.606  14.000 -0.2530 -0.7990 -0.3559
 2941TIP3    H233019   6.038   2.553  14.130  0.0846 -0.4690 -0.3755
 2942TIP3   OH233020   0.248   5.820  15.596 -0.1618  0.5633  0.1323
 2942TIP3    H133021   0.289   5.787  15.516 -0.5614  0.1018  0.1112
 2942TIP3    H233022   0.317   5.815  15.662  0.5027  1.9905 -0.4224
 2943TIP3   OH233023   1.060   2.280  16.212 -0.3542  0.0302 -0.2991
 2943TIP3    H133024   1.060   2.285  16.308 -2.3586  0.0308 -0.2720
 2943TIP3    H233025   0.968   2.270  16.188  0.1227 -0.0773 -2.2371
 2944TIP3   OH233026   0.422   2.885  16.741 -0.9183 -0.1906 -0.0985
 2944TIP3    H133027   0.421   2.814  16.805  0.4133 -0.5101 -0.3971
 2944TIP3    H233028   0.495   2.863  16.683 -2.1358  0.0584 -1.7714
 2945TIP3   OH233029   3.863   1.335  16.740  0.1221 -0.2535  0.0618
 2945TIP3    H133030   3.808   1.258  16.756  0.3177 -0.5019 -0.4242
 2945TIP3    H233031   3.952   1.301  16.741  0.1873 -0.1347 -0.6489
 2946TIP3   OH233032   0.149   0.126  16.392  0.1631  0.6280  0.1258
 2946TIP3    H133033   0.152   0.094  16.301  0.3380 -2.0804  0.9760
 2946TIP3    H233034   0.056   0.142  16.408 -0.0902 -0.5355 -0.0638
 2947TIP3   OH233035   2.935   1.919  14.056  0.0785 -0.5053 -0.3665
 2947TIP3    H133036   2.864   1.927  13.992 -0.5770 -4.2576 -0.3436
 2947TIP3    H233037   2.999   1.861  14.014  0.2787 -1.9464  1.7573
 2948TIP3   OH233038   1.690   5.244  14.872 -0.0533 -0.1927 -0.0749
 2948TIP3    H133039   1.601   5.277  14.886  0.2108  0.3973  0.2220
 2948TIP3    H233040   1.702   5.177  14.940  0.2372  0.7381  0.8164
 2949TIP3   OH233041   4.507   4.547  14.243 -0.4608  0.0417  0.4712
 2949TIP3    H133042   4.602   4.539  14.252 -0.1599 -0.0941 -2.0426
 2949TIP3    H233043   4.494   4.580  14.154 -2.7960 -0.5416  0.5287
 2950TIP3   OH233044   0.476   5.448  14.949  0.1584  0.0277  0.2993
 2950TIP3    H133045   0.476   5.509  14.874  0.3402 -0.4766 -0.1139
 2950TIP3    H233046   0.568   5.442  14.974  0.1302 -0.0274  0.3886
 2951TIP3   OH233047   2.151   2.591  14.281  0.5068  0.5226 -0.5404
 2951TIP3    H133048   2.061   2.609  14.254  0.4610  0.2980 -0.5359
 2951TIP3    H233049   2.142   2.559  14.371  0.5642  0.2008 -0.6477
 2952TIP3   OH233050   0.205   2.005  16.088  0.5358 -0.2657 -0.1300
 2952TIP3    H133051   0.169   1.981  16.003 -0.2010  1.0085 -0.2114
 2952TIP3    H233052   0.288   2.048  16.068  0.5752 -0.3699 -0.1847
 2953TIP3   OH233053   3.251   1.145  16.748  0.7190 -0.3425 -0.1687
 2953TIP3    H133054   3.291   1.213  16.694 -0.4225  0.3975 -0.1202
 2953TIP3    H233055   3.193   1.098  16.687  0.2373 -0.1881  0.1623
 2954TIP3   OH233056   3.481   0.724  16.908 -0.3915  0.2308  0.3633
 2954TIP3    H133057   3.494   0.770  16.991 -0.0789  1.0601 -0.1410
 2954TIP3    H233058   3.396   0.754  16.877 -1.1878 -1.1713  1.0607
 2955TIP3   OH233059   2.600   5.078  14.170 -0.0147 -0.2531  0.1088
 2955TIP3    H133060   2.534   5.144  14.192  0.6838 -0.0294  1.5938
 2955TIP3    H233061   2.551   4.996  14.170 -0.3607 -0.0630  0.9615
 2956TIP3   OH233062   5.247   6.425  14.414 -0.1732 -0.8223  0.1004
 2956TIP3    H133063   5.216   6.469  14.334  0.3029 -0.0610  0.3259
 2956TIP3    H233064   5.341   6.440  14.414 -0.3862  0.7683  1.7444
 2957TIP3   OH233065   1.212   0.897  13.409  0.2835 -0.2810 -0.0139
 2957TIP3    H133066   1.203   0.908  13.314 -1.2964 -0.7182  0.0599
 2957TIP3    H233067   1.233   0.805  13.420 -0.9852 -0.5750  0.1115
 2958TIP3   OH233068   1.979   1.505  16.201 -0.3603  0.0017 -0.1105
 2958TIP3    H133069   1.993   1.570  16.132 -0.8068  0.1688 -0.0486
 2958TIP3    H233070   1.940   1.554  16.273  0.5587 -0.0768  0.4590
 2959TIP3   OH233071   1.019   6.062  15.094  0.4010 -0.4205  0.4952
 2959TIP3    H133072   1.099   6.095  15.135 -0.4648  2.1674  0.2685
 2959TIP3    H233073   0.968   6.027  15.168  1.0685 -0.6403  0.8629
 2960TIP3   OH233074   4.954   6.563  13.958 -0.1391  0.2025 -0.0752
 2960TIP3    H133075   4.885   6.501  13.935 -1.1126  0.6901  1.4103
 2960TIP3    H233076   4.907   6.643  13.983  1.0400  1.1162 -0.6768
 2961TIP3   OH233077   3.115   5.306  15.756  0.5059  0.0130 -0.5430
 2961TIP3    H133078   3.140   5.227  15.709  1.2640 -0.0762 -0.0064
 2961TIP3    H233079   3.198   5.349  15.778  0.1206  0.7415 -0.4557
 2962TIP3   OH233080   4.079   2.463  14.203  0.0703 -0.3104 -0.0825
 2962TIP3    H133081   4.144   2.394  14.192 -0.1117 -0.3249 -1.1334
 2962TIP3    H233082   4.104   2.530  14.140  1.1379  1.3042  1.9162
 2963TIP3   OH233083   4.789   0.755  14.207  0.2006  0.1126 -0.5238
 2963TIP3    H133084   4.800   0.690  14.276  0.9241  0.4635 -0.2984
 2963TIP3    H233085   4.849   0.727  14.138 -0.9615 -0.5766 -1.2834
 2964TIP3   OH233086   1.446   0.915  16.703 -0.0236 -0.0679 -0.5786
 2964TIP3    H133087   1.397   0.980  16.653  0.2004 -1.1706 -2.2977
 2964TIP3    H233088   1.406   0.832  16.680  0.6329 -0.6937  0.4648
 2965TIP3   OH233089   4.377   3.523  14.774  0.0596  0.6782  0.6678
 2965TIP3    H133090   4.309   3.546  14.838 -0.9874 -0.1723 -0.0974
 2965TIP3    H233091   4.435   3.463  14.821 -2.4450 -2.5153  0.0761
 2966TIP3   OH233092   4.330   5.812  15.100 -0.2402  0.5840  0.8571
 2966TIP3    H133093   4.268   5.740  15.084  0.3490  0.0122  1.1078
 2966TIP3    H233094   4.400   5.799  15.037  0.0927  0.6691  1.2043
 2967TIP3   OH233095   2.096   1.943  14.480 -0.1172 -0.4651  0.4999
 2967TIP3    H133096   2.039   1.866  14.487 -1.7388  0.4400 -1.7602
 2967TIP3    H233097   2.167   1.914  14.422  0.6556 -0.9631  1.6562
 2968TIP3   OH233098   0.417   3.002  14.855  0.3258 -0.3770  0.3743
 2968TIP3    H133099   0.396   2.995  14.762  0.8413  1.1988  0.0973
 2968TIP3    H233100   0.339   3.040  14.894  0.3927 -0.3072  0.4400
 2969TIP3   OH233101   2.677   0.127  14.980 -0.2188  0.5966  0.0262
 2969TIP3    H133102   2.670   0.064  15.052  0.5010 -1.6154 -1.7135
 2969TIP3    H233103   2.593   0.120  14.933  0.5106 -0.4576 -1.1905
 2970TIP3   OH233104   4.346   0.649  13.855  0.0405 -0.8619  0.3702
 2970TIP3    H133105   4.393   0.674  13.775 -1.3403  0.3836 -0.0922
 2970TIP3    H233106   4.375   0.559  13.873  0.8927 -0.9198 -1.1385
 2971TIP3   OH233107   1.437   4.965  14.190 -0.1777  0.2359 -0.5749
 2971TIP3    H133108   1.395   4.904  14.129 -0.4703  0.9697 -1.1245
 2971TIP3    H233109   1.508   5.004  14.139 -0.3728  0.7970 -0.4290
 2972TIP3   OH233110   0.666   2.020  14.419 -0.2957  0.0586 -0.8907
 2972TIP3    H133111   0.723   2.002  14.344 -0.4374  0.4015 -1.0808
 2972TIP3    H233112   0.586   1.971  14.401  0.3360 -1.3555 -0.0848
 2973TIP3   OH233113   4.974   1.994  15.320 -0.3400 -0.0281  0.3970
 2973TIP3    H133114   5.024   2.076  15.315  0.3370 -0.4798 -0.4699
 2973TIP3    H233115   4.883   2.021  15.308  0.0213  0.4335 -1.6961
 2974TIP3   OH233116   0.787   5.803  15.997  0.2928  0.1249  0.1795
 2974TIP3    H133117   0.715   5.828  16.055 -0.4496  0.8426 -0.9880
 2974TIP3    H233118   0.866   5.810  16.050 -0.3434  0.9280  1.0391
 2975TIP3   OH233119   3.825   1.892  14.067 -0.1828 -0.3549 -0.3382
 2975TIP3    H133120   3.858   1.950  13.998 -0.0842  0.3444  0.2853
 2975TIP3    H233121   3.744   1.856  14.031  0.7006 -1.3092 -1.4865
 2976TIP3   OH233122   4.566   3.720  14.973 -0.1395  0.5300  0.2507
 2976TIP3    H133123   4.471   3.729  14.958 -0.1613  0.3526  0.2841
 2976TIP3    H233124   4.598   3.811  14.975 -0.3511  0.5987  0.5127
 2977TIP3   OH233125   5.659   3.579  16.801  0.1513 -0.2957 -0.2218
 2977TIP3    H133126   5.727   3.516  16.781  1.6571  1.2056 -0.0491
 2977TIP3    H233127   5.680   3.611  16.889 -0.5561  0.4710 -0.3150
 2978TIP3   OH233128   5.424   6.622  16.407  0.3553  0.8188 -0.5790
 2978TIP3    H133129   5.424   6.662  16.320  0.3191 -2.1214 -2.0271
 2978TIP3    H233130   5.512   6.586  16.417  0.1349  0.4938  0.3005
 2979TIP3   OH233131   2.749   6.271  16.423  0.5590 -0.2246 -0.2708
 2979TIP3    H133132   2.654   6.278  16.438  0.8857  1.6897  1.1649
 2979TIP3    H233133   2.774   6.356  16.387  1.7942 -0.6405 -0.4375
 2980TIP3   OH233134   3.136   3.726  15.100 -0.1314 -0.1702  0.2460
 2980TIP3    H133135   3.075   3.684  15.040  0.6070  0.4985 -0.9964
 2980TIP3    H233136   3.201   3.659  15.119 -2.2653 -1.6206  3.2549
 2981TIP3   OH233137   5.386   0.986  15.922  0.0753  0.0500 -0.4912
 2981TIP3    H133138   5.377   1.070  15.877 -0.9871  1.6658  2.4233
 2981TIP3    H233139   5.445   1.005  15.996 -0.4068 -1.6809  0.3974
 2982TIP3   OH233140   0.698   5.951  13.864  0.3180  0.3203  0.6128
 2982TIP3    H133141   0.633   5.885  13.839  0.4966  0.7379 -1.0778
 2982TIP3    H233142   0.780   5.919  13.826  0.7157  0.7903  1.0521
 2983TIP3   OH233143   1.770   3.375  15.348 -0.4131 -0.2589  0.1534
 2983TIP3    H133144   1.850   3.403  15.392 -0.3599  0.4513 -0.3707
 2983TIP3    H233145   1.757   3.285  15.376  1.4188 -0.9128 -0.9394
 2984TIP3   OH233146   2.385   3.183  15.031 -0.3122 -0.5050  0.1211
 2984TIP3    H133147   2.421   3.249  15.090  0.7530 -1.3844  0.4911
 2984TIP3    H233148   2.302   3.157  15.070 -0.8235  0.7252 -0.1203
 2985TIP3   OH233149   2.876   4.888  17.230 -0.3784  0.2580 -0.0480
 2985TIP3    H133150   2.781   4.885  17.242 -0.4299  1.4650 -0.0502
 2985TIP3    H233151   2.912   4.850  17.310 -0.8545  0.1530  0.1185
 2986TIP3   OH233152   2.134   4.218  17.046 -0.3776  0.4992  0.6920
 2986TIP3    H133153   2.093   4.140  17.084  0.1682  0.4275  1.1662
 2986TIP3    H233154   2.068   4.255  16.988 -0.4408 -0.6510 -0.0017
 2987TIP3   OH233155   0.103   2.931  15.901  0.4867  0.3947 -0.2249
 2987TIP3    H133156   0.089   2.887  15.985  0.9333 -0.7835 -0.7329
 2987TIP3    H233157   0.019   2.922  15.856  0.2925  0.8934  0.0407
 2988TIP3   OH233158   5.269   4.008  14.003 -0.3245 -0.1836  0.8107
 2988TIP3    H133159   5.256   4.065  13.927 -0.4425 -1.0398  0.1698
 2988TIP3    H233160   5.347   3.957  13.981 -0.3292 -0.3974  1.2894
 2989TIP3   OH233161   5.498   5.299  15.422 -0.0320  0.1727  0.4409
 2989TIP3    H133162   5.571   5.260  15.375 -2.7312 -1.5256 -2.8136
 2989TIP3    H233163   5.487   5.245  15.500  0.6743 -1.1061 -0.3101
 2990TIP3   OH233164   2.145   5.220  13.519 -0.2143  0.2099  0.3781
 2990TIP3    H133165   2.165   5.228  13.612 -0.3441 -0.3248  0.4559
 2990TIP3    H233166   2.090   5.296  13.499 -2.9446 -1.2999  1.4959
 2991TIP3   OH233167   4.125   1.619  16.024  0.6712 -0.5548  0.0981
 2991TIP3    H133168   4.063   1.654  16.089 -0.6720 -0.9312 -0.9319
 2991TIP3    H233169   4.132   1.526  16.046 -0.5365 -0.8935 -0.8270
 2992TIP3   OH233170   2.109   0.240  14.588  0.2789 -0.5694 -0.7508
 2992TIP3    H133171   2.078   0.239  14.497 -0.3588 -0.3731 -0.5403
 2992TIP3    H233172   2.114   0.333  14.610 -0.2346 -0.6358 -0.3603
 2993TIP3   OH233173   3.718   1.669  15.979  0.7107  0.2563 -0.1925
 2993TIP3    H133174   3.774   1.710  15.913 -0.1458  0.8652 -0.5594
 2993TIP3    H233175   3.772   1.668  16.058  1.5079  0.1340 -0.7195
 2994TIP3   OH233176   1.304   2.575  15.382  0.9025  0.0261  0.0695
 2994TIP3    H133177   1.291   2.659  15.427  0.4668  0.9756 -1.7340
 2994TIP3    H233178   1.216   2.546  15.359  1.0805 -0.7386  0.3292
 2995TIP3   OH233179   2.731   6.509  13.413 -0.2821  0.5007 -0.2156
 2995TIP3    H133180   2.754   6.482  13.502  0.7486  1.3694 -0.2028
 2995TIP3    H233181   2.637   6.493  13.407 -0.2720 -0.0478  0.8594
 2996TIP3   OH233182   0.088   3.594  15.097  0.4502  0.3213 -0.2032
 2996TIP3    H133183   0.152   3.643  15.045  1.2261  1.6769  1.8805
 2996TIP3    H233184   0.093   3.633  15.185  0.5254 -2.9683  1.4238
 2997TIP3   OH233185   4.498   3.765  16.033 -0.3312 -0.2361  0.0839
 2997TIP3    H133186   4.493   3.856  16.062 -0.9941 -0.3143  0.2268
 2997TIP3    H233187   4.483   3.714  16.112  0.1942 -0.4736  0.0332
 2998TIP3   OH233188   4.439   5.079  15.653  0.4842  0.4309  0.0440
 2998TIP3    H133189   4.482   5.150  15.700 -0.2029  0.4653  0.6479
 2998TIP3    H233190   4.500   5.055  15.583  2.0524 -0.3524  1.5925
 2999TIP3   OH233191   3.184   2.818  15.932 -0.2815  0.0428  0.6657
 2999TIP3    H133192   3.101   2.770  15.930 -1.0772  1.3394  1.1428
 2999TIP3    H233193   3.184   2.862  16.017 -0.3750  2.1935 -0.3870
 3000TIP3   OH233194   3.267   2.235  14.849  0.2574 -0.2872 -0.0162
 3000TIP3    H133195   3.181   2.275  14.864  1.1842  1.0808  2.1345
 3000TIP3    H233196   3.283   2.247  14.756 -0.4105  2.7102  0.1300
 3001TIP3   OH233197   3.039   5.486  13.671  0.4443 -0.2053  0.8287
 3001TIP3    H133198   3.078   5.486  13.758  0.6572 -0.5361  0.7344
 3001TIP3    H233199   2.944   5.481  13.686  0.5422 -3.8166  1.0295
 3002TIP3   OH233200   0.708   1.021  15.336  0.3349 -0.4121 -0.3460
 3002TIP3    H133201   0.788   0.981  15.369  0.1754 -1.1849 -0.8710
 3002TIP3    H233202   0.688   0.973  15.256 -1.3406 -1.1134  0.4334
 3003TIP3   OH233203   5.484   0.713  13.464 -0.2825 -0.1715 -0.3622
 3003TIP3    H133204   5.442   0.794  13.492 -1.7904 -0.4330 -1.7511
 3003TIP3    H233205   5.451   0.697  13.376  0.4217 -2.0033 -0.3484
 3004TIP3   OH233206   5.928   3.372  15.028 -0.4334 -0.4778  0.0097
 3004TIP3    H133207   5.913   3.362  15.122 -0.0419 -2.4021 -0.0912
 3004TIP3    H233208   5.844   3.401  14.993 -1.1658 -1.6822  0.7013
 3005TIP3   OH233209   3.214   0.140  13.477  0.5925  0.2212 -0.0451
 3005TIP3    H133210   3.172   0.065  13.433  2.0827  0.0521 -1.2424
 3005TIP3    H233211   3.151   0.211  13.468  0.3991 -0.1098 -1.5203
 3006TIP3   OH233212   3.114   2.478  14.988 -0.6341 -0.2780  0.4750
 3006TIP3    H133213   3.060   2.415  14.940 -1.4238 -0.3003  1.3720
 3006TIP3    H233214   3.055   2.517  15.052  0.3568 -0.1433  1.3331
 3007TIP3   OH233215   1.822   5.803  14.800 -0.6293 -0.0821  0.2965
 3007TIP3    H133216   1.874   5.770  14.727 -0.1833  1.6754 -0.2314
 3007TIP3    H233217   1.886   5.817  14.871 -1.1743 -2.5094  1.3396
 3008TIP3   OH233218   6.427   4.782  16.750  0.2484  0.5837  0.1757
 3008TIP3    H133219   6.473   4.792  16.666 -0.1364  2.0392  0.1160
 3008TIP3    H233220   6.467   4.705  16.790  2.0044  1.1802 -0.3557
 3009TIP3   OH233221   2.712   2.517  14.085 -0.0192 -0.0268  0.0673
 3009TIP3    H133222   2.727   2.500  13.992 -0.2474 -0.9784  0.2026
 3009TIP3    H233223   2.793   2.559  14.114 -0.7553  2.3858 -1.0432
 3010TIP3   OH233224   3.770   3.835  17.245  0.5318 -0.2043 -0.3177
 3010TIP3    H133225   3.855   3.857  17.282 -0.2107 -0.3690  1.5957
 3010TIP3    H233226   3.776   3.740  17.228  0.0767 -0.6525  1.7808
 3011TIP3   OH233227   5.564   4.281  16.220 -0.4102 -0.0327  0.0798
 3011TIP3    H133228   5.563   4.191  16.250  0.9224  0.1133  0.6721
 3011TIP3    H233229   5.622   4.326  16.282 -0.8057  1.1573 -0.3795
 3012TIP3   OH233230   2.383   0.401  15.368  0.7998 -0.2882  0.5476
 3012TIP3    H133231   2.461   0.419  15.421  0.1077 -0.9637  1.8618
 3012TIP3    H233232   2.416   0.387  15.280  2.1022  0.0068  0.9679
 3013TIP3   OH233233   2.366   6.524  15.065  0.2765  0.1716 -0.1899
 3013TIP3    H133234   2.435   6.565  15.118  0.3007 -0.2406  0.1003
 3013TIP3    H233235   2.285   6.545  15.112  0.1748  0.8383 -0.6452
 3014TIP3   OH233236   2.404   0.879  14.339  0.7976 -0.2019 -0.5235
 3014TIP3    H133237   2.476   0.874  14.276  0.0148 -0.9417 -1.3913
 3014TIP3    H233238   2.444   0.857  14.423  1.5102 -1.0342 -1.0635
 3015TIP3   OH233239   2.395   1.689  15.369 -0.1309 -0.4806 -0.1682
 3015TIP3    H133240   2.374   1.689  15.463 -0.9514 -2.1415 -0.3163
 3015TIP3    H233241   2.487   1.715  15.365 -0.1938  0.0016  1.0639
 3016TIP3   OH233242   3.376   1.587  16.114  0.3662 -0.0422 -0.2511
 3016TIP3    H133243   3.379   1.493  16.132  1.6849  0.1136  0.5113
 3016TIP3    H233244   3.325   1.623  16.187 -1.6255 -0.3149 -1.4441
 3017TIP3   OH233245   3.045   2.363  14.307 -0.0787 -0.4215 -0.4104
 3017TIP3    H133246   3.117   2.301  14.310  0.5220  0.2808  0.8807
 3017TIP3    H233247   2.974   2.316  14.264  0.6274 -1.7002 -0.2243
 3018TIP3   OH233248   1.612   5.912  13.984 -0.3162 -0.2723 -0.3373
 3018TIP3    H133249   1.548   5.977  14.010 -0.7675 -0.7473 -0.2441
 3018TIP3    H233250   1.622   5.855  14.061 -0.3974 -0.6802 -0.6218
 3019TIP3   OH233251   4.774   6.387  13.880 -0.2580 -0.0425 -0.0738
 3019TIP3    H133252   4.819   6.310  13.846 -0.1716 -0.1674  0.3113
 3019TIP3    H233253   4.690   6.354  13.911 -0.4759  0.1318 -0.4906
 3020TIP3   OH233254   3.380   0.417  15.569 -0.2263  0.2145  0.5041
 3020TIP3    H133255   3.318   0.485  15.597  0.0613  0.9586 -0.5705
 3020TIP3    H233256   3.466   0.460  15.573 -0.2011  0.5062 -1.7605
 3021TIP3   OH233257   0.571   0.849  14.338 -0.4230  0.1834  0.4051
 3021TIP3    H133258   0.653   0.821  14.297 -0.4276  0.8384 -0.0606
 3021TIP3    H233259   0.543   0.772  14.388 -0.0991 -0.4332 -0.3239
 3022TIP3   OH233260   2.907   3.267  16.551  0.7364  0.2561 -0.1538
 3022TIP3    H133261   2.993   3.236  16.522  0.0911 -1.8159 -0.0637
 3022TIP3    H233262   2.910   3.362  16.540  2.9435  0.2088 -0.3698
 3023TIP3   OH233263   4.254   3.535  16.792  0.0644 -0.1278  0.0164
 3023TIP3    H133264   4.232   3.447  16.822  1.9312 -0.3551  0.8628
 3023TIP3    H233265   4.281   3.581  16.872  1.7288  0.3534 -0.7806
 3024TIP3   OH233266   1.657   2.495  16.117  0.7347 -0.4601 -0.7711
 3024TIP3    H133267   1.731   2.505  16.057 -0.1451 -1.3809 -2.0830
 3024TIP3    H233268   1.642   2.400  16.121  0.1757 -0.3438  0.1770
 3025TIP3   OH233269   0.400   5.405  16.867  0.1006 -0.1238 -0.0968
 3025TIP3    H133270   0.489   5.371  16.867 -0.4280 -1.5560  0.3105
 3025TIP3    H233271   0.383   5.427  16.775  0.8556  0.1433 -0.1826
 3026TIP3   OH233272   4.042   0.840  13.171 -0.1821  0.5236 -0.3288
 3026TIP3    H133273   4.078   0.787  13.099 -1.4162 -0.7155 -0.0898
 3026TIP3    H233274   3.977   0.896  13.128  0.5335  1.2588 -0.4613
 3027TIP3   OH233275   5.325   6.463  15.473  0.1534 -0.0287 -0.3737
 3027TIP3    H133276   5.373   6.508  15.403 -0.1802  0.3205 -0.3802
 3027TIP3    H233277   5.290   6.385  15.431  0.6183 -0.2237 -0.3995
 3028TIP3   OH233278   0.577   4.471  15.110 -0.1969  0.3379 -0.5889
 3028TIP3    H133279   0.552   4.553  15.067  0.2361  1.3577  1.0436
 3028TIP3    H233280   0.494   4.427  15.128 -0.4878  0.8867 -0.5799
 3029TIP3   OH233281   1.117   0.641  14.438  0.5354  0.0763  0.3666
 3029TIP3    H133282   1.084   0.572  14.495  0.8039 -0.1333  0.2690
 3029TIP3    H233283   1.090   0.614  14.350  0.3392  0.2720  0.3655
 3030TIP3   OH233284   1.427   1.120  16.280  0.5591  0.1105 -0.5617
 3030TIP3    H133285   1.404   1.203  16.239  0.9277  1.1300  1.2399
 3030TIP3    H233286   1.356   1.060  16.254 -0.0244  1.1201 -1.3734
 3031TIP3   OH233287   0.249   0.721  15.894  0.5114  0.0043 -0.5094
 3031TIP3    H133288   0.272   0.735  15.986  0.2735 -0.8567 -0.3085
 3031TIP3    H233289   0.268   0.628  15.878 -2.9499 -0.9024 -0.2447
 3032TIP3   OH233290   3.071   0.036  14.276 -0.7597 -0.6342 -0.0526
 3032TIP3    H133291   3.061   0.044  14.181 -0.2192 -3.9403 -0.5107
 3032TIP3    H233292   2.993  -0.013  14.304 -0.7077 -0.0673  1.1527
 3033TIP3   OH233293   3.311   6.597  13.824 -0.3694 -0.3099 -0.7298
 3033TIP3    H133294   3.289   6.690  13.823  1.1046  0.1164  1.0837
 3033TIP3    H233295   3.378   6.588  13.756 -0.1231  0.0797 -0.5423
 3034TIP3   OH233296   3.750   5.757  16.730  0.7849  0.2417 -0.1946
 3034TIP3    H133297   3.693   5.737  16.656 -1.1667  2.1562  0.6967
 3034TIP3    H233298   3.778   5.848  16.715 -0.8743  1.2228  2.0620
 3035TIP3   OH233299   5.115   4.271  15.494  0.3384 -0.5079  0.1136
 3035TIP3    H133300   5.191   4.227  15.533  0.0698 -0.6563  0.4883
 3035TIP3    H233301   5.044   4.252  15.556  0.5920  2.0122  1.2962
 3036TIP3   OH233302   1.824   6.087  14.695  0.0310 -0.0324  1.2464
 3036TIP3    H133303   1.816   5.994  14.718  0.2830 -0.1516  0.8707
 3036TIP3    H233304   1.777   6.133  14.764  1.2725 -0.3406  2.3457
 3037TIP3   OH233305   5.464   4.959  15.233  0.1060 -0.1154 -0.1504
 3037TIP3    H133306   5.494   4.874  15.264  0.0928 -0.2018 -0.3684
 3037TIP3    H233307   5.430   4.941  15.145 -0.0698  0.0806 -0.1227
 3038TIP3   OH233308   3.161   0.088  14.804 -0.2947 -0.0903  0.1331
 3038TIP3    H133309   3.251   0.054  14.803 -0.4062 -0.3973 -0.8018
 3038TIP3    H233310   3.147   0.116  14.894  0.3086 -1.1990  0.5891
 3039TIP3   OH233311   1.727   1.933  15.000  0.2846  0.2525 -0.5885
 3039TIP3    H133312   1.691   1.970  15.081 -0.2397  1.6088 -1.4098
 3039TIP3    H233313   1.816   1.970  14.994  0.7100 -0.6669 -0.1230
 3040TIP3   OH233314   2.265   3.200  16.601  0.1275 -0.4352 -0.2765
 3040TIP3    H133315   2.333   3.227  16.662  0.6986 -0.2636 -0.9753
 3040TIP3    H233316   2.298   3.226  16.515 -0.2744 -1.4371 -0.7486
 3041TIP3   OH233317   3.028   5.043  15.161 -0.2739  0.8712 -0.4469
 3041TIP3    H133318   3.073   5.069  15.080  2.7483 -0.0508  0.7894
 3041TIP3    H233319   3.073   5.092  15.230  1.7174 -3.0149  1.3171
 3042TIP3   OH233320   2.971   2.050  15.436 -0.1842 -0.0117  0.4411
 3042TIP3    H133321   3.044   1.990  15.451 -0.4170  0.1499  2.4366
 3042TIP3    H233322   3.013   2.134  15.417  0.1580 -0.8253 -3.0210
 3043TIP3   OH233323   0.157   0.033  14.492  0.3398  0.2527  0.8716
 3043TIP3    H133324   0.163   0.098  14.562 -0.0658 -1.8197  2.9687
 3043TIP3    H233325   0.236   0.047  14.439  0.7172  1.8335  1.7897
 3044TIP3   OH233326   4.392   2.584  16.568  0.4869  0.1070 -0.1987
 3044TIP3    H133327   4.344   2.512  16.526 -0.5362  0.1698  0.8208
 3044TIP3    H233328   4.413   2.552  16.655  0.1349  0.9887  0.2215
 3045TIP3   OH233329   4.294   3.759  16.422 -0.7390  0.1290  0.2774
 3045TIP3    H133330   4.213   3.784  16.467 -1.9344  0.5302 -1.9714
 3045TIP3    H233331   4.350   3.725  16.492 -2.8820 -0.3176  1.8863
 3046TIP3   OH233332   1.772   2.038  16.231 -0.7576  1.0647 -0.3402
 3046TIP3    H133333   1.829   1.990  16.292 -0.7780  1.0508 -0.3323
 3046TIP3    H233334   1.745   1.973  16.166 -1.5305  0.8454  0.1905
 3047TIP3   OH233335   5.765   4.183  15.530 -0.2558  0.3228  0.3452
 3047TIP3    H133336   5.695   4.223  15.582 -0.0727  0.7841  0.2393
 3047TIP3    H233337   5.788   4.250  15.466 -0.3091 -0.1520 -0.1760
 3048TIP3   OH233338   1.929   3.625  16.798 -0.2115  0.4567  0.6436
 3048TIP3    H133339   1.933   3.692  16.867 -0.2527  0.0509  1.0395
 3048TIP3    H233340   1.999   3.650  16.737  0.3582  0.3605  1.2468
 3049TIP3   OH233341   4.099   5.091  14.715  0.0854 -0.7914  0.2162
 3049TIP3    H133342   4.180   5.130  14.682 -0.1494  0.3045  0.8734
 3049TIP3    H233343   4.065   5.156  14.777 -0.3146 -2.0668  1.3854
 3050TIP3   OH233344   6.639   5.638  16.502 -0.1723  0.5253  0.2404
 3050TIP3    H133345   6.723   5.624  16.546 -1.2257  0.8797  2.5142
 3050TIP3    H233346   6.613   5.550  16.473  0.9618  0.4149 -0.5156
 3051TIP3   OH233347   4.562   5.821  14.944  0.1925  0.2526 -0.2391
 3051TIP3    H133348   4.541   5.756  14.878  1.7640  0.2761 -0.8094
 3051TIP3    H233349   4.651   5.849  14.923  0.7172  0.3172  1.8397
 3052TIP3   OH233350   6.297   1.507  16.291 -0.5515 -0.4094  0.8019
 3052TIP3    H133351   6.313   1.552  16.373  0.4391 -1.6560  1.3200
 3052TIP3    H233352   6.383   1.478  16.262 -1.1159 -1.6683  0.3304
 3053TIP3   OH233353   5.004   2.376  14.836  0.3937  0.2806  0.3501
 3053TIP3    H133354   5.024   2.289  14.871 -0.3923 -0.0933 -0.0988
 3053TIP3    H233355   5.086   2.404  14.794  0.1010 -1.1427 -1.3032
 3054TIP3   OH233356   1.452   5.621  16.859  0.1443 -0.3619  0.1561
 3054TIP3    H133357   1.448   5.717  16.859 -2.5988 -0.3738  1.0410
 3054TIP3    H233358   1.543   5.601  16.838  1.5763  2.4673  2.7153
 3055TIP3   OH233359   2.815   1.945  16.806  0.4811 -0.6311 -0.4858
 3055TIP3    H133360   2.840   1.893  16.882  0.2159  2.3343  1.8004
 3055TIP3    H233361   2.720   1.934  16.800  0.5402 -1.1142 -0.6104
 3056TIP3   OH233362   5.125   0.752  13.453  0.0556 -0.0502  0.9518
 3056TIP3    H133363   5.061   0.681  13.453  0.3326 -0.3445 -1.0967
 3056TIP3    H233364   5.080   0.827  13.414  1.2503 -0.6401 -1.8002
 3057TIP3   OH233365   1.828   0.939  16.802  0.2732 -0.6221  0.0027
 3057TIP3    H133366   1.781   1.020  16.781 -0.0278 -0.7939  0.0069
 3057TIP3    H233367   1.832   0.892  16.719  0.1329 -0.7617  0.0733
 3058TIP3   OH233368   5.536   2.367  17.073 -0.3675  0.1620  0.1859
 3058TIP3    H133369   5.463   2.360  17.133  0.3200  1.4375  1.2438
 3058TIP3    H233370   5.526   2.454  17.034 -0.6226 -0.5192 -1.3389
 3059TIP3   OH233371   5.477   0.967  17.080  0.3841 -0.4229 -0.0226
 3059TIP3    H133372   5.473   1.061  17.065  0.2343 -0.2912  0.7817
 3059TIP3    H233373   5.570   0.949  17.093  0.5164 -0.5426 -1.0677
 3060TIP3   OH233374   4.640   0.052  16.311  0.3208  0.1258  0.4077
 3060TIP3    H133375   4.598  -0.012  16.367 -0.2731 -0.1749 -0.3723
 3060TIP3    H233376   4.623   0.022  16.222  2.3415 -0.1154  0.0561
 3061TIP3   OH233377   3.220   0.973  14.020 -0.3441  0.4867 -0.2526
 3061TIP3    H133378   3.258   0.887  14.039  0.1238  0.8100  0.3152
 3061TIP3    H233379   3.138   0.974  14.069 -0.4155  0.3228 -0.3649
 3062TIP3   OH233380   3.148   3.958  16.238 -0.5488  1.2549 -0.1496
 3062TIP3    H133381   3.205   3.881  16.246 -1.9523  0.2954  1.1782
 3062TIP3    H233382   3.130   3.983  16.329 -0.7715  2.6780 -0.5707
 3063TIP3   OH233383   5.949   1.365  13.850 -0.0817  0.8248 -0.1182
 3063TIP3    H133384   5.987   1.312  13.781 -1.4152 -1.1755  0.5912
 3063TIP3    H233385   5.897   1.304  13.902 -2.2296  2.9093  0.3959
 3064TIP3   OH233386   0.344   4.573  15.328 -0.4291 -0.1624 -0.3856
 3064TIP3    H133387   0.387   4.567  15.413 -1.3721  0.2566  0.1347
 3064TIP3    H233388   0.401   4.524  15.269  0.6001  0.1279  0.3347
 3065TIP3   OH233389   5.008   1.825  17.008 -0.7645 -0.3061 -0.3673
 3065TIP3    H133390   5.008   1.921  17.006 -1.1046 -0.2728  0.6210
 3065TIP3    H233391   4.934   1.801  16.953 -0.9478  0.0205 -0.2689
 3066TIP3   OH233392   6.111   0.943  16.043 -0.0692  0.0508  0.2174
 3066TIP3    H133393   6.101   1.034  16.072 -2.4619  0.0127 -0.2797
 3066TIP3    H233394   6.153   0.899  16.117 -0.4628  1.2220  1.1817
 3067TIP3   OH233395   6.608   0.589  15.822 -0.2125 -0.1165  0.0482
 3067TIP3    H133396   6.610   0.582  15.917  0.9648  3.7799  0.4593
 3067TIP3    H233397   6.552   0.665  15.804  0.8599  0.2200 -2.2587
 3068TIP3   OH233398   5.831   0.554  16.407  0.3110 -0.3109 -0.3565
 3068TIP3    H133399   5.793   0.581  16.491  1.4789  0.9803 -0.2154
 3068TIP3    H233400   5.759   0.560  16.345 -0.4873 -0.9562  0.4639
 3069TIP3   OH233401   2.323   0.864  15.049  0.3142 -0.6091 -0.0899
 3069TIP3    H133402   2.261   0.806  15.004 -1.5973  3.6033 -3.6558
 3069TIP3    H233403   2.272   0.901  15.122 -0.8127  1.0999 -1.6333
 3070TIP3   OH233404   4.310   4.818  14.816 -0.2761  0.2165  0.3282
 3070TIP3    H133405   4.334   4.870  14.740  0.0485  1.1842  1.0829
 3070TIP3    H233406   4.351   4.733  14.800 -0.6221  0.2398 -0.8002
 3071TIP3   OH233407   4.265   4.708  15.910 -0.3468  0.6068 -0.6767
 3071TIP3    H133408   4.326   4.761  15.961 -0.8629  2.0166 -1.4626
 3071TIP3    H233409   4.199   4.679  15.973  0.7216 -0.3598  0.0443
 3072TIP3   OH233410   5.939   1.136  15.633 -0.0494 -0.5213  0.5162
 3072TIP3    H133411   5.999   1.077  15.677  0.0211 -0.8527 -0.0209
 3072TIP3    H233412   5.941   1.109  15.541 -0.6103 -0.1921  0.4018
 3073TIP3   OH233413   2.690   4.658  13.163  0.1742  0.0533 -0.5322
 3073TIP3    H133414   2.690   4.713  13.241  2.4699  2.1605 -1.8663
 3073TIP3    H233415   2.622   4.592  13.179  0.9105  0.0654  3.3938
 3074TIP3   OH233416   3.531   4.945  13.387 -0.3744 -0.4244  0.3622
 3074TIP3    H133417   3.444   4.940  13.427 -1.2850  0.9436 -1.3084
 3074TIP3    H233418   3.588   4.974  13.458 -1.9954  2.3116  0.7066
 3075TIP3   OH233419   1.433   6.300  15.898  0.2891  0.1118 -0.3334
 3075TIP3    H133420   1.338   6.309  15.911  0.1936 -0.3876 -0.6709
 3075TIP3    H233421   1.442   6.243  15.822  0.8597  0.7338 -0.7440
 3076TIP3   OH233422   4.132   6.209  15.263 -0.0194  0.1380  0.2865
 3076TIP3    H133423   4.040   6.183  15.267 -0.2512  1.0721  2.6068
 3076TIP3    H233424   4.139   6.259  15.181 -1.2718 -0.9164 -0.4951
 3077TIP3   OH233425   5.257   6.681  14.818 -0.4066  0.3036 -0.1537
 3077TIP3    H133426   5.163   6.689  14.835 -0.4688 -1.0688  0.2408
 3077TIP3    H233427   5.269   6.591  14.790  0.9912  0.0377  1.1877
 3078TIP3   OH233428   4.449   5.884  13.145 -0.5172  0.3937 -0.4234
 3078TIP3    H133429   4.400   5.965  13.158  0.1618  0.4123  2.6007
 3078TIP3    H233430   4.513   5.906  13.077 -0.5873  2.2911  0.0630
 3079TIP3   OH233431   1.776   2.212  15.956 -0.4330 -0.5559 -0.2771
 3079TIP3    H133432   1.856   2.165  15.934 -1.2785 -1.3712 -1.7754
 3079TIP3    H233433   1.711   2.179  15.894 -2.1460 -0.5234  1.4021
 3080TIP3   OH233434   0.981   0.338  15.907  0.4230  0.0137 -0.0985
 3080TIP3    H133435   0.949   0.428  15.904  1.6972  0.4926  0.1307
 3080TIP3    H233436   0.980   0.308  15.816  3.9990  1.7628 -0.9065
 3081TIP3   OH233437   3.885   2.635  14.614 -0.0798  0.1232 -0.3064
 3081TIP3    H133438   3.824   2.646  14.687 -0.6688 -0.6521 -0.6648
 3081TIP3    H233439   3.888   2.720  14.571  0.2909  0.5940  0.6267
 3082TIP3   OH233440   2.316   6.521  14.240  0.1934  0.1632  0.9870
 3082TIP3    H133441   2.317   6.488  14.150 -1.5809 -3.1344  2.0353
 3082TIP3    H233442   2.251   6.592  14.238  1.1655  1.0724 -0.5481
 3083TIP3   OH233443   2.226   1.733  16.588  0.6322  0.4173  0.3267
 3083TIP3    H133444   2.290   1.664  16.577  0.2412  0.3316 -2.0014
 3083TIP3    H233445   2.189   1.719  16.675  1.3521 -1.5978  0.3466
 3084TIP3   OH233446   5.400   5.240  14.376 -0.5503 -0.1648 -0.8663
 3084TIP3    H133447   5.434   5.301  14.442  0.7659 -0.5764 -1.1414
 3084TIP3    H233448   5.478   5.204  14.333 -1.3314 -1.2868 -1.4027
 3085TIP3   OH233449   4.493   3.332  14.472  0.3445  0.5396 -0.3348
 3085TIP3    H133450   4.515   3.326  14.379  1.2484 -1.1804 -0.0467
 3085TIP3    H233451   4.400   3.312  14.476  0.5702 -0.6540 -0.7639
 3086TIP3   OH233452   1.339   6.588  13.994  0.0280 -0.1109 -0.4788
 3086TIP3    H133453   1.303   6.538  14.067  0.4711  1.0085  0.5495
 3086TIP3    H233454   1.384   6.523  13.940 -0.6369 -1.0159  0.0365
 3087TIP3   OH233455   5.000   3.753  15.195  0.4935 -0.1158 -0.5260
 3087TIP3    H133456   4.952   3.712  15.123 -1.4498  1.2676 -0.0942
 3087TIP3    H233457   5.062   3.811  15.153  0.6500 -0.6842 -1.0902
 3088TIP3   OH233458   1.719   3.552  15.866 -0.3629 -0.1512 -0.0354
 3088TIP3    H133459   1.644   3.511  15.823  0.2325  1.4906 -2.9499
 3088TIP3    H233460   1.728   3.637  15.822 -0.3895  2.4122  4.2985
 3089TIP3   OH233461   0.054   2.263  13.834 -0.0012  0.5407  0.1080
 3089TIP3    H133462  -0.038   2.241  13.822  0.3753 -1.2393  0.1725
 3089TIP3    H233463   0.087   2.276  13.745  0.3963 -2.1996 -0.2509
 3090TIP3   OH233464   4.432   2.699  15.362 -0.0113  0.2094  0.2585
 3090TIP3    H133465   4.364   2.762  15.340 -0.5999 -0.9717 -1.4712
 3090TIP3    H233466   4.401   2.657  15.442 -0.7356  0.5066  0.1408
 3091TIP3   OH233467   1.539   4.281  15.836 -0.3482 -0.0379  0.5707
 3091TIP3    H133468   1.622   4.253  15.796 -1.6916  0.4907 -2.9834
 3091TIP3    H233469   1.497   4.199  15.861  0.4918 -0.4336  0.7270
 3092TIP3   OH233470   6.653   3.229  14.850  0.1435 -0.0605 -0.7550
 3092TIP3    H133471   6.682   3.270  14.932  0.3957 -1.4063 -0.1432
 3092TIP3    H233472   6.626   3.302  14.795  0.0299  0.8820  0.5082
 3093TIP3   OH233473   2.343   3.682  15.101 -0.1628  0.5565 -0.8665
 3093TIP3    H133474   2.394   3.698  15.022  0.6935 -1.3835 -0.7605
 3093TIP3    H233475   2.323   3.769  15.135  1.1761  1.3888 -2.1140
 3094TIP3   OH233476   3.427   4.896  14.257 -0.3898 -0.5466  0.0618
 3094TIP3    H133477   3.392   4.921  14.171 -1.2443  1.0134  0.8013
 3094TIP3    H233478   3.501   4.955  14.270 -0.6520 -0.3436  0.6466
 3095TIP3   OH233479   1.553   4.193  14.128  0.4487 -0.0244 -0.8724
 3095TIP3    H133480   1.589   4.265  14.179  0.4122 -1.5643  1.5041
 3095TIP3    H233481   1.460   4.214  14.119  0.4566  0.2966 -0.2879
 3096TIP3   OH233482   2.365   0.249  16.274  0.0795  0.4458 -0.1356
 3096TIP3    H133483   2.357   0.312  16.203  3.4478  0.6036 -0.5484
 3096TIP3    H233484   2.408   0.298  16.344  0.9263 -0.8396  0.2748
 3097TIP3   OH233485   0.791   0.320  14.467  0.6658 -0.3133  0.2278
 3097TIP3    H133486   0.715   0.350  14.417  0.4433 -2.1324 -0.6444
 3097TIP3    H233487   0.834   0.400  14.497 -0.7812  0.7856 -0.4939
 3098TIP3   OH233488   2.915   4.205  14.217 -0.3165  0.0716  0.6293
 3098TIP3    H133489   2.925   4.296  14.188  1.9255 -0.0571  0.7767
 3098TIP3    H233490   2.907   4.154  14.136  0.9897  0.1821  0.4118
 3099TIP3   OH233491   5.661   2.206  15.689 -0.3099  0.3041 -0.1334
 3099TIP3    H133492   5.673   2.280  15.747 -1.4506  0.4968 -0.1127
 3099TIP3    H233493   5.567   2.186  15.694  0.0715 -1.5665  0.3716
 3100TIP3   OH233494   0.660   0.730  13.746  0.1517 -0.0657 -0.0461
 3100TIP3    H133495   0.599   0.802  13.753 -0.1386 -0.4127  1.1466
 3100TIP3    H233496   0.737   0.768  13.704 -0.3607  0.6918 -0.3211
 3101TIP3   OH233497   0.242   2.464  15.328 -0.3865  0.0926  0.2787
 3101TIP3    H133498   0.271   2.534  15.387 -0.4341 -0.6142  1.1492
 3101TIP3    H233499   0.318   2.407  15.318 -0.4292  0.1186 -0.2146
 3102TIP3   OH233500   6.666   2.831  14.445  0.1748  0.2482  0.3684
 3102TIP3    H133501   6.585   2.784  14.427  1.2347 -1.8409  0.8481
 3102TIP3    H233502   6.694   2.800  14.531  0.4411  2.5175  1.1726
 3103TIP3   OH233503   1.103   5.244  16.777 -0.0097  0.1347  0.5869
 3103TIP3    H133504   1.153   5.234  16.695  0.4558 -1.5051  1.0200
 3103TIP3    H233505   1.149   5.313  16.825  0.4945  0.2177  0.0005
 3104TIP3   OH233506   6.053   1.294  14.137  0.0974 -0.1639 -0.3566
 3104TIP3    H133507   6.146   1.318  14.135  0.2816 -0.8706 -0.3870
 3104TIP3    H233508   6.046   1.222  14.074 -0.5077  0.0053 -0.4844
 3105TIP3   OH233509   6.254   4.330  16.723 -0.0562 -0.6978  0.3481
 3105TIP3    H133510   6.252   4.345  16.817  0.7794 -3.6425  0.9345
 3105TIP3    H233511   6.206   4.248  16.710  0.3817 -0.7063 -1.7051
 3106TIP3   OH233512   5.491   6.104  14.373  0.3715 -0.5777 -0.1334
 3106TIP3    H133513   5.410   6.156  14.367  0.9031  0.4923  1.3276
 3106TIP3    H233514   5.555   6.153  14.322  0.9428  0.4153  1.4563
 3107TIP3   OH233515   2.769   3.846  16.307  0.1483  0.8492 -0.0625
 3107TIP3    H133516   2.760   3.801  16.391 -3.9647  0.8631 -0.2551
 3107TIP3    H233517   2.805   3.932  16.329 -0.8849  0.8724  1.7823
 3108TIP3   OH233518   0.741   2.774  16.186 -0.1233 -0.1622  0.3701
 3108TIP3    H133519   0.834   2.763  16.166  0.7490  1.1088  3.2245
 3108TIP3    H233520   0.722   2.865  16.163 -0.9205 -0.6210 -0.9048
 3109TIP3   OH233521   2.763   3.787  14.322  0.0856 -0.0064 -0.2037
 3109TIP3    H133522   2.740   3.708  14.371  1.1872  0.5036  1.1880
 3109TIP3    H233523   2.811   3.754  14.246 -0.1353 -0.7151 -0.0504
 3110TIP3   OH233524   5.497   1.885  15.642  0.6157 -0.7657 -0.0893
 3110TIP3    H133525   5.410   1.864  15.609  0.5362 -0.0581 -0.3358
 3110TIP3    H233526   5.533   1.946  15.578  0.7858 -0.0361  0.6875
 3111TIP3   OH233527   0.530   0.309  15.442  0.3918  0.6934  0.2121
 3111TIP3    H133528   0.465   0.251  15.402 -0.2954  0.1281  2.0140
 3111TIP3    H233529   0.514   0.395  15.402  1.3251 -0.2451 -2.3888
 3112TIP3   OH233530   6.544   5.166  14.518 -0.0649 -0.1123  0.1951
 3112TIP3    H133531   6.545   5.139  14.610 -0.2309  0.0073  0.2340
 3112TIP3    H233532   6.635   5.184  14.496 -0.2503  2.0829  1.0014
 3113TIP3   OH233533   4.462   5.769  15.581 -0.3542 -0.1782  0.3442
 3113TIP3    H133534   4.369   5.789  15.573 -0.5141 -0.6034  1.0202
 3113TIP3    H233535   4.489   5.740  15.494 -0.7502  0.3703  0.0377
 3114TIP3   OH233536   1.258   0.974  14.180 -0.3069  0.0808  0.6537
 3114TIP3    H133537   1.345   1.007  14.158 -0.1831 -1.1059 -0.7689
 3114TIP3    H233538   1.269   0.934  14.266  0.4361  0.3511  0.6939
 3115TIP3   OH233539   5.302   5.383  16.596 -0.0888 -0.0728  0.0790
 3115TIP3    H133540   5.392   5.393  16.567  0.1964  0.6042  1.1588
 3115TIP3    H233541   5.286   5.289  16.593 -0.4261 -0.0272 -3.2335
 3116TIP3   OH233542   2.511   5.759  14.699  0.2935  0.3577  0.5522
 3116TIP3    H133543   2.465   5.676  14.683  1.4864  0.0435 -1.5504
 3116TIP3    H233544   2.598   5.733  14.728  0.3430  0.9080  0.9211
 3117TIP3   OH233545   0.612   2.433  15.441 -0.2385  0.3491  0.0643
 3117TIP3    H133546   0.564   2.513  15.462  0.4069  0.2974  1.8940
 3117TIP3    H233547   0.690   2.463  15.395 -0.6384  0.6535 -0.4245
 3118TIP3   OH233548   5.952   0.150  17.112 -0.0985  0.7995  0.0182
 3118TIP3    H133549   5.903   0.107  17.043  2.0824 -0.9179 -0.5822
 3118TIP3    H233550   5.996   0.223  17.068  1.1558 -0.1928 -0.4402
 3119TIP3   OH233551   3.853   3.035  13.645 -0.2748  0.1039  0.6055
 3119TIP3    H133552   3.818   3.096  13.579 -1.0057  0.0245  0.9151
 3119TIP3    H233553   3.862   2.952  13.598 -0.4199  0.1448  0.5058
 3120TIP3   OH233554   5.576   4.393  14.336 -0.4812  0.0615  0.5924
 3120TIP3    H133555   5.555   4.314  14.285  3.2381 -0.6840 -0.0708
 3120TIP3    H233556   5.542   4.465  14.284  0.1155 -0.8909 -1.1933
 3121TIP3   OH233557   3.203   0.611  15.653 -0.2925  0.0721  0.0788
 3121TIP3    H133558   3.250   0.618  15.735  0.4588  0.3948 -0.3706
 3121TIP3    H233559   3.155   0.694  15.646 -0.3483  0.0488  0.1810
 3122TIP3   OH233560   3.137   3.469  15.983 -0.4309  0.0555 -0.0153
 3122TIP3    H133561   3.153   3.471  15.889 -1.6824 -2.5649 -0.3691
 3122TIP3    H233562   3.078   3.542  16.000  0.6789  1.2254 -1.0379
 3123TIP3   OH233563   4.825   1.793  16.815 -0.2766  0.9005  1.1592
 3123TIP3    H133564   4.881   1.727  16.773 -0.2865  0.3770  1.9484
 3123TIP3    H233565   4.756   1.810  16.751 -0.7724 -0.5099  1.2878
 3124TIP3   OH233566   3.506   5.144  14.462 -0.0915  0.5480 -0.1213
 3124TIP3    H133567   3.517   5.085  14.536  0.9028  0.3256 -0.4376
 3124TIP3    H233568   3.439   5.206  14.491  0.5905  0.7271  1.1330
 3125TIP3   OH233569   0.596   5.223  16.581 -0.0517  0.8250  0.6323
 3125TIP3    H133570   0.509   5.186  16.597 -0.5933  0.9829 -1.6090
 3125TIP3    H233571   0.654   5.147  16.580 -0.9786 -0.0266 -2.7139
 3126TIP3   OH233572   5.055   5.937  15.824  0.2649 -0.0682 -0.1305
 3126TIP3    H133573   4.980   5.887  15.856 -0.1263  0.8223  0.3957
 3126TIP3    H233574   5.086   5.888  15.749 -0.9378 -0.3880 -0.4446
 3127TIP3   OH233575   5.593   1.737  16.116 -0.2440 -0.1703 -0.0818
 3127TIP3    H133576   5.589   1.757  16.023 -2.7794  0.6039  0.1300
 3127TIP3    H233577   5.686   1.719  16.133  0.2933 -0.1701 -2.6864
 3128TIP3   OH233578   0.289   4.491  14.904  0.4201  0.8366  0.4071
 3128TIP3    H133579   0.309   4.472  14.812  1.0369  0.4058  0.6295
 3128TIP3    H233580   0.292   4.587  14.910  1.2576  0.8273  0.1785
 3129TIP3   OH233581   4.762   2.576  16.741  0.0111 -0.2747 -0.3868
 3129TIP3    H133582   4.676   2.542  16.766  0.8065  0.4899  4.2107
 3129TIP3    H233583   4.820   2.499  16.746  0.3706  0.0842  1.5510
 3130TIP3   OH233584   5.373   6.330  16.328 -0.0399  0.1863 -0.1969
 3130TIP3    H133585   5.454   6.357  16.285 -0.0599  2.3776  0.9796
 3130TIP3    H233586   5.305   6.343  16.262  0.3104  0.3563 -0.5290
 3131TIP3   OH233587   6.497   2.511  16.164 -0.1424  0.0534  0.0677
 3131TIP3    H133588   6.523   2.446  16.099  0.7639  1.6073 -1.1988
 3131TIP3    H233589   6.469   2.586  16.113  1.5017  1.6875  1.4390
 3132TIP3   OH233590   0.666   4.469  16.168 -0.2714  0.7732  0.3542
 3132TIP3    H133591   0.693   4.422  16.089 -0.3856 -0.6947  1.1448
 3132TIP3    H233592   0.592   4.419  16.201 -0.1804  1.3221  1.4252
 3133TIP3   OH233593   2.649   3.053  14.545  0.0062 -0.2801  0.1226
 3133TIP3    H133594   2.635   3.016  14.458  1.9269 -1.1186  0.1212
 3133TIP3    H233595   2.743   3.068  14.550 -0.0090 -0.6050  2.2022
 3134TIP3   OH233596   4.561   5.816  15.851  0.3285 -0.0691  0.2352
 3134TIP3    H133597   4.537   5.794  15.761 -1.3554  0.6733  0.4629
 3134TIP3    H233598   4.543   5.910  15.859  0.9078 -0.0209  1.2069
 3135TIP3   OH233599   3.273   0.215  15.715 -0.1578 -0.0051 -0.0463
 3135TIP3    H133600   3.202   0.254  15.766  0.6155  0.0086  1.0585
 3135TIP3    H233601   3.314   0.289  15.670  0.5996  0.3489  1.1608
 3136TIP3   OH233602   5.042   4.559  13.898 -0.1282  0.3041  0.2427
 3136TIP3    H133603   5.047   4.474  13.854  1.3012 -0.2783  1.4391
 3136TIP3    H233604   5.109   4.612  13.856 -0.8312  0.7616 -0.3151
 3137TIP3   OH233605   3.484   2.668  16.178 -0.0432 -0.6449  0.4469
 3137TIP3    H133606   3.530   2.599  16.129  2.7220 -0.6976  2.8378
 3137TIP3    H233607   3.526   2.749  16.148 -0.8969 -0.3196  0.1182
 3138TIP3   OH233608   4.135   1.392  14.062 -0.0343  0.1951  0.2970
 3138TIP3    H133609   4.132   1.373  14.155 -1.4125 -0.5661  0.1393
 3138TIP3    H233610   4.045   1.416  14.040 -0.4502 -2.4406 -1.3366
 3139TIP3   OH233611   3.438   6.036  14.041  0.0046 -0.2365  0.4748
 3139TIP3    H133612   3.525   6.021  14.004  0.0822 -2.4514  1.3662
 3139TIP3    H233613   3.452   6.100  14.111  0.5761  0.7440 -0.5009
 3140TIP3   OH233614   5.599   3.598  14.463  0.2905 -0.6282 -0.2736
 3140TIP3    H133615   5.512   3.624  14.435  0.2151 -0.3922  0.1655
 3140TIP3    H233616   5.597   3.606  14.558  0.0016 -3.0124 -0.0148
 3141TIP3   OH233617   6.339   1.643  17.132  0.1958 -0.3797  0.1275
 3141TIP3    H133618   6.431   1.653  17.158 -0.3414 -0.1080  2.1302
 3141TIP3    H233619   6.332   1.688  17.048  1.0029  3.6207  1.9949
 3142TIP3   OH233620   6.550   0.083  16.461 -0.0439 -0.0497  0.1885
 3142TIP3    H133621   6.524   0.171  16.488  1.0955  0.7776 -1.3099
 3142TIP3    H233622   6.546   0.085  16.365  2.9396 -0.6484 -0.0353
 3143TIP3   OH233623   3.025   3.743  15.463 -0.1433  0.4149  0.0236
 3143TIP3    H133624   3.058   3.744  15.373 -0.4268  0.5709 -0.0835
 3143TIP3    H233625   3.023   3.835  15.488 -0.3743  0.3993  0.0700
 3144TIP3   OH233626   1.640   6.453  16.110  0.0199  0.6878 -0.1725
 3144TIP3    H133627   1.661   6.543  16.085 -1.7741  1.2858  0.2832
 3144TIP3    H233628   1.633   6.406  16.027  0.3086  1.1403 -0.4540
 3145TIP3   OH233629   1.025   4.876  14.465 -0.4844 -0.2856  0.0567
 3145TIP3    H133630   1.081   4.825  14.406 -0.5378 -1.7144  1.1603
 3145TIP3    H233631   1.054   4.966  14.454 -0.1559 -0.5736 -1.7488
 3146TIP3   OH233632   0.920   0.880  14.597  0.3002 -0.2468 -0.0357
 3146TIP3    H133633   0.864   0.820  14.645 -0.4101  0.7952  0.4819
 3146TIP3    H233634   0.887   0.878  14.507 -0.6886  0.4694  0.2937
 3147TIP3   OH233635   6.142   5.753  14.411  0.1113  0.6057  0.1867
 3147TIP3    H133636   6.208   5.726  14.474  1.6702  1.0273 -1.1915
 3147TIP3    H233637   6.160   5.846  14.395 -1.6660  1.0897  0.7405
 3148TIP3   OH233638   4.548   5.980  13.841 -0.0584 -0.4299  0.0040
 3148TIP3    H133639   4.463   5.956  13.804 -0.3037  1.9531 -1.1787
 3148TIP3    H233640   4.612   5.939  13.783 -0.3423 -1.8809  0.6567
 3149TIP3   OH233641   0.727   5.450  15.054  0.1602 -0.2977 -0.0079
 3149TIP3    H133642   0.744   5.415  15.142 -0.8991 -0.0409  0.3180
 3149TIP3    H233643   0.783   5.398  14.996  0.0516 -1.2180  0.6895
 3150TIP3   OH233644   6.581   0.769  14.404 -0.2558  0.5045 -0.2923
 3150TIP3    H133645   6.487   0.772  14.386 -0.1951  2.4337 -0.5503
 3150TIP3    H233646   6.620   0.736  14.324 -0.6237  1.0280 -0.6943
 3151TIP3   OH233647   5.122   4.062  14.752 -0.0877  0.7591 -0.3867
 3151TIP3    H133648   5.194   4.067  14.689  0.7206  1.9424  0.5962
 3151TIP3    H233649   5.043   4.065  14.698  0.5696  2.5808 -1.3224
 3152TIP3   OH233650   5.158   0.966  16.108  0.3284 -0.0571  0.2255
 3152TIP3    H133651   5.160   1.060  16.121 -0.0049 -0.0905  0.5370
 3152TIP3    H233652   5.232   0.948  16.050 -1.7190  0.8784 -2.9713
 3153TIP3   OH233653   3.892   2.761  14.307 -0.7241 -0.0734  0.1457
 3153TIP3    H133654   3.880   2.843  14.355 -1.5378  0.4319 -0.8713
 3153TIP3    H233655   3.832   2.768  14.232  0.9542 -0.5515 -1.3001
 3154TIP3   OH233656   3.605   0.659  15.364 -0.7599  0.0715  0.4117
 3154TIP3    H133657   3.639   0.740  15.325 -2.9736  0.6401 -0.5262
 3154TIP3    H233658   3.667   0.638  15.433  1.1816  1.2332 -0.8760
 3155TIP3   OH233659   1.866   0.057  14.090 -0.3388  0.0073  0.2957
 3155TIP3    H133660   1.922   0.131  14.066  0.6647  0.0815  2.5810
 3155TIP3    H233661   1.856   0.006  14.009  0.7233  1.4776 -0.8080
 3156TIP3   OH233662   2.278   6.709  16.188  0.0973 -0.3161  0.1863
 3156TIP3    H133663   2.322   6.788  16.220  1.4070 -0.8327 -0.3041
 3156TIP3    H233664   2.341   6.639  16.201 -1.1015 -1.3419  0.7541
 3157TIP3   OH233665   1.032   5.550  13.387 -0.3456 -0.2341  0.1214
 3157TIP3    H133666   1.001   5.637  13.361 -0.8732 -0.7682 -1.1130
 3157TIP3    H233667   1.125   5.549  13.364 -0.3819 -0.0614 -0.0311
 3158TIP3   OH233668   4.898   4.984  13.911  0.2064  0.2676 -0.0013
 3158TIP3    H133669   4.857   4.977  13.825 -0.7773 -0.1933  0.4782
 3158TIP3    H233670   4.898   4.894  13.944  0.1600  0.4999  0.6539
 3159TIP3   OH233671   2.706   5.321  16.014 -0.1338  0.3853 -0.4846
 3159TIP3    H133672   2.761   5.395  16.037 -0.8294  0.5564  0.7694
 3159TIP3    H233673   2.667   5.294  16.098  0.3549 -1.6006 -0.8468
 3160TIP3   OH233674   3.167   4.401  16.529  0.0784 -0.3730 -0.3437
 3160TIP3    H133675   3.186   4.426  16.438 -3.0883  0.2808 -0.9344
 3160TIP3    H233676   3.239   4.343  16.553  0.9221 -0.7364 -3.3486
 3161TIP3   OH233677   3.034   3.376  15.723  0.0113 -0.1319 -0.3992
 3161TIP3    H133678   2.974   3.337  15.787 -0.0418  0.8560  0.1641
 3161TIP3    H233679   2.983   3.444  15.680 -0.5072 -1.8819 -2.7502
 3162TIP3   OH233680   4.446   4.593  16.314  0.1657  0.0450  0.4462
 3162TIP3    H133681   4.376   4.629  16.260  0.0696 -1.5010 -0.5238
 3162TIP3    H233682   4.464   4.661  16.380 -2.0430  0.5848  0.5512
 3163TIP3   OH233683   0.843   6.023  16.733 -0.0325 -0.1604 -0.0703
 3163TIP3    H133684   0.907   5.955  16.711 -1.3317 -1.1284 -0.9705
 3163TIP3    H233685   0.879   6.064  16.812  1.7491 -0.5892 -0.6072
 3164TIP3   OH233686   4.246   1.756  15.099  0.0107  0.1038  0.0556
 3164TIP3    H133687   4.313   1.701  15.058 -0.7381 -0.2993 -0.6480
 3164TIP3    H233688   4.288   1.790  15.177 -0.4512 -3.9989  2.3670
 3165TIP3   OH233689   6.317   0.594  16.965  0.2648  0.1012  0.6798
 3165TIP3    H133690   6.345   0.682  16.991 -1.1967  0.9213 -0.3306
 3165TIP3    H233691   6.229   0.607  16.931  0.8533 -1.3964 -1.6023
 3166TIP3   OH233692   0.561   4.394  15.447  0.3856  0.2981  0.2632
 3166TIP3    H133693   0.604   4.311  15.465  1.4589  0.8526  0.3428
 3166TIP3    H233694   0.633   4.456  15.432 -0.3569  1.3687  0.9323
 3167TIP3   OH233695   2.580   0.937  14.132  0.3230 -0.1502 -0.0129
 3167TIP3    H133696   2.553   1.029  14.126  2.9100  0.7038  0.0716
 3167TIP3    H233697   2.589   0.910  14.041  0.2276 -0.0755 -0.0445
 3168TIP3   OH233698   1.240   5.411  15.270 -0.1725 -0.0033 -0.2223
 3168TIP3    H133699   1.160   5.427  15.319  0.0593  0.5026 -0.0101
 3168TIP3    H233700   1.229   5.322  15.237 -0.1427 -0.5199  1.0968
 3169TIP3   OH233701   5.391   3.933  15.056  0.3168  0.0815  0.2307
 3169TIP3    H133702   5.432   3.847  15.049  1.1817  0.4293  0.8729
 3169TIP3    H233703   5.419   3.966  15.141  1.6727  1.8580 -0.8363
 3170TIP3   OH233704   4.225   6.071  16.712  0.1968 -0.2930  0.6612
 3170TIP3    H133705   4.159   6.006  16.733 -0.3156 -0.1951 -0.5590
 3170TIP3    H233706   4.212   6.090  16.619  0.9074  0.8998  0.7772
 3171TIP3   OH233707   0.979   2.679  16.717 -0.4507  0.2732  0.7246
 3171TIP3    H133708   0.939   2.739  16.780 -3.7302 -1.6742  0.6953
 3171TIP3    H233709   0.974   2.726  16.634  1.1607  1.6461  1.3338
 3172TIP3   OH233710   3.793   0.790  16.290 -0.0219  0.5483 -0.0714
 3172TIP3    H133711   3.869   0.847  16.283 -0.7969  1.4558 -1.5515
 3172TIP3    H233712   3.762   0.779  16.200 -1.7621  0.3728  0.5019
 3173TIP3   OH233713   4.384   3.235  16.621  0.2682 -0.1769  0.2028
 3173TIP3    H133714   4.402   3.301  16.687  1.5741  0.8639 -1.1436
 3173TIP3    H233715   4.464   3.182  16.617  1.0025  0.9882 -1.8736
 3174TIP3   OH233716   6.316   0.413  16.738  0.0286 -0.0019  0.0816
 3174TIP3    H133717   6.242   0.373  16.692  0.2127 -0.3596  0.1011
 3174TIP3    H233718   6.275   0.465  16.807 -0.3368  1.6425 -1.2892
 3175TIP3   OH233719   0.235   5.442  15.608  0.4155  0.4130 -0.0492
 3175TIP3    H133720   0.261   5.385  15.535 -0.8773  1.6985 -1.5771
 3175TIP3    H233721   0.315   5.453  15.659  1.0238 -1.6529 -0.4505
 3176TIP3   OH233722   3.386   4.656  15.737 -0.0211  0.0316  0.1900
 3176TIP3    H133723   3.390   4.710  15.816  0.1565  2.0359 -1.1190
 3176TIP3    H233724   3.302   4.679  15.697  1.1514  1.2723 -1.6736
 3177TIP3   OH233725   3.445   1.644  17.136  0.0448  0.5630  0.0893
 3177TIP3    H133726   3.438   1.590  17.058  0.9315  0.7234 -0.1203
 3177TIP3    H233727   3.355   1.662  17.162 -0.2546  0.1514 -0.6511
 3178TIP3   OH233728   3.671   4.509  15.523 -0.0856  0.2578 -0.8452
 3178TIP3    H133729   3.628   4.432  15.560  3.0482 -1.8184 -1.1268
 3178TIP3    H233730   3.694   4.563  15.599 -0.5174 -0.1007 -0.4557
 3179TIP3   OH233731   3.335   3.696  15.342 -0.2285  0.1608  0.7273
 3179TIP3    H133732   3.256   3.744  15.319  0.4285  1.3130  0.7592
 3179TIP3    H233733   3.386   3.758  15.395  0.6227 -0.6075  0.8448
 3180TIP3   OH233734   5.693   6.443  16.869  0.1569 -0.2835  0.4897
 3180TIP3    H133735   5.626   6.389  16.912  0.2306 -0.8615 -0.0983
 3180TIP3    H233736   5.705   6.517  16.927 -1.4650  0.1688  0.3227
 3181TIP3   OH233737   4.776   2.046  14.698  0.1047 -0.1360  0.0784
 3181TIP3    H133738   4.719   1.970  14.683 -0.7047  0.8505 -2.3944
 3181TIP3    H233739   4.717   2.116  14.723  0.0089  0.9994 -2.8837
 3182TIP3   OH233740   2.823   0.426  15.240 -0.2429  0.0963 -0.5852
 3182TIP3    H133741   2.770   0.500  15.211  0.1589  0.3749 -0.6287
 3182TIP3    H233742   2.863   0.393  15.159 -1.5452 -1.0868 -0.7812
 3183TIP3   OH233743   4.030   1.125  15.102  0.4201  0.3107 -0.2591
 3183TIP3    H133744   4.062   1.205  15.144  1.8218 -1.0423  1.4533
 3183TIP3    H233745   3.969   1.155  15.036  0.5096  2.7666  0.6653
 3184TIP3   OH233746   1.774   6.617  15.293  0.1533 -0.1284  0.1338
 3184TIP3    H133747   1.823   6.577  15.365  2.8165  2.1147 -0.2558
 3184TIP3    H233748   1.769   6.710  15.316 -2.1986  0.0642 -0.8854
 3185TIP3   OH233749   1.395   1.882  15.441  0.2458  0.3765  0.1556
 3185TIP3    H133750   1.335   1.905  15.511 -0.2107 -1.6174  0.5037
 3185TIP3    H233751   1.481   1.876  15.482  0.5469  2.2468 -0.1360
 3186TIP3   OH233752   5.560   3.546  16.528 -0.3317  0.1874  0.3677
 3186TIP3    H133753   5.491   3.481  16.539 -0.8926  0.8444  0.8643
 3186TIP3    H233754   5.607   3.545  16.611  0.8930 -0.9382 -0.2969
 3187TIP3   OH233755   5.037   0.761  14.425 -0.1445 -0.3534 -0.4840
 3187TIP3    H133756   5.017   0.713  14.344 -0.4598 -0.9629 -0.0565
 3187TIP3    H233757   5.133   0.759  14.430  0.0132  1.4711 -1.8841
 3188TIP3   OH233758   5.957   6.441  16.067  0.0104 -0.1905 -0.0932
 3188TIP3    H133759   6.012   6.452  16.145 -0.8207 -0.8541  0.6069
 3188TIP3    H233760   5.988   6.508  16.007  2.5399 -1.4225 -0.3007
 3189TIP3   OH233761   2.012   4.702  17.003  1.0456 -0.0587 -0.3879
 3189TIP3    H133762   2.006   4.788  16.961  0.1154 -0.2255 -0.6033
 3189TIP3    H233763   2.097   4.703  17.047  0.2788  1.6831  1.1876
 3190TIP3   OH233764   0.628   1.868  13.379 -0.6656  0.3108  0.2921
 3190TIP3    H133765   0.583   1.829  13.455 -1.2087  0.5123  0.0767
 3190TIP3    H233766   0.564   1.863  13.308 -0.1735  0.1613 -0.1495
 3191TIP3   OH233767   2.379   3.598  14.451  0.0460  0.6054 -0.1178
 3191TIP3    H133768   2.348   3.526  14.395 -0.4178 -0.3041  1.2627
 3191TIP3    H233769   2.473   3.602  14.436 -0.1466  0.7682 -1.3893
 3192TIP3   OH233770   2.738   5.649  14.899 -0.3322  0.1672  0.0672
 3192TIP3    H133771   2.766   5.574  14.952  0.8763 -0.2339 -1.0776
 3192TIP3    H233772   2.718   5.717  14.964 -1.2315 -1.0417  1.1214
 3193TIP3   OH233773   1.196   6.269  17.036 -0.2480  0.0820 -0.7602
 3193TIP3    H133774   1.282   6.284  16.997  0.7772 -1.3084  0.8047
 3193TIP3    H233775   1.168   6.355  17.067  1.6188  0.2642  0.6135
 3194TIP3   OH233776   1.970   0.108  13.804 -0.1147  0.0641 -0.1427
 3194TIP3    H133777   1.942   0.017  13.798  1.7261 -0.6350  0.9163
 3194TIP3    H233778   1.947   0.146  13.719 -1.5853 -1.1666 -0.3390
 3195TIP3   OH233779   1.348   4.382  16.022 -0.2316  0.1633 -0.8731
 3195TIP3    H133780   1.421   4.355  15.965 -0.5423  0.5494 -1.4691
 3195TIP3    H233781   1.345   4.477  16.013  0.1080  0.2935  0.2936
 3196TIP3   OH233782   1.118   1.740  16.517  0.4972 -0.2617  0.2914
 3196TIP3    H133783   1.162   1.694  16.588 -0.0947 -0.2196  0.7010
 3196TIP3    H233784   1.028   1.752  16.549  0.7015  1.4049  0.3260
 3197TIP3   OH233785   5.301   1.055  14.296 -0.1410 -0.0829  0.4003
 3197TIP3    H133786   5.396   1.058  14.280 -0.0704 -0.4689  0.7220
 3197TIP3    H233787   5.285   1.125  14.359 -0.6674  2.5358 -2.4292
 3198TIP3   OH233788   6.202   2.602  14.699  0.1030  0.3626  0.2218
 3198TIP3    H133789   6.162   2.517  14.682  0.6346  0.2863 -0.6886
 3198TIP3    H233790   6.141   2.646  14.759 -0.0735 -0.7319  0.8663
 3199TIP3   OH233791   1.084   4.678  14.701 -0.4269  0.4117  0.3780
 3199TIP3    H133792   1.166   4.667  14.651 -0.7241  1.2994 -0.3258
 3199TIP3    H233793   1.030   4.734  14.646 -1.8319 -0.7832  0.4695
 3200TIP3   OH233794   6.168   4.632  16.405 -0.0699  0.1866 -0.1917
 3200TIP3    H133795   6.118   4.676  16.336  1.1055 -0.0339 -1.2288
 3200TIP3    H233796   6.108   4.567  16.441 -1.3498  1.6121  0.3566
 3201TIP3   OH233797   0.014   3.791  15.480  0.5319  0.3749 -0.1236
 3201TIP3    H133798   0.006   3.708  15.527  2.0963  0.4137  0.2858
 3201TIP3    H233799  -0.044   3.782  15.405  3.0032 -2.4752 -1.9624
 3202TIP3   OH233800   5.057   2.386  16.439 -0.1880 -0.6783  0.1664
 3202TIP3    H133801   4.978   2.394  16.386 -0.4540  1.2702  0.7881
 3202TIP3    H233802   5.096   2.303  16.411 -1.1069 -0.4616 -1.9660
 3203TIP3   OH233803   2.264   0.986  15.892  0.3975 -0.5415 -0.8479
 3203TIP3    H133804   2.348   1.028  15.911  0.7961 -1.5084 -0.3629
 3203TIP3    H233805   2.198   1.050  15.918  0.9864  0.1073 -0.9289
 3204TIP3   OH233806   3.386   3.992  15.094 -0.1623  0.8615 -0.4901
 3204TIP3    H133807   3.326   3.941  15.040  1.0857 -2.4613  0.9707
 3204TIP3    H233808   3.452   4.025  15.033 -0.8354  0.4304 -1.4688
 3205TIP3   OH233809   6.142   5.364  16.314  0.2397  0.0496  0.8728
 3205TIP3    H133810   6.099   5.339  16.232  1.8518  1.2724 -0.4212
 3205TIP3    H233811   6.146   5.283  16.365  1.0137 -1.2610 -1.1285
 3206TIP3   OH233812   0.454   3.015  15.372 -0.3084  0.2236 -0.1330
 3206TIP3    H133813   0.480   3.006  15.281 -0.3134  2.1105 -0.3440
 3206TIP3    H233814   0.391   2.943  15.386  0.8655 -1.0406 -1.1319
 3207TIP3   OH233815   5.061   1.584  15.977 -0.6950  0.1237 -0.1589
 3207TIP3    H133816   5.067   1.499  16.019 -0.2522 -1.0354 -2.4211
 3207TIP3    H233817   4.997   1.572  15.907 -0.4179  1.5751 -0.7081
 3208TIP3   OH233818   0.950   6.058  13.769  0.2275  0.1351 -0.5239
 3208TIP3    H133819   0.913   6.045  13.857 -0.1944 -1.6127 -0.9114
 3208TIP3    H233820   0.965   5.969  13.737  1.4653  0.7656 -1.7832
 3209TIP3   OH233821   6.466   2.659  14.673 -0.1951 -0.0194 -0.5260
 3209TIP3    H133822   6.371   2.651  14.676 -0.1175 -0.8101  1.3154
 3209TIP3    H233823   6.496   2.618  14.755  1.7594 -0.3428 -1.3465
 3210TIP3   OH233824   1.928   4.383  14.530 -0.0696  0.4121 -0.2477
 3210TIP3    H133825   1.933   4.473  14.497  1.8650  1.5044  2.5748
 3210TIP3    H233826   1.882   4.392  14.614  2.9992 -0.5552  1.7011
 3211TIP3   OH233827   4.101   5.888  16.348 -0.0037 -0.0101 -0.5182
 3211TIP3    H133828   4.180   5.928  16.311 -0.0579  1.3974  0.8133
 3211TIP3    H233829   4.031   5.951  16.330 -0.6373 -0.7705 -0.7746
 3212TIP3   OH233830   2.376   2.683  15.594  0.2691 -0.1951 -0.3972
 3212TIP3    H133831   2.442   2.745  15.564  0.4722 -0.2478 -0.0620
 3212TIP3    H233832   2.375   2.615  15.526  1.0551 -0.5523 -0.0736
 3213TIP3   OH233833   2.173   3.719  16.402 -0.4789  0.3134  0.6019
 3213TIP3    H133834   2.113   3.670  16.346 -1.4376 -0.3429  2.1339
 3213TIP3    H233835   2.237   3.757  16.341 -0.3753 -1.8720 -0.7617
 3214TIP3   OH233836   2.860   5.293  14.764 -0.8012 -0.2154 -0.0602
 3214TIP3    H133837   2.875   5.198  14.765  1.6479  0.1104  0.9893
 3214TIP3    H233838   2.879   5.319  14.674  0.8251 -0.4838  0.1610
 3215TIP3   OH233839   4.777   4.867  15.116  0.3441  0.0267  0.0923
 3215TIP3    H133840   4.863   4.894  15.083  1.6919 -2.0405  1.6275
 3215TIP3    H233841   4.754   4.791  15.063 -0.5917  0.5534 -0.2960
 3216TIP3   OH233842   5.457   0.366  17.130 -0.4944  0.2600 -0.1328
 3216TIP3    H133843   5.543   0.332  17.103 -0.6227  1.0723 -1.6747
 3216TIP3    H233844   5.463   0.460  17.115 -0.7750  0.7444  2.3219
 3217TIP3   OH233845   1.559   3.722  16.452 -0.0043 -0.0576  0.3660
 3217TIP3    H133846   1.601   3.781  16.390  1.1606  0.1176  1.2845
 3217TIP3    H233847   1.523   3.779  16.520  0.1877 -0.3327  0.7044
 3218TIP3   OH233848   4.875   2.855  14.435  0.6331  0.0304 -0.5532
 3218TIP3    H133849   4.787   2.830  14.462  0.0544  0.8413 -1.6204
 3218TIP3    H233850   4.878   2.950  14.447  1.2339  0.0583 -0.8812
 3219TIP3   OH233851   4.163   3.497  13.719 -1.0369  0.0992 -0.7115
 3219TIP3    H133852   4.210   3.418  13.691 -0.7703  0.1249 -0.3562
 3219TIP3    H233853   4.110   3.522  13.644 -1.3549 -0.5938 -0.7246
 3220TIP3   OH233854   2.069   2.201  14.563 -0.0395 -0.1631 -0.1136
 3220TIP3    H133855   2.060   2.106  14.551  1.3713 -0.5065  1.1362
 3220TIP3    H233856   2.157   2.221  14.531 -0.4079  0.7739 -0.5714
 3221TIP3   OH233857   1.064   4.448  15.994 -1.2089  0.8302 -0.1535
 3221TIP3    H133858   1.136   4.397  16.031 -0.4700  1.4605 -0.7034
 3221TIP3    H233859   1.021   4.387  15.934 -0.1398  0.9373 -1.0465
 3222TIP3   OH233860   3.741   2.011  15.360 -0.1948 -0.1071  0.0110
 3222TIP3    H133861   3.691   1.930  15.373 -0.6927  0.1175 -0.4805
 3222TIP3    H233862   3.800   2.015  15.436 -0.2643 -0.8562  0.1102
 3223TIP3   OH233863   1.551   1.388  16.469  0.1030  0.0851  0.0435
 3223TIP3    H133864   1.456   1.393  16.480  0.0800 -0.1345 -0.0501
 3223TIP3    H233865   1.586   1.453  16.530 -0.2171  1.9657 -1.6573
 3224TIP3   OH233866   4.552   6.229  16.454  0.1590  0.4515  0.4947
 3224TIP3    H133867   4.635   6.194  16.485  0.2549  1.0916  0.9909
 3224TIP3    H233868   4.509   6.262  16.533  1.1456  3.6989 -0.1946
 3225TIP3   OH233869   0.204   1.680  14.201  0.1391  0.7153  0.0324
 3225TIP3    H133870   0.113   1.651  14.202 -0.1437  1.4588  2.6621
 3225TIP3    H233871   0.252   1.605  14.165 -1.2361 -0.7709  1.1266
 3226TIP3   OH233872   6.173   5.666  13.877 -0.2267 -0.7268 -0.1287
 3226TIP3    H133873   6.094   5.698  13.920  0.9139  4.8173 -1.4581
 3226TIP3    H233874   6.150   5.657  13.785  0.2326 -1.0682 -0.2191
 3227TIP3   OH233875   3.390   5.542  13.658 -0.0118 -0.3314  0.7147
 3227TIP3    H133876   3.333   5.619  13.652  0.5248  0.1232  1.3755
 3227TIP3    H233877   3.475   5.577  13.683  0.8963 -0.8699 -1.3654
 3228TIP3   OH233878   2.427   5.105  15.119  0.2883 -0.3314  0.0408
 3228TIP3    H133879   2.508   5.152  15.138  0.6800 -0.4970 -1.1178
 3228TIP3    H233880   2.400   5.068  15.203 -0.5043  2.6619  1.2163
 3229TIP3   OH233881   6.623   5.074  13.932  0.3210 -0.0419  0.1440
 3229TIP3    H133882   6.666   5.106  13.853 -0.9697 -0.2320 -0.6680
 3229TIP3    H233883   6.611   5.151  13.986  3.5126 -0.2580  1.3789
 3230TIP3   OH233884   4.147   5.999  14.908 -0.6252 -1.0287 -0.1798
 3230TIP3    H133885   4.217   5.953  14.862  3.0270  2.1050  1.6787
 3230TIP3    H233886   4.121   5.940  14.978  0.2418 -2.2426 -0.8522
 3231TIP3   OH233887   3.829   1.788  15.766  0.0350  0.2188  0.6137
 3231TIP3    H133888   3.918   1.759  15.747  0.1310  0.2927  0.9266
 3231TIP3    H233889   3.841   1.877  15.801 -0.2192  0.4944  0.0173
 3232TIP3   OH233890   4.656   1.887  17.030 -0.2878 -0.0410 -0.1467
 3232TIP3    H133891   4.665   1.843  16.945 -0.1153 -0.6846  0.1955
 3232TIP3    H233892   4.669   1.817  17.094  1.4137  0.7511  0.4356
 3233TIP3   OH233893   2.790   2.534  15.997  0.3990 -0.6704 -0.0670
 3233TIP3    H133894   2.724   2.518  16.064  0.4549 -2.0184 -0.3050
 3233TIP3    H233895   2.777   2.464  15.933 -0.8078  1.5741 -2.4155
 3234TIP3   OH233896   3.896   3.297  14.507  0.2515 -0.5834 -0.2049
 3234TIP3    H133897   3.813   3.323  14.469  1.5276 -0.7877 -3.4788
 3234TIP3    H233898   3.894   3.201  14.507  0.1972 -0.5836  0.4207
 3235TIP3   OH233899   1.738   2.968  15.053  0.3181 -0.0302 -0.0085
 3235TIP3    H133900   1.797   3.027  15.007 -0.7898  0.4734 -0.8254
 3235TIP3    H233901   1.789   2.887  15.065  1.3137  0.5417 -0.2769
 3236TIP3   OH233902   1.161   3.429  14.074 -0.2347 -0.1645  0.3364
 3236TIP3    H133903   1.145   3.481  14.153  1.1389 -1.3221  1.4567
 3236TIP3    H233904   1.212   3.485  14.017 -1.8051  0.9240 -0.0640
 3237TIP3   OH233905   6.517   0.614  16.087  0.5331 -0.2527 -0.1198
 3237TIP3    H133906   6.495   0.535  16.136  0.6810 -0.3193 -0.1611
 3237TIP3    H233907   6.447   0.676  16.110 -1.4224 -1.3993 -2.5220
 3238TIP3   OH233908   5.690   0.407  14.315  0.1719 -0.0209  0.2974
 3238TIP3    H133909   5.700   0.411  14.410  1.3285  1.5519  0.1645
 3238TIP3    H233910   5.604   0.446  14.299 -0.1123 -0.4703  0.7095
 3239TIP3   OH233911   4.753   1.273  15.100  0.1878 -0.2386 -0.4275
 3239TIP3    H133912   4.816   1.207  15.072  0.7237 -0.2514  0.7893
 3239TIP3    H233913   4.797   1.356  15.084 -0.7920 -0.0670 -2.7358
 3240TIP3   OH233914   3.818   4.485  14.063  0.1615  0.1024 -0.2499
 3240TIP3    H133915   3.793   4.410  14.119 -0.3887 -1.4372 -2.4339
 3240TIP3    H233916   3.906   4.463  14.032 -0.6083 -0.4668 -2.1409
 3241TIP3   OH233917   2.052   3.911  16.886 -0.1701  0.3699  0.5158
 3241TIP3    H133918   1.974   3.963  16.906 -1.6417 -1.0273 -1.3247
 3241TIP3    H233919   2.064   3.921  16.791  1.9867  0.6082  0.7515
 3242TIP3   OH233920   0.337   4.327  15.126  0.2849  0.1601  0.0295
 3242TIP3    H133921   0.259   4.324  15.180 -0.0845  1.3465 -0.4108
 3242TIP3    H233922   0.312   4.379  15.049  1.2018 -0.2989 -0.6080
 3243TIP3   OH233923   3.391   3.780  16.158  0.1219  0.0800  0.1828
 3243TIP3    H133924   3.362   3.726  16.085  0.4415  0.1323  0.0183
 3243TIP3    H233925   3.478   3.811  16.133  0.2462  0.0736  0.5992
 3244TIP3   OH233926   1.623   3.741  14.795  0.3049 -0.7136 -0.2820
 3244TIP3    H133927   1.625   3.805  14.867  3.1995 -0.2710 -0.6213
 3244TIP3    H233928   1.596   3.659  14.837 -1.1181  0.1684  0.6410
 3245TIP3   OH233929   2.321   6.466  13.695  0.1763  0.5721 -0.0730
 3245TIP3    H133930   2.367   6.548  13.674  0.2056  0.3701 -0.8278
 3245TIP3    H233931   2.288   6.435  13.610  2.8544 -1.8499 -0.3716
 3246TIP3   OH233932   1.881   0.625  14.759  0.2707  0.2928 -0.3815
 3246TIP3    H133933   1.820   0.696  14.736 -2.2278 -1.7982 -0.7297
 3246TIP3    H233934   1.909   0.590  14.675  2.7564  1.7509 -0.2431
 3247TIP3   OH233935   4.721   0.749  16.904 -0.0201 -0.4187  0.2610
 3247TIP3    H133936   4.641   0.779  16.946 -1.9748 -1.4105 -2.4421
 3247TIP3    H233937   4.731   0.806  16.828  1.0991 -1.1463 -0.1714
 3248TIP3   OH233938   3.035   0.349  16.165 -0.3167 -0.1778  0.5556
 3248TIP3    H133939   2.996   0.314  16.245 -1.1008  1.7048  1.0419
 3248TIP3    H233940   3.065   0.437  16.189  0.6344 -0.0739 -0.8803
 3249TIP3   OH233941   0.311   5.590  15.099 -0.3004 -0.2301  0.3459
 3249TIP3    H133942   0.315   5.685  15.086  0.1545 -0.0916  1.4208
 3249TIP3    H233943   0.380   5.556  15.042 -0.2211  0.1072  0.2320
 3250TIP3   OH233944   6.293   1.470  14.684 -0.2875  0.2021 -0.5310
 3250TIP3    H133945   6.259   1.428  14.764  0.9848  1.1316  0.5381
 3250TIP3    H233946   6.297   1.563  14.706  0.5173  0.4138 -1.5224
 3251TIP3   OH233947   2.372   3.672  16.977  0.1296 -0.7371 -0.0783
 3251TIP3    H133948   2.350   3.720  16.897  0.8580  1.5914  1.0365
 3251TIP3    H233949   2.467   3.678  16.984  0.3583 -3.0299 -0.2232
 3252TIP3   OH233950   6.263   5.800  15.130 -0.0649  0.3168 -0.6593
 3252TIP3    H133951   6.230   5.803  15.220 -0.7004  3.3621 -0.9003
 3252TIP3    H233952   6.347   5.845  15.134 -0.8564  1.9881 -1.8315
 3253TIP3   OH233953   1.710   2.299  14.328 -0.4570 -1.4892 -0.4833
 3253TIP3    H133954   1.749   2.321  14.243  2.4118  0.2830  1.1430
 3253TIP3    H233955   1.768   2.232  14.364 -0.6959 -1.0645  0.7215
 3254TIP3   OH233956   1.745   0.095  16.299  0.1740  0.4828  1.1186
 3254TIP3    H133957   1.840   0.086  16.296  0.1371  0.3504 -0.0851
 3254TIP3    H233958   1.730   0.179  16.342  0.8451  0.7764  0.7856
 3255TIP3   OH233959   3.727   5.496  16.565  0.3070 -0.0834  0.1456
 3255TIP3    H133960   3.809   5.499  16.517  0.4394 -0.6205  0.3384
 3255TIP3    H233961   3.753   5.496  16.657  0.0402  1.7159  0.2611
 3256TIP3   OH233962   4.558   4.503  15.817 -0.4706 -0.2673 -0.3587
 3256TIP3    H133963   4.537   4.538  15.903  1.1157 -0.5712  0.1728
 3256TIP3    H233964   4.607   4.423  15.834  0.8658  0.2528 -1.5141
 3257TIP3   OH233965   5.373   6.002  15.824  0.1146 -0.7940  0.4758
 3257TIP3    H133966   5.460   6.039  15.842 -0.1915  1.0518 -1.4412
 3257TIP3    H233967   5.314   6.050  15.882 -0.0575  0.5982 -0.8014
 3258TIP3   OH233968   5.708   5.816  15.858  0.8233  0.0695  0.6982
 3258TIP3    H133969   5.688   5.903  15.822  0.8531 -0.4565 -0.6436
 3258TIP3    H233970   5.758   5.834  15.937  1.2904  1.2824  0.1575
 3259TIP3   OH233971   3.188   6.653  16.398  0.0458  0.6532  0.0541
 3259TIP3    H133972   3.226   6.740  16.387  0.6584  0.2350 -1.5005
 3259TIP3    H233973   3.122   6.646  16.328  0.6906 -0.4518 -0.4809
 3260TIP3   OH233974   2.593   1.972  14.449 -0.1952  0.2245 -0.8017
 3260TIP3    H133975   2.608   2.002  14.360  0.3920  2.7081  0.0440
 3260TIP3    H233976   2.498   1.974  14.460 -0.2033  1.8026 -0.8499
 3261TIP3   OH233977   3.540   1.552  16.787  0.4938 -0.0604 -0.5976
 3261TIP3    H133978   3.555   1.645  16.804  0.7924  0.2320 -2.2977
 3261TIP3    H233979   3.621   1.508  16.815  0.9520  0.3907 -1.1918
 3262TIP3   OH233980   2.022   6.118  16.220  0.2282  0.1172  0.1128
 3262TIP3    H133981   2.077   6.141  16.294  0.3133  0.5090 -0.0696
 3262TIP3    H233982   2.020   6.197  16.166  1.6939 -0.7337 -1.2642
 3263TIP3   OH233983   0.275   4.276  14.232 -0.6602 -0.1107 -0.1118
 3263TIP3    H133984   0.364   4.255  14.259  0.0181  2.5515  0.0231
 3263TIP3    H233985   0.258   4.218  14.158  0.6049 -1.6855  0.7783
 3264TIP3   OH233986   0.690   2.276  13.966 -0.6263  0.2853 -0.5102
 3264TIP3    H133987   0.612   2.331  13.972 -0.1618  0.8191  0.8435
 3264TIP3    H233988   0.755   2.320  14.019  0.4196 -0.4848 -1.1187
 3265TIP3   OH233989   2.596   5.828  14.083  0.4265 -0.1280  0.7706
 3265TIP3    H133990   2.619   5.852  14.173  0.0149 -0.5401  0.9875
 3265TIP3    H233991   2.614   5.907  14.032  0.6117  0.1260  1.2207
 3266TIP3   OH233992   2.236   5.618  16.017  0.2657 -0.1440  0.6490
 3266TIP3    H133993   2.212   5.661  16.099 -1.5336 -2.0275  1.2051
 3266TIP3    H233994   2.323   5.583  16.033 -0.5452 -1.5379  2.2602
 3267TIP3   OH233995   6.464   1.441  16.729 -0.3982 -0.0946  0.2388
 3267TIP3    H133996   6.428   1.356  16.756  0.0575 -0.1275  0.7595
 3267TIP3    H233997   6.521   1.467  16.801  0.6323 -0.0411 -0.5776
 3268TIP3   OH233998   1.707   5.169  14.330 -0.3408 -0.2349 -0.0418
 3268TIP3    H133999   1.650   5.243  14.353  1.0154  0.4605  1.3130
 3268TIP3    H234000   1.690   5.154  14.237 -1.9542  0.6018  0.0718
 3269TIP3   OH234001   6.327   0.466  14.526  0.3965 -0.3566  0.0987
 3269TIP3    H134002   6.355   0.388  14.479  1.6483  0.9509 -1.4425
 3269TIP3    H234003   6.405   0.496  14.573  0.8535  1.6053 -1.7637
 3270TIP3   OH234004   3.181   0.122  13.177  0.5005 -0.3999  0.7702
 3270TIP3    H134005   3.116   0.192  13.177  0.2405 -0.5792 -1.0048
 3270TIP3    H234006   3.154   0.065  13.105  2.3629 -0.7260  0.2762
 3271TIP3   OH234007   5.570   1.485  15.681  0.0139  0.1180  0.1352
 3271TIP3    H134008   5.502   1.417  15.673  0.1820 -0.1883  1.1306
 3271TIP3    H234009   5.535   1.546  15.745  0.9597 -0.4247  1.2056
 3272TIP3   OH234010   2.197   5.764  13.937 -1.2226 -0.6373  0.3599
 3272TIP3    H134011   2.106   5.756  13.907 -0.8915 -2.4788 -0.3429
 3272TIP3    H234012   2.248   5.738  13.860  0.1580  3.9911 -0.5630
 3273TIP3   OH234013   5.674   5.766  14.773 -0.1475  0.8520 -0.0597
 3273TIP3    H134014   5.677   5.800  14.862 -1.6320 -0.3486  0.5008
 3273TIP3    H234015   5.739   5.696  14.772  0.2354  1.2049 -0.0834
 3274TIP3   OH234016   0.607   5.591  14.421  0.0113  0.2343 -0.1090
 3274TIP3    H134017   0.519   5.590  14.384  0.0800  0.3971 -0.2787
 3274TIP3    H234018   0.665   5.590  14.345  0.1607 -0.4230  0.0096
 3275TIP3   OH234019   2.913   2.659  14.207 -0.2599 -0.1551 -0.4074
 3275TIP3    H134020   2.917   2.749  14.238 -0.2594  0.3958 -1.9152
 3275TIP3    H234021   2.943   2.606  14.281 -1.2643  0.9886  0.8543
 3276TIP3   OH234022   4.346   1.669  14.764  0.3739 -0.1536  0.2433
 3276TIP3    H134023   4.418   1.728  14.787  0.6016 -0.2317 -0.2512
 3276TIP3    H234024   4.327   1.688  14.672  2.4047 -2.8006 -0.8832
 3277TIP3   OH234025   2.221   6.364  13.426 -0.6170  0.7081 -0.0609
 3277TIP3    H134026   2.160   6.290  13.426  0.3201 -0.1736  2.9156
 3277TIP3    H234027   2.172   6.434  13.383 -1.9702 -1.2241 -1.9439
 3278TIP3   OH234028   4.768   6.205  17.125 -0.0822  0.0039 -0.0738
 3278TIP3    H134029   4.725   6.187  17.209 -0.9445  0.4683 -0.3951
 3278TIP3    H234030   4.787   6.119  17.088 -0.7667 -0.2183  0.0754
 3279TIP3   OH234031   0.296   6.183  15.869 -0.1708  0.2520 -0.1243
 3279TIP3    H134032   0.365   6.169  15.804 -0.5501 -1.2355 -0.2466
 3279TIP3    H234033   0.218   6.147  15.828 -0.3305 -1.1372  1.3062
 3280TIP3   OH234034   0.656   3.141  16.348 -0.1153 -0.3374  0.4160
 3280TIP3    H134035   0.745   3.158  16.319  0.1819 -3.8233 -1.1879
 3280TIP3    H234036   0.603   3.149  16.269 -0.7759 -0.9925  0.7805
 3281TIP3   OH234037   2.764   2.793  15.943  0.6484  0.4782 -0.1816
 3281TIP3    H134038   2.790   2.706  15.973  0.9258  1.1820  1.8138
 3281TIP3    H234039   2.731   2.836  16.023 -3.4232  0.8264 -1.8030
 3282TIP3   OH234040   2.869   3.302  15.082  0.0595  0.3607  0.5440
 3282TIP3    H134041   2.892   3.218  15.122  0.1218 -0.1023 -0.4379
 3282TIP3    H234042   2.817   3.279  15.006  2.5277  1.0210 -1.4948
 3283TIP3   OH234043   0.288   3.337  16.073  0.4618 -0.3147  0.2912
 3283TIP3    H134044   0.330   3.348  15.987 -0.0973  1.1365  0.1919
 3283TIP3    H234045   0.350   3.282  16.122  0.8701 -1.0234 -0.9690
 3284TIP3   OH234046   1.676   0.231  13.418  0.6831 -0.3065 -0.2873
 3284TIP3    H134047   1.609   0.281  13.370  0.6855  0.6698  0.7081
 3284TIP3    H234048   1.722   0.182  13.349 -0.9610 -0.9239 -1.0140
 3285TIP3   OH234049   3.594   0.853  13.480 -0.1169 -0.0974 -0.3702
 3285TIP3    H134050   3.506   0.863  13.445 -0.7194  0.0232  1.1094
 3285TIP3    H234051   3.600   0.919  13.549  0.7070 -0.8897  0.3420
 3286TIP3   OH234052   6.236   0.666  14.018  0.6615  0.0088 -0.0255
 3286TIP3    H134053   6.143   0.647  14.006  0.8957 -1.0741 -0.2304
 3286TIP3    H234054   6.280   0.608  13.956  1.4251  1.4245 -0.8382
 3287TIP3   OH234055   3.477   2.976  17.141 -0.7207  0.5427  0.4593
 3287TIP3    H134056   3.442   2.897  17.098  1.0068  0.0518 -0.1423
 3287TIP3    H234057   3.410   3.042  17.127 -1.9281 -0.6408  0.3980
 3288TIP3   OH234058   4.837   6.450  17.032  0.2227  0.3875  0.1047
 3288TIP3    H134059   4.860   6.428  16.942  1.9430  2.5396 -0.0652
 3288TIP3    H234060   4.818   6.366  17.073  1.0642 -0.8119 -1.8117
 3289TIP3   OH234061   1.044   1.103  16.119 -0.3788 -0.5145  0.1940
 3289TIP3    H134062   1.135   1.095  16.089 -0.4671  1.1805 -0.6917
 3289TIP3    H234063   1.018   1.014  16.141  0.9021 -1.3315 -1.3260
 3290TIP3   OH234064   5.029   0.428  16.820  0.2343 -0.3130  0.5416
 3290TIP3    H134065   4.960   0.363  16.806  0.9290 -0.9417 -0.0643
 3290TIP3    H234066   5.102   0.378  16.854  0.3864  0.3558  1.2055
 3291TIP3   OH234067   1.030   4.745  15.744  0.0453  0.3007 -0.1499
 3291TIP3    H134068   1.101   4.760  15.806 -1.4547  1.1288  1.4644
 3291TIP3    H234069   0.975   4.823  15.752 -2.7406 -1.6247  1.1038
 3292TIP3   OH234070   1.725   6.079  15.593 -0.2786 -1.0604 -0.4241
 3292TIP3    H134071   1.734   6.013  15.661 -1.5007  0.6165  1.4848
 3292TIP3    H234072   1.814   6.111  15.579  0.5426 -3.8083 -2.2704
 3293TIP3   OH234073   0.328   5.425  16.609  0.7247  0.4157 -0.5827
 3293TIP3    H134074   0.256   5.365  16.587  1.6532 -0.7584 -0.5198
 3293TIP3    H234075   0.287   5.511  16.612 -0.8880 -0.3303  0.4066
 3294TIP3   OH234076   0.526   6.370  14.271  1.2808  0.2809  0.0984
 3294TIP3    H134077   0.532   6.278  14.296 -1.2127  0.3955  1.4553
 3294TIP3    H234078   0.515   6.417  14.353  1.6852  1.7199 -0.6282
 3295TIP3   OH234079   2.563   0.368  14.504  0.0577  0.0547 -0.1396
 3295TIP3    H134080   2.487   0.323  14.467 -0.4769  1.2105 -0.5298
 3295TIP3    H234081   2.617   0.299  14.541 -0.1046 -1.0392 -1.8080
 3296TIP3   OH234082   2.302   3.453  15.537 -0.2847  0.2565 -0.0153
 3296TIP3    H134083   2.343   3.388  15.596 -1.6025  1.1804  2.0170
 3296TIP3    H234084   2.228   3.406  15.498  0.0402 -0.0831 -0.2372
 3297TIP3   OH234085   5.752   4.603  15.175 -0.2707 -0.2847  0.4087
 3297TIP3    H134086   5.678   4.663  15.171  1.2032  1.5366 -1.4460
 3297TIP3    H234087   5.714   4.517  15.153 -1.9526  0.4414  0.3305
 3298TIP3   OH234088   3.575   0.901  15.864 -0.2110 -0.0582  0.0023
 3298TIP3    H134089   3.533   0.931  15.783  0.4954 -1.3790 -0.8934
 3298TIP3    H234090   3.525   0.943  15.934  1.1856  3.9052 -1.0999
 3299TIP3   OH234091   2.725   2.352  17.024  0.0448 -0.1270 -0.6100
 3299TIP3    H134092   2.793   2.300  17.066  0.1931  0.0523 -0.6270
 3299TIP3    H234093   2.765   2.383  16.943  0.7138  1.7902  0.4034
 3300TIP3   OH234094   3.298   1.441  14.787  0.3584  0.3194 -0.2790
 3300TIP3    H134095   3.298   1.468  14.695  0.2554 -0.8716 -0.6435
 3300TIP3    H234096   3.212   1.401  14.800 -0.1901  1.7503  0.7467
 3301TIP3   OH234097   0.803   0.139  16.059 -0.2108 -0.4071 -0.1459
 3301TIP3    H134098   0.755   0.202  16.113 -1.3908 -1.6943  0.3842
 3301TIP3    H234099   0.879   0.187  16.027 -0.6800  1.0507  0.8352
 3302TIP3   OH234100   4.054   5.171  15.105 -0.6554 -0.6744 -0.1426
 3302TIP3    H134101   4.085   5.086  15.072  1.3477  0.3876 -1.2084
 3302TIP3    H234102   4.022   5.217  15.027  1.5939  0.8240 -0.2974
 3303TIP3   OH234103   6.374   2.292  15.494  0.0204  0.4695  0.0037
 3303TIP3    H134104   6.439   2.242  15.446 -0.6342  1.4248 -2.0269
 3303TIP3    H234105   6.423   2.337  15.562  1.6666  1.5962 -1.7975
 3304TIP3   OH234106   2.527   6.308  14.254  0.4621  0.6303  0.0387
 3304TIP3    H134107   2.487   6.277  14.335  1.7757  0.4908  0.6570
 3304TIP3    H234108   2.464   6.370  14.218 -0.8266 -0.4473  0.3664
 3305TIP3   OH234109   5.096   5.853  13.963  0.0522  0.3037 -0.2189
 3305TIP3    H134110   5.150   5.922  13.925 -1.3766  1.3335 -0.4704
 3305TIP3    H234111   5.046   5.819  13.889  0.0819 -0.3745  0.0712
 3306TIP3   OH234112   4.354   3.298  16.163  0.2225  0.2616  1.0201
 3306TIP3    H134113   4.413   3.305  16.238  1.4598  0.4839  0.0733
 3306TIP3    H234114   4.404   3.248  16.098 -1.1269 -0.6185  0.6241
 3307TIP3   OH234115   2.815   0.564  14.183 -0.5070  0.2016 -0.5454
 3307TIP3    H134116   2.905   0.538  14.205 -1.3316 -2.2576  0.1718
 3307TIP3    H234117   2.808   0.654  14.216  1.2536 -0.0342  0.6275
 3308TIP3   OH234118   0.667   2.213  14.639 -0.5016 -0.8695 -0.5753
 3308TIP3    H134119   0.680   2.174  14.553  0.6563 -1.5553 -0.1086
 3308TIP3    H234120   0.726   2.288  14.641  0.6023 -1.7262  0.1433
 3309TIP3   OH234121   5.071   0.298  14.535  0.7400  0.2331  0.2922
 3309TIP3    H134122   5.027   0.300  14.620 -0.2253 -0.4016 -0.1783
 3309TIP3    H234123   5.057   0.208  14.504 -0.1908  0.8619 -1.1911
 3310TIP3   OH234124   2.532   3.623  15.425  0.2343 -0.3467 -0.0814
 3310TIP3    H134125   2.444   3.601  15.394  0.2931  1.7420 -1.9647
 3310TIP3    H234126   2.522   3.708  15.468  1.3900  0.1475 -0.7410
 3311TIP3   OH234127   6.108   3.161  14.974 -0.0724 -0.4914  0.4678
 3311TIP3    H134128   6.201   3.155  14.995  0.4712  1.2350 -1.1050
 3311TIP3    H234129   6.077   3.237  15.023 -0.4278 -0.5332  0.3090
 3312TIP3   OH234130   0.022   1.238  15.610 -0.0711 -0.3678 -0.1833
 3312TIP3    H134131   0.051   1.158  15.654 -0.5403  0.0109  0.8455
 3312TIP3    H234132   0.099   1.268  15.562  0.8446 -0.1282  1.3825
 3313TIP3   OH234133   1.492   6.312  14.516 -0.0330 -0.0082 -0.2709
 3313TIP3    H134134   1.403   6.346  14.530 -0.1109  0.7854 -2.4034
 3313TIP3    H234135   1.549   6.372  14.564 -0.6265 -0.9605  1.7727
 3314TIP3   OH234136   5.178   4.198  14.245  0.0485 -0.3723 -0.4455
 3314TIP3    H134137   5.157   4.113  14.284  0.3317 -0.9877 -1.5934
 3314TIP3    H234138   5.252   4.181  14.188 -0.1102  0.5782 -0.9568
 3315TIP3   OH234139   3.510   5.328  14.785 -0.0450  0.1720 -0.2283
 3315TIP3    H134140   3.545   5.417  14.780 -1.7158  0.9539  0.9038
 3315TIP3    H234141   3.453   5.321  14.708  1.3511 -0.5468 -1.2277
 3316TIP3   OH234142   0.175   0.692  15.596  0.1357  0.1531  0.6983
 3316TIP3    H134143   0.137   0.703  15.683  1.3434  0.2378  1.2306
 3316TIP3    H234144   0.128   0.755  15.541 -0.4398  0.2938  1.3443
 3317TIP3   OH234145   3.886   4.942  14.627  0.0509 -0.0690  0.4548
 3317TIP3    H134146   3.954   4.997  14.665 -0.5664  0.2418  1.1478
 3317TIP3    H234147   3.834   4.913  14.702 -0.2495 -0.7521 -0.0069
 3318TIP3   OH234148   6.654   0.680  14.986  0.1974  0.0435  0.2851
 3318TIP3    H134149   6.710   0.719  15.053  0.2236  1.3709 -0.4807
 3318TIP3    H234150   6.695   0.703  14.903 -1.2181  0.6482 -0.2753
 3319TIP3   OH234151   4.647   5.201  13.580  0.0041 -0.0262 -0.2158
 3319TIP3    H134152   4.656   5.278  13.523 -0.8516 -0.3549 -0.8174
 3319TIP3    H234153   4.562   5.164  13.556 -0.0425 -0.5882  0.7801
 3320TIP3   OH234154   3.626   4.251  15.157 -0.3501  0.5138  0.6123
 3320TIP3    H134155   3.648   4.242  15.065  1.0887 -1.2835  1.0574
 3320TIP3    H234156   3.667   4.333  15.184  2.3767 -0.6648  0.4046
 3321TIP3   OH234157   5.549   2.273  14.060  0.1564  0.1619  0.9357
 3321TIP3    H134158   5.617   2.252  13.997 -0.6188 -0.0473  0.1535
 3321TIP3    H234159   5.470   2.229  14.027 -0.6672  1.4400  1.1357
 3322TIP3   OH234160   3.099   5.932  14.407 -0.0233 -0.3975  0.2101
 3322TIP3    H134161   3.006   5.912  14.402 -0.2548  0.3075  1.2985
 3322TIP3    H234162   3.136   5.894  14.328 -0.5295 -4.2853  1.6498
 3323TIP3   OH234163   1.750   1.874  15.784  0.4139 -0.1548  0.6990
 3323TIP3    H134164   1.794   1.794  15.755  2.7896  0.0708  3.2509
 3323TIP3    H234165   1.704   1.849  15.864  0.5313  0.8352  1.0955
 3324TIP3   OH234166   1.869   5.313  14.698  0.7510  0.2216 -0.4527
 3324TIP3    H134167   1.832   5.381  14.641 -0.7517  0.9576  1.2990
 3324TIP3    H234168   1.801   5.295  14.762  1.9081 -1.4718  0.3876
 3325TIP3   OH234169   4.559   6.630  13.737  0.0276  0.3362 -0.1710
 3325TIP3    H134170   4.641   6.680  13.738  0.3144 -0.1147  0.8889
 3325TIP3    H234171   4.494   6.690  13.699  1.0523  0.3204 -2.0629
 3326TIP3   OH234172   6.428   6.512  14.992 -0.0199 -0.3417  0.1575
 3326TIP3    H134173   6.502   6.541  15.046  0.3827  0.9553 -1.0304
 3326TIP3    H234174   6.468   6.481  14.911 -0.7661  0.2391 -0.4456
 3327TIP3   OH234175   2.168   6.445  15.811  0.2752 -0.0835  0.1873
 3327TIP3    H134176   2.155   6.534  15.845  3.0835  0.4157  0.1271
 3327TIP3    H234177   2.172   6.455  15.716  0.1860 -0.3673  0.1509
 3328TIP3   OH234178   2.778   1.782  14.300 -0.1236 -0.2298  0.1175
 3328TIP3    H134179   2.738   1.700  14.269  1.3951 -1.1901  0.5500
 3328TIP3    H234180   2.771   1.842  14.226  0.1093 -1.2784 -0.7836
 3329TIP3   OH234181   2.097   1.675  13.526  0.2198  0.7586 -0.0279
 3329TIP3    H134182   2.089   1.770  13.533  0.1860  0.9047 -1.5925
 3329TIP3    H234183   2.083   1.657  13.433  0.9590 -0.7056  0.1149
 3330TIP3   OH234184   1.714   2.277  13.763  0.2088 -0.2107  0.0075
 3330TIP3    H134185   1.803   2.312  13.767  1.5038 -3.2111 -0.4763
 3330TIP3    H234186   1.702   2.250  13.672 -0.8525 -0.6807  0.2707
 3331TIP3   OH234187   1.412   4.895  14.864 -0.0938  0.0610  0.1257
 3331TIP3    H134188   1.317   4.895  14.853 -0.2542  2.3949  0.9151
 3331TIP3    H234189   1.426   4.899  14.959  0.8513 -1.6407  0.0930
 3332TIP3   OH234190   2.864   4.993  14.768 -0.4018 -0.5070  0.2789
 3332TIP3    H134191   2.871   5.027  14.678  1.3577  0.5743  0.7829
 3332TIP3    H234192   2.862   4.898  14.757 -1.2581 -0.3754 -0.9469
 3333TIP3   OH234193   6.509   5.865  14.283  0.2904 -0.1286 -0.0734
 3333TIP3    H134194   6.463   5.811  14.219  0.6390  0.2563 -0.6648
 3333TIP3    H234195   6.468   5.845  14.367 -0.3929 -0.3959 -0.4707
 3334TIP3   OH234196   5.387   2.801  14.652 -0.2828 -0.0156  0.2405
 3334TIP3    H134197   5.320   2.844  14.704 -0.3426  0.2574 -0.0558
 3334TIP3    H234198   5.424   2.734  14.710 -0.2364  0.3878  0.6834
 3335TIP3   OH234199   3.474   5.786  16.005  0.1539  0.1492  0.3241
 3335TIP3    H134200   3.546   5.728  16.029 -0.0314 -0.2425 -0.0590
 3335TIP3    H234201   3.502   5.825  15.922  0.8771  1.6394  1.2218
 3336TIP3   OH234202   5.580   0.777  15.409 -0.0707  0.2902 -0.3252
 3336TIP3    H134203   5.589   0.736  15.323  0.0590 -1.6021  0.5235
 3336TIP3    H234204   5.668   0.807  15.431 -0.1672  1.0514 -0.9745
 3337TIP3   OH234205   6.408   0.774  15.861 -0.5264  0.1027  0.2659
 3337TIP3    H134206   6.331   0.743  15.815 -1.4983  3.6695 -0.8658
 3337TIP3    H234207   6.382   0.778  15.953 -1.6611  0.9832 -0.0706
 3338TIP3   OH234208   5.413   3.196  14.171  0.9594  0.0711 -0.3147
 3338TIP3    H134209   5.359   3.179  14.094 -1.0207 -2.8820  1.4732
 3338TIP3    H234210   5.462   3.114  14.184  1.6089  0.6634  1.2353
 3339TIP3   OH234211   1.631   5.431  14.390  0.2963 -0.2146  0.1090
 3339TIP3    H134212   1.702   5.439  14.326 -0.4411  0.6589 -0.6320
 3339TIP3    H234213   1.665   5.472  14.469  0.8737 -0.4432 -0.0168
 3340TIP3   OH234214   0.344   0.155  15.348  0.1651  0.4149 -0.1163
 3340TIP3    H134215   0.330   0.092  15.419  1.4494  1.0746  0.7495
 3340TIP3    H234216   0.375   0.102  15.275  0.4041 -0.0616  0.3291
 3341TIP3   OH234217   2.256   0.622  15.900  0.1230 -0.1641 -0.3067
 3341TIP3    H134218   2.229   0.686  15.834 -0.2856 -2.1046 -2.0893
 3341TIP3    H234219   2.217   0.655  15.982 -1.2854  1.1120 -1.4277
 3342TIP3   OH234220   5.191   2.228  15.085  0.4788  0.4872 -0.5165
 3342TIP3    H134221   5.155   2.314  15.106 -0.8534 -0.3526  0.7912
 3342TIP3    H234222   5.123   2.186  15.032 -0.2567 -0.8626  1.3944
 3343TIP3   OH234223   3.469   3.450  16.697  0.5469 -0.2128  0.2680
 3343TIP3    H134224   3.531   3.502  16.748  1.0133 -0.2144 -0.2810
 3343TIP3    H234225   3.383   3.485  16.721  0.8602  1.0618 -0.3324
 3344TIP3   OH234226   2.297   4.280  15.809  0.2067  0.2498  0.3534
 3344TIP3    H134227   2.307   4.374  15.820  0.3960  0.1941  0.6478
 3344TIP3    H234228   2.239   4.253  15.880 -1.1601  0.3877 -0.6638
 3345TIP3   OH234229   5.569   2.304  16.029 -0.4153  0.0849 -0.5226
 3345TIP3    H134230   5.584   2.369  16.097 -0.4823  0.8599 -1.2311
 3345TIP3    H234231   5.591   2.221  16.070  0.2927  0.6179  0.2094
 3346TIP3   OH234232   4.691   4.669  15.650 -0.2809 -0.8595  0.3739
 3346TIP3    H134233   4.648   4.680  15.565  1.6566 -0.3629 -0.5888
 3346TIP3    H234234   4.646   4.594  15.690 -0.1289 -2.2010 -1.8238
 3347TIP3   OH234235   3.288   0.389  15.059  0.2100 -0.0697 -0.6549
 3347TIP3    H134236   3.367   0.398  15.112  1.1721 -3.2269 -1.3199
 3347TIP3    H234237   3.233   0.329  15.108 -0.6847  0.1670 -1.3436
 3348TIP3   OH234238   1.525   2.822  14.218  0.4788  0.3114 -0.6732
 3348TIP3    H134239   1.598   2.881  14.237 -0.7049  2.1045 -1.5128
 3348TIP3    H234240   1.449   2.863  14.258 -0.0715 -1.7552  0.5831
 3349TIP3   OH234241   3.805   3.983  15.454 -0.4191  0.1134  0.0289
 3349TIP3    H134242   3.745   4.041  15.500 -0.6628  0.0613 -0.2214
 3349TIP3    H234243   3.749   3.932  15.395 -0.1509 -0.0532 -0.0859
 3350TIP3   OH234244   2.128   3.001  15.797 -0.4884 -0.0729 -0.6574
 3350TIP3    H134245   2.128   3.093  15.770 -0.8308  0.0758 -0.1400
 3350TIP3    H234246   2.156   2.954  15.718  0.1209  0.5086 -0.7980
 3351TIP3   OH234247   4.530   4.964  13.980  0.0425 -0.0503  0.4041
 3351TIP3    H134248   4.564   4.988  14.066 -0.0627 -1.0079  0.7242
 3351TIP3    H234249   4.446   5.010  13.974 -0.8364 -1.3967  1.5995
 3352TIP3   OH234250   4.707   5.282  14.947 -0.2334 -0.0692  0.0125
 3352TIP3    H134251   4.718   5.363  14.997  0.7090  0.3985 -0.9152
 3352TIP3    H234252   4.679   5.217  15.012  0.0624  0.7382  0.9717
 3353TIP3   OH234253   5.026   4.954  15.004 -0.8234 -0.4319 -0.4176
 3353TIP3    H134254   5.078   4.912  14.935 -0.2092  0.3192 -0.4221
 3353TIP3    H234255   5.009   5.042  14.972 -2.3028 -0.7204 -0.4996
 3354TIP3   OH234256   1.918   5.225  16.381 -0.5921  0.0286  0.0896
 3354TIP3    H134257   1.932   5.191  16.469  1.9566  1.3419  0.2788
 3354TIP3    H234258   1.861   5.300  16.393  0.8454  1.0574  0.8910
 3355TIP3   OH234259   2.678   5.048  15.681  0.4731 -0.0459 -0.1851
 3355TIP3    H134260   2.741   4.988  15.722  1.1267  2.0104  2.0620
 3355TIP3    H234261   2.609   5.059  15.747 -0.4333  0.4778 -1.1842
 3356TIP3   OH234262   3.617   0.554  15.698 -0.3179 -0.2297  1.1911
 3356TIP3    H134263   3.659   0.479  15.740  0.9843 -0.4469 -0.4265
 3356TIP3    H234264   3.687   0.597  15.650 -1.6644  0.2093 -0.4630
 3357TIP3   OH234265   5.543   4.926  16.435  0.3192  0.4326 -0.0624
 3357TIP3    H134266   5.565   4.836  16.410 -1.9666 -0.4550  0.8171
 3357TIP3    H234267   5.470   4.950  16.378 -0.0031  1.1988  0.6459
 3358TIP3   OH234268   5.716   3.031  15.507 -0.3688  1.1544 -0.1199
 3358TIP3    H134269   5.658   3.099  15.539 -0.8289  0.6125  0.2156
 3358TIP3    H234270   5.659   2.971  15.459  0.0858  1.1819 -0.7104
 3359TIP3   OH234271   4.370   1.678  15.611  0.1096 -0.4285  0.5293
 3359TIP3    H134272   4.459   1.645  15.625  0.7183  0.5151 -0.7931
 3359TIP3    H234273   4.342   1.636  15.530  0.5878  1.5376 -0.7450
 3360TIP3   OH234274   0.271   0.449  15.817  0.0259 -0.1218 -0.0090
 3360TIP3    H134275   0.275   0.440  15.722  0.4936  0.8082 -0.0868
 3360TIP3    H234276   0.328   0.379  15.850 -0.6446 -0.8543 -0.3811
 3361TIP3   OH234277   6.042   3.010  16.339  0.4736  0.1079  0.3413
 3361TIP3    H134278   6.031   3.103  16.320 -0.7469 -0.2376 -0.7808
 3361TIP3    H234279   6.086   3.008  16.424  1.0825  1.7060  0.0994
 3362TIP3   OH234280   6.103   4.636  14.332  0.1270  0.0628  0.6574
 3362TIP3    H134281   6.119   4.632  14.238 -0.2019  1.8116  0.5008
 3362TIP3    H234282   6.025   4.582  14.345  0.9195 -1.2436  0.1388
 3363TIP3   OH234283   3.226   5.440  14.809 -0.2921 -0.1423 -0.4303
 3363TIP3    H134284   3.151   5.409  14.860  0.3347  0.4690  0.9199
 3363TIP3    H234285   3.223   5.390  14.728 -1.2469 -1.2644  0.2728
 3364TIP3   OH234286   4.221   0.475  16.431 -0.0781  0.1237  0.0831
 3364TIP3    H134287   4.138   0.428  16.444  0.6538 -1.3214 -0.2844
 3364TIP3    H234288   4.198   0.549  16.376 -0.9568 -0.8471 -0.9032
 3365TIP3   OH234289   3.711   2.816  14.771  0.4873  0.1254 -0.7125
 3365TIP3    H134290   3.633   2.795  14.822  1.2126 -1.0643 -0.0383
 3365TIP3    H234291   3.781   2.821  14.835  1.3928 -1.2431 -1.5309
 3366TIP3   OH234292   1.139   1.690  13.688  0.1684  0.1410 -0.0110
 3366TIP3    H134293   1.139   1.616  13.627  0.7606  0.8257 -0.8721
 3366TIP3    H234294   1.169   1.764  13.635 -1.7056  1.3055  0.4789
 3367TIP3   OH234295   0.782   1.808  15.504 -0.4280  0.1063 -0.7960
 3367TIP3    H134296   0.870   1.776  15.486 -0.9092 -1.9749  0.2122
 3367TIP3    H234297   0.795   1.883  15.562  0.7009  0.3588 -1.3636
 3368TIP3   OH234298   3.157   6.184  17.061  0.2399 -0.2398  0.3574
 3368TIP3    H134299   3.252   6.169  17.066 -0.0597 -3.0781 -0.8050
 3368TIP3    H234300   3.118   6.108  17.104 -1.5437  0.1628 -0.4683
 3369TIP3   OH234301   4.016   4.954  16.610 -0.6509  0.0826 -0.0458
 3369TIP3    H134302   3.985   4.936  16.521  1.8351 -0.2371 -0.9316
 3369TIP3    H234303   4.023   4.868  16.651 -1.0841  0.1671  0.2104
 3370TIP3   OH234304   2.682   5.361  16.405  0.2611 -0.4084 -0.1318
 3370TIP3    H134305   2.675   5.266  16.410 -0.9108 -0.2579  1.8876
 3370TIP3    H234306   2.607   5.388  16.352 -1.2957 -0.4357  1.9627
 3371TIP3   OH234307   0.863   3.793  16.197 -0.2007  0.1196  0.4172
 3371TIP3    H134308   0.911   3.828  16.122 -0.5984 -1.3714 -0.5764
 3371TIP3    H234309   0.931   3.773  16.261  0.3271 -0.1525 -0.2138
 3372TIP3   OH234310   0.625   6.129  13.479 -0.0772 -0.5014  0.2875
 3372TIP3    H134311   0.568   6.164  13.410  0.4300 -0.1757  0.0310
 3372TIP3    H234312   0.568   6.071  13.530 -0.8222  0.3968  0.4865
 3373TIP3   OH234313   6.393   0.176  14.910  0.2092 -0.1377  0.5965
 3373TIP3    H134314   6.330   0.106  14.896 -0.7265  0.9272 -0.8142
 3373TIP3    H234315   6.376   0.207  14.999 -1.9481  0.7556 -0.0677
 3374TIP3   OH234316   4.194   1.276  13.808 -0.4230 -0.4990  0.2607
 3374TIP3    H134317   4.158   1.314  13.888 -1.6614 -1.3496  0.1246
 3374TIP3    H234318   4.135   1.305  13.739  2.2446  2.7763 -0.9544
 3375TIP3   OH234319   6.497   2.643  14.315 -0.0230 -0.1867 -0.0277
 3375TIP3    H134320   6.504   2.590  14.394  0.1785 -1.4408 -0.8725
 3375TIP3    H234321   6.402   2.650  14.300 -0.0812  0.5289  0.6244
 3376TIP3   OH234322   1.325   2.169  14.038 -0.0385  0.5014 -0.4233
 3376TIP3    H134323   1.257   2.235  14.026 -1.2387 -0.5789  0.1564
 3376TIP3    H234324   1.342   2.169  14.132 -0.9242 -0.8099 -0.2377
 3377TIP3   OH234325   3.876   5.711  15.116 -0.1476  0.1246 -0.6395
 3377TIP3    H134326   3.845   5.772  15.049 -0.8140  0.6607  0.1276
 3377TIP3    H234327   3.918   5.767  15.181  0.5048 -0.3897 -0.6159
 3378TIP3   OH234328   0.814   4.086  15.149 -0.4142  0.2690  0.0741
 3378TIP3    H134329   0.823   4.176  15.180 -1.4147 -0.0476  1.3771
 3378TIP3    H234330   0.783   4.037  15.225 -0.0953 -1.1486 -0.6641
 3379TIP3   OH234331   2.885   1.370  16.689  0.3619 -0.0881  0.1779
 3379TIP3    H134332   2.865   1.279  16.669  0.1142  0.3866 -1.9805
 3379TIP3    H234333   2.978   1.371  16.710  0.0648 -1.0168  1.7621
 3380TIP3   OH234334   4.239   4.132  16.354  0.2225  0.4607  0.2237
 3380TIP3    H134335   4.199   4.186  16.285  1.6686 -0.3465 -1.3261
 3380TIP3    H234336   4.331   4.157  16.353  1.0500 -2.2093 -0.8320
 3381TIP3   OH234337   1.187   0.128  15.974  0.6521 -0.4297  0.6172
 3381TIP3    H134338   1.172   0.132  16.068 -2.3877  0.8747  0.2175
 3381TIP3    H234339   1.179   0.219  15.945 -0.1705 -0.9974 -1.0596
 3382TIP3   OH234340   0.738   6.541  16.186 -0.0529 -0.3047 -0.3623
 3382TIP3    H134341   0.645   6.561  16.182  0.0354  0.2136 -0.0295
 3382TIP3    H234342   0.749   6.492  16.268 -0.0295 -0.3242 -0.3781
 3383TIP3   OH234343   2.191   3.880  17.137  0.0998  0.0908 -0.9365
 3383TIP3    H134344   2.131   3.896  17.064  0.1529 -0.0887 -1.0199
 3383TIP3    H234345   2.224   3.792  17.121 -0.1463 -0.0815 -0.5164
 3384TIP3   OH234346   2.631   1.430  15.333  0.0567  0.2372  0.6970
 3384TIP3    H134347   2.626   1.525  15.343 -1.5015  0.2331  0.3008
 3384TIP3    H234348   2.724   1.411  15.324  0.3147  1.9177 -0.8917
 3385TIP3   OH234349   3.703   3.652  15.405 -0.6634  0.5710  0.1072
 3385TIP3    H134350   3.663   3.715  15.345 -0.5870  1.0984  0.6071
 3385TIP3    H234351   3.761   3.705  15.460 -0.7588  0.0934  0.6723
 3386TIP3   OH234352   6.554   1.328  16.466  0.2499 -0.0959 -0.1000
 3386TIP3    H134353   6.551   1.374  16.550 -0.7426  0.6777 -0.5487
 3386TIP3    H234354   6.640   1.284  16.466  1.7412  2.6122 -0.1062
 3387TIP3   OH234355   2.294   1.505  14.264 -0.0600 -0.5060 -0.1097
 3387TIP3    H134356   2.379   1.485  14.225  0.5081  0.1037  0.7824
 3387TIP3    H234357   2.234   1.441  14.226  0.8613 -1.1375 -0.5130
 3388TIP3   OH234358   3.559   0.422  14.268 -0.2602 -0.3459 -0.3312
 3388TIP3    H134359   3.540   0.515  14.280  2.4664  0.1441  0.8438
 3388TIP3    H234360   3.582   0.414  14.176  0.5785  0.3814 -0.1935
 3389TIP3   OH234361   2.838   0.259  16.670  0.7861 -0.2623  0.2745
 3389TIP3    H134362   2.759   0.209  16.690  0.6948  1.0472  4.2157
 3389TIP3    H234363   2.805   0.343  16.636  0.5771 -0.4612 -0.0115
 3390TIP3   OH234364   4.514   5.330  16.299  0.6624  0.1821  0.3095
 3390TIP3    H134365   4.520   5.236  16.286 -0.1434  0.2174 -0.4219
 3390TIP3    H234366   4.487   5.340  16.390 -0.8290 -0.3771 -0.0306
 3391TIP3   OH234367   1.518   0.292  15.627 -0.0552 -0.0758 -0.3505
 3391TIP3    H134368   1.610   0.267  15.617  0.5499  0.6849  2.5277
 3391TIP3    H234369   1.481   0.225  15.684 -0.8906  0.4813 -0.2182
 3392TIP3   OH234370   3.870   2.004  15.986  0.0048  0.0363 -0.4327
 3392TIP3    H134371   3.899   1.961  16.067 -1.9976  1.1356  0.9398
 3392TIP3    H234372   3.948   2.004  15.930  1.0640 -2.0656  0.8914
 3393TIP3   OH234373   0.081   0.265  14.606 -0.1359 -0.3222  0.0182
 3393TIP3    H134374   0.003   0.294  14.558 -0.6302 -0.4460  0.7298
 3393TIP3    H234375   0.068   0.298  14.694  0.3674 -0.7949  0.2753
 3394TIP3   OH234376   5.661   4.865  16.953 -0.9226 -0.1878 -0.5386
 3394TIP3    H134377   5.730   4.914  16.998  0.6968 -1.0385 -1.9551
 3394TIP3    H234378   5.668   4.892  16.862 -0.9394 -1.9533 -1.1047
 3395TIP3   OH234379   5.584   5.695  15.546 -0.3546  0.0456  0.6479
 3395TIP3    H134380   5.659   5.731  15.497  1.0072 -1.1999  1.7301
 3395TIP3    H234381   5.533   5.647  15.481 -0.5273  1.3363 -0.2086
 3396TIP3   OH234382   0.515   5.046  14.324  0.0275 -0.1959  0.2383
 3396TIP3    H134383   0.440   4.989  14.340 -0.1918 -0.6368 -1.9898
 3396TIP3    H234384   0.553   5.014  14.242 -0.9702  3.6504 -1.9739
 3397TIP3   OH234385   1.404   6.098  16.701  0.0631 -0.5344 -0.2164
 3397TIP3    H134386   1.494   6.065  16.708  1.0498  1.8874 -0.3888
 3397TIP3    H234387   1.373   6.064  16.617  1.4038 -0.1832 -0.8936
 3398TIP3   OH234388   1.728   1.129  15.951 -0.4058 -0.2010  0.3969
 3398TIP3    H134389   1.772   1.151  16.033 -0.8575 -1.0274  0.8806
 3398TIP3    H234390   1.695   1.040  15.965  1.1376 -1.1157 -1.3600
 3399TIP3   OH234391   4.801   4.797  15.388 -0.0886 -0.2319 -0.8506
 3399TIP3    H134392   4.779   4.817  15.297  0.5948  0.1687 -0.9326
 3399TIP3    H234393   4.856   4.870  15.416 -1.3031  0.2935  0.2784
 3400TIP3   OH234394   1.437   1.766  16.552  0.1808 -0.2435 -0.6001
 3400TIP3    H134395   1.471   1.738  16.468 -2.0137 -1.4851 -1.1521
 3400TIP3    H234396   1.350   1.803  16.532  0.5770  1.6516  0.8522
 3401TIP3   OH234397   0.485   2.205  13.710  0.0201  0.2120  0.2599
 3401TIP3    H134398   0.432   2.181  13.786  1.5683 -1.0730  1.0190
 3401TIP3    H234399   0.426   2.198  13.635 -1.2402  0.3437  1.2072
 3402TIP3   OH234400   0.760   3.007  14.795  0.3717  0.8050 -0.0386
 3402TIP3    H134401   0.833   3.057  14.830 -1.0273  1.5801  1.9567
 3402TIP3    H234402   0.682   3.057  14.819 -1.0227 -1.6098  0.8927
 3403TIP3   OH234403   0.540   5.987  16.438  0.1507  0.2726 -0.4101
 3403TIP3    H134404   0.560   6.015  16.528 -2.4670  1.2700 -0.0421
 3403TIP3    H234405   0.532   6.069  16.390 -0.4942 -0.1660 -1.0627
 3404TIP3   OH234406   0.381   4.095  15.281  0.1338  0.5155 -0.3297
 3404TIP3    H134407   0.291   4.077  15.309  0.6192  0.5018  1.3302
 3404TIP3    H234408   0.373   4.161  15.212 -1.2316 -0.7522 -1.4638
 3405TIP3   OH234409   0.453   5.246  14.521 -0.2404 -0.6470 -0.4198
 3405TIP3    H134410   0.534   5.259  14.569 -0.0369  0.3344 -0.9990
 3405TIP3    H234411   0.474   5.180  14.455  0.2984  0.1065 -1.0191
 3406TIP3   OH234412   0.278   3.401  13.999 -0.5475 -0.0404 -0.4195
 3406TIP3    H134413   0.307   3.324  13.950  0.6550  0.4191 -0.4422
 3406TIP3    H234414   0.344   3.468  13.982 -0.2187  0.2207  1.6154
 3407TIP3   OH234415   6.264   0.000  14.066 -0.3343  0.0880  0.0345
 3407TIP3    H134416   6.216   0.036  14.140  0.8357  1.1758  0.3090
 3407TIP3    H234417   6.308  -0.078  14.101 -1.8036 -0.8884 -0.2083
 3408TIP3   OH234418   5.505   3.437  14.745  0.0998 -0.0792  0.4209
 3408TIP3    H134419   5.414   3.419  14.769 -0.9051  1.6031 -1.7519
 3408TIP3    H234420   5.523   3.375  14.674 -0.3162  1.2789 -0.9339
 3409TIP3   OH234421   5.012   0.004  15.372 -0.6374  0.1158  0.1817
 3409TIP3    H134422   5.060  -0.047  15.306 -1.1061 -0.5373  0.3276
 3409TIP3    H234423   4.923   0.011  15.335 -0.3806  1.5269 -0.2061
 3410TIP3   OH234424   5.644   3.396  14.986 -0.0019  0.5706  0.1740
 3410TIP3    H134425   5.576   3.403  15.052 -0.1145  2.4044 -0.0874
 3410TIP3    H234426   5.598   3.407  14.903  0.3731  0.0367 -0.1061
 3411TIP3   OH234427   6.602   5.787  15.931  0.0239  0.1581  0.2546
 3411TIP3    H134428   6.694   5.761  15.941  0.3724  1.9045  2.0919
 3411TIP3    H234429   6.577   5.750  15.846  2.6508  0.2943 -0.6945
 3412TIP3   OH234430   1.968   1.145  15.373 -0.3659  0.4697  0.3234
 3412TIP3    H134431   1.874   1.161  15.367 -0.0786  2.2613 -0.1126
 3412TIP3    H234432   1.999   1.148  15.282  0.3814  2.0667  0.5871
 3413TIP3   OH234433   3.376   5.510  16.106 -0.0320  0.0375  0.6312
 3413TIP3    H134434   3.423   5.519  16.189 -0.5247  0.3114  0.8863
 3413TIP3    H234435   3.284   5.520  16.129 -0.0702  2.7812 -0.2807
 3414TIP3   OH234436   6.321   4.943  16.959 -0.2681  0.2356 -0.3777
 3414TIP3    H134437   6.399   4.960  17.011 -0.4242 -2.5953  0.9597
 3414TIP3    H234438   6.353   4.898  16.880 -0.4195  0.5974 -0.6500
 3415TIP3   OH234439   3.362   5.726  16.863  0.1796  0.1948  0.5964
 3415TIP3    H134440   3.400   5.659  16.805 -1.5088 -0.7829  0.5616
 3415TIP3    H234441   3.338   5.678  16.942 -2.3890  0.3961  0.0212
 3416TIP3   OH234442   5.081   2.665  16.433  0.8444  0.0087 -0.2679
 3416TIP3    H134443   5.146   2.670  16.363  1.1735 -0.9201 -0.0428
 3416TIP3    H234444   5.066   2.572  16.445  1.4732  0.0916  1.5180
 3417TIP3   OH234445   6.622   2.993  15.182  0.0316 -0.6126  0.2432
 3417TIP3    H134446   6.579   3.077  15.193 -2.2833 -1.8086  0.9051
 3417TIP3    H234447   6.589   2.960  15.099  1.2158 -0.7247 -0.1969
 3418TIP3   OH234448   3.613   3.288  15.893 -0.4064 -0.5179  0.0367
 3418TIP3    H134449   3.613   3.383  15.910  3.1783 -0.8041  3.0424
 3418TIP3    H234450   3.546   3.254  15.952 -0.4574  0.0123  0.2975
 3419TIP3   OH234451   4.230   0.944  15.342  0.2697  0.3323 -0.1131
 3419TIP3    H134452   4.261   0.880  15.279  0.5137  1.2614 -0.9685
 3419TIP3    H234453   4.262   1.028  15.309 -0.5677  0.9708  0.6269
 3420TIP3   OH234454   4.703   2.701  14.125  0.2535  0.3641  0.3350
 3420TIP3    H134455   4.734   2.791  14.113 -0.7380  0.8533  1.2809
 3420TIP3    H234456   4.632   2.709  14.189 -0.9695 -0.8690 -0.8146
 3421TIP3   OH234457   6.395   2.559  15.389  0.1416 -0.1685 -0.5908
 3421TIP3    H134458   6.390   2.470  15.425 -0.7065  0.4307  0.8881
 3421TIP3    H234459   6.359   2.551  15.301 -2.4465 -0.8709  0.4410
 3422TIP3   OH234460   5.152   4.555  16.447  0.4351 -0.0333  0.4440
 3422TIP3    H134461   5.154   4.535  16.353 -0.5519  0.4986  0.2952
 3422TIP3    H234462   5.169   4.471  16.490 -0.0107 -0.4658 -0.2016
 3423TIP3   OH234463   2.856   1.864  17.149 -0.2000 -0.2044  0.8213
 3423TIP3    H134464   2.889   1.826  17.230  0.4008 -0.9073  0.2584
 3423TIP3    H234465   2.852   1.791  17.088  0.7140  0.5803 -0.2116
 3424TIP3   OH234466   1.258   2.136  14.818 -0.7169 -0.1909  0.0094
 3424TIP3    H134467   1.208   2.090  14.750 -0.3804 -0.0024 -0.3719
 3424TIP3    H234468   1.330   2.077  14.839 -0.9304 -0.3341  0.3463
 3425TIP3   OH234469   5.975   1.889  15.837 -1.0120  0.0015  0.5538
 3425TIP3    H134470   5.941   1.971  15.873 -1.4195 -0.5657  1.4980
 3425TIP3    H234471   5.900   1.849  15.792 -0.9661 -0.1267  0.5904
 3426TIP3   OH234472   4.867   4.653  16.229  0.2435  0.2250 -0.4069
 3426TIP3    H134473   4.863   4.668  16.323  0.0232  2.1582 -0.6809
 3426TIP3    H234474   4.868   4.741  16.190 -0.2775 -0.5186 -2.2317
 3427TIP3   OH234475   0.024   0.360  15.902  0.3875 -0.4598  0.1804
 3427TIP3    H134476  -0.017   0.431  15.853  0.5641 -0.4459  0.0511
 3427TIP3    H234477   0.117   0.381  15.901  0.5329 -1.0844 -0.5079
 3428TIP3   OH234478   4.525   2.239  14.298 -0.3800  0.2725  0.1322
 3428TIP3    H134479   4.481   2.292  14.232 -1.3956  1.5120  1.7211
 3428TIP3    H234480   4.612   2.278  14.307 -0.3648  0.3198 -0.2340
 3429TIP3   OH234481   5.616   4.035  16.367 -0.3269  0.1135 -0.0355
 3429TIP3    H134482   5.610   3.987  16.449 -0.5024  0.1172 -0.0442
 3429TIP3    H234483   5.635   3.969  16.301 -2.1491 -0.2079 -0.2954
 3430TIP3   OH234484   1.205   3.852  16.200 -0.0526 -0.1105 -0.1815
 3430TIP3    H134485   1.156   3.822  16.123  1.8205  0.7572 -1.8309
 3430TIP3    H234486   1.288   3.805  16.195  0.9039  1.4740  0.1001
 3431TIP3   OH234487   5.115   1.300  16.876  0.5296  0.2006 -0.1427
 3431TIP3    H134488   5.028   1.283  16.839  0.5976  1.0440 -0.7404
 3431TIP3    H234489   5.104   1.383  16.923  1.0140  0.3104 -0.2248
 3432TIP3   OH234490   0.500   1.666  16.720 -0.3521 -0.5631  0.6106
 3432TIP3    H134491   0.484   1.589  16.773  2.0085 -1.2228  0.4655
 3432TIP3    H234492   0.559   1.720  16.773  0.7202 -0.4743 -0.6138
 3433TIP3   OH234493   5.549   0.552  16.643  0.1919 -0.2135  0.3214
 3433TIP3    H134494   5.550   0.589  16.554  0.4496  0.1050  0.4553
 3433TIP3    H234495   5.458   0.528  16.658  0.3765 -1.6157 -0.5810
 3434TIP3   OH234496   5.303   1.070  14.768  0.0513  0.3429 -0.3263
 3434TIP3    H134497   5.222   1.109  14.735 -0.4014  0.4713  0.8667
 3434TIP3    H234498   5.289   0.976  14.762  0.1614  0.3641 -0.9265
 3435TIP3   OH234499   4.001   2.347  15.035  0.4779 -0.4496  0.6453
 3435TIP3    H134500   4.030   2.400  15.110  0.4265 -0.2296  0.5100
 3435TIP3    H234501   4.056   2.375  14.963 -0.4054  0.3421  0.2594
 3436TIP3   OH234502   2.319   2.262  15.646 -0.9278  0.4756  0.4833
 3436TIP3    H134503   2.398   2.283  15.597 -2.6517  1.3209 -2.1394
 3436TIP3    H234504   2.349   2.253  15.737  2.4144 -1.0241 -0.6006
 3437TIP3   OH234505   2.029   0.066  16.275  0.0444  0.2047 -0.4264
 3437TIP3    H134506   2.043   0.126  16.349  0.8250 -1.4540  0.8215
 3437TIP3    H234507   2.114   0.025  16.260 -0.8104 -1.7524 -0.1921
 3438TIP3   OH234508   2.586   2.312  14.890 -0.5046  0.1494 -0.0244
 3438TIP3    H134509   2.501   2.335  14.927 -0.6264 -0.7043  0.2577
 3438TIP3    H234510   2.648   2.370  14.934 -0.8804  0.4500  0.1137
 3439TIP3   OH234511   3.553   5.862  14.791 -0.1555 -0.5670 -0.5789
 3439TIP3    H134512   3.458   5.852  14.786 -0.5264  2.1023 -0.6741
 3439TIP3    H234513   3.574   5.927  14.723  1.5617 -0.2604  0.1804
 3440TIP3   OH234514   2.447   0.807  16.609 -0.2959 -0.0243  0.1275
 3440TIP3    H134515   2.377   0.742  16.610  1.8413 -2.5331 -1.1792
 3440TIP3    H234516   2.447   0.840  16.519 -1.8324  2.5394  0.9374
 3441TIP3   OH234517   1.517   1.565  16.709  0.2086  0.1632 -0.4462
 3441TIP3    H134518   1.605   1.596  16.734  0.3698  0.2534 -1.1033
 3441TIP3    H234519   1.489   1.626  16.641  1.3778 -2.2205 -3.3063
 3442TIP3   OH234520   3.256   4.671  14.548 -0.0833  0.3300 -0.0014
 3442TIP3    H134521   3.348   4.674  14.575 -0.3569 -2.1883  1.5252
 3442TIP3    H234522   3.207   4.677  14.630 -1.2266 -0.0907 -0.6365
 3443TIP3   OH234523   4.927   6.624  15.714 -0.0628 -0.6175 -0.3008
 3443TIP3    H134524   4.898   6.550  15.661  1.5698 -1.5979  0.1105
 3443TIP3    H234525   5.006   6.656  15.670  0.3348 -0.3443  0.5806
 3444TIP3   OH234526   1.334   4.380  14.777  0.0738 -0.1933 -0.3092
 3444TIP3    H134527   1.290   4.377  14.692 -1.1726 -3.6508  0.2970
 3444TIP3    H234528   1.410   4.324  14.767 -0.1209 -0.6957  0.8582
 3445TIP3   OH234529   2.920   2.125  17.143  0.4781  0.0599 -0.2263
 3445TIP3    H134530   2.868   2.052  17.109 -1.9041  0.9266  1.2997
 3445TIP3    H234531   2.952   2.095  17.228 -0.7491  0.8205  0.5381
 3446TIP3   OH234532   3.335   3.261  15.920  0.3400  0.3821  0.4482
 3446TIP3    H134533   3.353   3.269  16.014 -0.5523 -4.9909  1.4002
 3446TIP3    H234534   3.241   3.277  15.912  0.1638 -0.4331  0.7659
 3447TIP3   OH234535   3.634   2.673  15.914 -0.6066  0.3220  0.0665
 3447TIP3    H134536   3.680   2.603  15.961  0.8065  1.6311  0.7165
 3447TIP3    H234537   3.546   2.638  15.900  0.5638 -2.3370 -1.3540
 3448TIP3   OH234538   4.609   6.525  16.909  0.0049 -0.0063  0.0903
 3448TIP3    H134539   4.543   6.481  16.962 -1.6485  1.5294 -0.5612
 3448TIP3    H234540   4.692   6.504  16.951 -1.1703  0.9383  3.1693
 3449TIP3   OH234541   0.187   0.235  13.765 -0.9821  0.3276  0.0015
 3449TIP3    H134542   0.282   0.242  13.765 -0.9248 -0.1338 -1.0587
 3449TIP3    H234543   0.165   0.201  13.851 -0.0366 -1.0951 -0.2868
 3450TIP3   OH234544   1.520   4.547  16.416 -0.0578 -0.1058  0.2848
 3450TIP3    H134545   1.487   4.637  16.419 -0.2587 -0.1511 -0.3874
 3450TIP3    H234546   1.613   4.556  16.395 -0.6028 -0.1023 -2.6234
 3451TIP3   OH234547   3.300   4.531  14.811  0.0187 -0.6112  0.2139
 3451TIP3    H134548   3.306   4.626  14.819 -0.0429 -0.5716 -0.1918
 3451TIP3    H234549   3.336   4.498  14.893  0.3015 -0.2462  0.2405
 3452TIP3   OH234550   2.049   1.733  13.860  0.3545 -0.6001  0.9232
 3452TIP3    H134551   2.041   1.771  13.948 -3.4475 -0.2874  0.6068
 3452TIP3    H234552   2.074   1.806  13.804  0.6948 -0.3208  1.4342
 3453TIP3   OH234553   0.473   5.835  15.749  0.2645 -0.3816 -0.4461
 3453TIP3    H134554   0.525   5.832  15.669 -1.4696 -0.5264 -1.6217
 3453TIP3    H234555   0.525   5.888  15.809  0.2896  2.4075 -2.7104
 3454TIP3   OH234556   6.121   1.233  13.662 -0.5324 -0.4358 -0.0232
 3454TIP3    H134557   6.148   1.161  13.606  0.3254 -0.0395 -0.1238
 3454TIP3    H234558   6.190   1.298  13.653 -2.1343  1.1723 -1.3263
 3455TIP3   OH234559   4.736   0.338  14.654 -0.0235  0.1153  0.4216
 3455TIP3    H134560   4.819   0.359  14.696 -0.4403 -0.3036  1.4872
 3455TIP3    H234561   4.695   0.423  14.639  0.7514  0.3480 -0.4697
 3456TIP3   OH234562   1.213   6.109  13.835  0.2698  0.1464  0.1705
 3456TIP3    H134563   1.139   6.071  13.789 -1.6931  2.4718  1.1690
 3456TIP3    H234564   1.266   6.150  13.767  1.2493 -2.2872 -0.6557
 3457TIP3   OH234565   3.778   2.875  15.284  0.4692  0.0190 -0.4423
 3457TIP3    H134566   3.765   2.969  15.274 -0.2172  0.3733  2.6925
 3457TIP3    H234567   3.870   2.866  15.309  0.0798  0.1290  1.1513
 3458TIP3   OH234568   5.672   5.436  13.592 -0.0212 -0.3941  0.2750
 3458TIP3    H134569   5.577   5.433  13.600 -0.1385 -1.8286 -1.1250
 3458TIP3    H234570   5.705   5.382  13.664 -0.3300 -0.8919  0.0452
 3459TIP3   OH234571   4.169   3.890  16.205 -0.1613 -0.0993  0.0432
 3459TIP3    H134572   4.194   3.968  16.254  2.1818 -0.2616 -0.7957
 3459TIP3    H234573   4.208   3.817  16.253 -0.0180 -0.4867 -0.6369
 3460TIP3   OH234574   0.552   1.856  14.206 -0.2336  0.3230  0.6435
 3460TIP3    H134575   0.573   1.772  14.166  0.6825  0.7157  0.2836
 3460TIP3    H234576   0.588   1.922  14.147 -0.5791  0.9662  1.1251
 3461TIP3   OH234577   0.882   5.354  14.859 -0.5658 -0.1605 -0.6160
 3461TIP3    H134578   0.971   5.325  14.838 -0.6286  0.0941 -1.2609
 3461TIP3    H234579   0.885   5.449  14.847 -1.0213 -0.1927 -0.9759
 3462TIP3   OH234580   4.353   5.735  13.361 -0.7578 -0.3143 -0.0346
 3462TIP3    H134581   4.384   5.791  13.289  2.6564 -0.7457  0.9457
 3462TIP3    H234582   4.385   5.648  13.339 -1.6152 -0.9002  0.9484
 3463TIP3   OH234583   3.409   6.457  14.059 -0.2612 -0.0943 -0.4397
 3463TIP3    H134584   3.356   6.488  13.986  1.2582  0.4347 -1.3501
 3463TIP3    H234585   3.399   6.524  14.127 -0.7498 -0.0020 -0.6050
 3464TIP3   OH234586   2.175   4.110  13.734  0.3532  0.0482  0.1085
 3464TIP3    H134587   2.120   4.080  13.662  0.4946  0.4457 -0.1694
 3464TIP3    H234588   2.146   4.059  13.810  0.1409 -0.3063 -0.2073
 3465TIP3   OH234589   2.301   0.002  17.287 -0.2237 -0.1745 -0.1461
 3465TIP3    H134590   2.390   0.007  17.322  0.1887 -1.2561 -0.9855
 3465TIP3    H234591   2.270  -0.085  17.314 -1.3813  0.5134  0.8960
 3466TIP3   OH234592   4.029   5.614  14.373  0.0087 -0.1291  0.3544
 3466TIP3    H134593   4.075   5.686  14.417 -0.1403 -0.9409  1.9364
 3466TIP3    H234594   4.044   5.629  14.280 -0.4174  2.1858  0.6076
 3467TIP3   OH234595   4.722   4.217  14.269  0.0744  0.1265  0.4208
 3467TIP3    H134596   4.759   4.305  14.264  1.1947 -0.3035  0.8419
 3467TIP3    H234597   4.661   4.212  14.195  1.7619  0.4455 -1.0439
 3468TIP3   OH234598   3.137   6.572  13.547 -0.5604  0.1944  0.0779
 3468TIP3    H134599   3.126   6.567  13.452  0.7497 -1.6245 -0.0383
 3468TIP3    H234600   3.231   6.586  13.559 -0.6340 -0.1415  1.0887
 3469TIP3   OH234601   3.259   2.629  14.785  0.4065  0.5061  0.2014
 3469TIP3    H134602   3.254   2.623  14.690 -1.1298 -0.8257  0.3308
 3469TIP3    H234603   3.177   2.591  14.816  1.5369 -0.5414  2.1156
 3470TIP3   OH234604   5.728   1.838  14.708  0.7509  0.1570  0.2358
 3470TIP3    H134605   5.789   1.818  14.779  0.4369 -0.6184  0.2932
 3470TIP3    H234606   5.642   1.820  14.745  0.2869  2.9780  0.7715
 3471TIP3   OH234607   5.247   5.547  16.347  0.6111 -0.2269 -0.0191
 3471TIP3    H134608   5.179   5.506  16.292  2.9690 -2.6785 -1.3232
 3471TIP3    H234609   5.241   5.500  16.430  0.1932  0.1293  0.1550
 3472TIP3   OH234610   0.146   3.495  14.231  0.0918  0.0356 -0.6221
 3472TIP3    H134611   0.188   3.479  14.146 -2.3539  0.2850 -1.9749
 3472TIP3    H234612   0.058   3.459  14.221  0.5300 -2.4633  2.8139
 3473TIP3   OH234613   2.849   6.122  16.185 -0.0866 -0.1183  0.3395
 3473TIP3    H134614   2.915   6.179  16.145  0.5177  0.7167  2.4152
 3473TIP3    H234615   2.800   6.179  16.244 -1.5128 -1.1221  0.1677
 3474TIP3   OH234616   0.596   6.271  16.377  0.4522  0.3812  0.3612
 3474TIP3    H134617   0.684   6.304  16.357  0.0159  0.6765 -1.2030
 3474TIP3    H234618   0.554   6.263  16.292 -1.4553  1.3844  1.1469
 3475TIP3   OH234619   0.284   3.126  15.824  0.3994  0.1051 -0.3937
 3475TIP3    H134620   0.352   3.077  15.778 -0.9900 -1.5048 -0.8580
 3475TIP3    H234621   0.220   3.059  15.849 -0.4655  1.4041  1.0262
 3476TIP3   OH234622   5.691   6.053  13.953 -0.1450  0.0804  0.2468
 3476TIP3    H134623   5.652   6.003  13.882  0.1275 -1.3107  1.0266
 3476TIP3    H234624   5.758   6.106  13.911 -0.3868 -0.2728 -0.6127
 3477TIP3   OH234625   1.915   5.333  13.895 -0.4080 -0.4238 -0.2566
 3477TIP3    H134626   1.855   5.330  13.821  2.5387  2.1775 -3.0837
 3477TIP3    H234627   1.909   5.423  13.928  0.7015 -0.5827  0.4504
 3478TIP3   OH234628   1.527   3.105  14.790  0.0093  0.5520 -0.3417
 3478TIP3    H134629   1.584   3.181  14.801 -1.7098  2.0637 -1.3201
 3478TIP3    H234630   1.511   3.100  14.696  0.1746 -1.1290 -0.3138
 3479TIP3   OH234631   6.055   5.286  15.091  0.2282  0.5406 -0.0095
 3479TIP3    H134632   5.992   5.348  15.052 -1.1013 -1.4943 -1.3119
 3479TIP3    H234633   6.077   5.227  15.019  2.2324  0.0606  0.9344
 3480TIP3   OH234634   5.858   3.351  15.289 -0.5034 -0.5083  0.1491
 3480TIP3    H134635   5.777   3.379  15.331 -1.0057 -0.0716 -1.0671
 3480TIP3    H234636   5.925   3.410  15.322 -1.3523  1.5149 -1.5666
 3481TIP3   OH234637   1.044   0.192  14.983  0.4162 -0.3501  0.8672
 3481TIP3    H134638   1.040   0.174  15.077 -0.4216 -0.6840  0.7783
 3481TIP3    H234639   1.135   0.176  14.959  0.2177 -2.3449  1.2357
 3482TIP3   OH234640   5.050   5.489  14.876  0.1874  0.1053 -0.1504
 3482TIP3    H134641   5.131   5.475  14.828 -0.4331 -0.1672 -1.1365
 3482TIP3    H234642   5.041   5.584  14.881 -0.0935  0.1441 -1.1896
 3483TIP3   OH234643   1.423   1.888  14.532  0.0050 -0.4746 -0.6109
 3483TIP3    H134644   1.330   1.908  14.544 -0.0022 -0.2486 -1.0369
 3483TIP3    H234645   1.433   1.799  14.567 -0.0504  0.0982  0.9247
 3484TIP3   OH234646   1.626   6.188  14.259 -0.1876  0.7011 -0.0564
 3484TIP3    H134647   1.701   6.135  14.232  1.0730  2.0466  0.6462
 3484TIP3    H234648   1.555   6.125  14.269  1.3134 -0.9183  1.0462
 3485TIP3   OH234649   1.398   0.146  14.024  0.7374 -0.1804 -0.0183
 3485TIP3    H134650   1.367   0.056  14.029  0.9459 -0.2824 -0.5416
 3485TIP3    H234651   1.485   0.144  14.064  0.6153 -0.1521  0.2478
 3486TIP3   OH234652   6.043   3.908  15.432 -0.4938  0.5426 -0.2575
 3486TIP3    H134653   6.014   3.854  15.358  0.0068  0.1403 -0.1697
 3486TIP3    H234654   5.963   3.927  15.480 -0.5317 -1.4130  0.5540
 3487TIP3   OH234655   0.811   2.194  16.158 -0.1806  0.3524  0.7747
 3487TIP3    H134656   0.816   2.138  16.236 -1.2501 -3.6168 -1.7246
 3487TIP3    H234657   0.717   2.212  16.148 -0.3803 -1.3208 -0.8425
 3488TIP3   OH234658   3.374   0.634  13.298  0.4332  0.4420 -0.2478
 3488TIP3    H134659   3.443   0.683  13.254 -1.8489  0.7224 -4.0500
 3488TIP3    H234660   3.301   0.695  13.303 -0.5371 -0.7373  0.6919
 3489TIP3   OH234661   3.666   1.583  16.366  0.0022 -0.0770  0.5381
 3489TIP3    H134662   3.739   1.617  16.313  0.2797 -0.7639  0.4703
 3489TIP3    H234663   3.708   1.553  16.446 -0.5772  2.2141  1.7729
 3490TIP3   OH234664   1.220   2.722  14.855 -0.5437  0.3930 -0.1206
 3490TIP3    H134665   1.223   2.815  14.880 -1.2947  0.2802  0.4401
 3490TIP3    H234666   1.247   2.721  14.763  0.9984  0.9853  0.2924
 3491TIP3   OH234667   4.071   3.676  14.800  0.1845  0.1362 -0.2056
 3491TIP3    H134668   4.067   3.583  14.822  0.7051  0.2244  0.3072
 3491TIP3    H234669   4.104   3.679  14.710 -0.9692 -0.2018 -0.6591
 3492TIP3   OH234670   5.620   4.200  14.629  0.4115  0.6274 -0.2419
 3492TIP3    H134671   5.527   4.213  14.648 -0.1780 -0.6451 -2.0026
 3492TIP3    H234672   5.624   4.117  14.581  2.4450  0.7225 -0.3344
 3493TIP3   OH234673   1.239   0.852  16.999  0.4297  0.3009  0.3023
 3493TIP3    H134674   1.236   0.792  17.073 -0.4452 -0.1047 -0.0371
 3493TIP3    H234675   1.324   0.836  16.957  0.3898 -0.3850  0.4756
 3494TIP3   OH234676   4.469   5.603  14.787 -0.9160 -0.1073 -0.1225
 3494TIP3    H134677   4.442   5.594  14.695 -0.7587 -0.4783 -0.1329
 3494TIP3    H234678   4.564   5.599  14.785 -0.9311 -0.7739  0.1217
 3495TIP3   OH234679   1.759   1.594  14.037  0.6761 -0.0754 -0.1176
 3495TIP3    H134680   1.720   1.632  13.958  0.2091  0.6294  0.4328
 3495TIP3    H234681   1.745   1.661  14.105 -0.9202 -1.5450  1.0899
 3496TIP3   OH234682   0.380   3.584  15.659  0.1559 -0.3811  0.0022
 3496TIP3    H134683   0.379   3.526  15.735  0.3153  1.1210  1.1888
 3496TIP3    H234684   0.313   3.649  15.678  0.5640  0.3221 -0.9182
 3497TIP3   OH234685   4.166   5.195  16.556 -0.3408 -0.0434 -0.1926
 3497TIP3    H134686   4.109   5.121  16.577 -1.4549  1.0191  0.6943
 3497TIP3    H234687   4.234   5.194  16.623  0.5681 -1.1444 -1.0863
 3498TIP3   OH234688   0.880   0.203  15.691  0.0754 -0.3122 -0.3829
 3498TIP3    H134689   0.860   0.126  15.745 -1.8080  0.7931  0.5788
 3498TIP3    H234690   0.794   0.233  15.660  0.9206  0.4932 -2.0492
 3499TIP3   OH234691   6.238   3.028  15.278 -0.0582  0.3757  0.2666
 3499TIP3    H134692   6.162   3.074  15.312  0.8476  1.3563  1.0403
 3499TIP3    H234693   6.290   3.006  15.356  0.3029 -0.5661 -0.2147
 3500TIP3   OH234694   1.934   5.441  16.717  0.1154 -1.0285  0.3003
 3500TIP3    H134695   2.020   5.440  16.759  1.2919 -0.0990 -1.9388
 3500TIP3    H234696   1.902   5.350  16.725  0.2266 -0.8863  3.1219
 3501TIP3   OH234697   1.214   2.509  16.166 -0.5100 -0.2469 -0.4984
 3501TIP3    H134698   1.283   2.492  16.230  0.3579  0.6313 -1.1835
 3501TIP3    H234699   1.162   2.428  16.165 -0.2443 -0.4608  0.9289
 3502TIP3   OH234700   5.441   3.949  15.357  0.1029 -0.5525  0.1731
 3502TIP3    H134701   5.346   3.939  15.359  0.0885 -0.3591  1.2667
 3502TIP3    H234702   5.459   4.023  15.415  0.9122 -0.5255 -0.0909
 3503TIP3   OH234703   3.542   3.324  17.032 -0.5813  0.0821  0.3589
 3503TIP3    H134704   3.479   3.295  16.967 -0.8121  0.0538  0.5933
 3503TIP3    H234705   3.624   3.281  17.008 -0.8951 -0.6714  0.6356
 3504TIP3   OH234706   4.813   5.038  16.561 -0.1740 -0.0034  0.2299
 3504TIP3    H134707   4.897   5.063  16.524 -0.1235 -0.3924  0.0822
 3504TIP3    H234708   4.833   5.007  16.650  0.0371 -1.4861 -0.3115
 3505TIP3   OH234709   2.221   4.686  14.263  0.6836  0.3156  0.3019
 3505TIP3    H134710   2.212   4.683  14.358 -0.0464  0.3294  0.2445
 3505TIP3    H234711   2.172   4.764  14.237  1.0261  0.4085 -0.0696
 3506TIP3   OH234712   3.695   5.903  15.394 -0.0099  0.2615 -0.2023
 3506TIP3    H134713   3.750   5.906  15.472  1.4080 -2.1026 -1.0022
 3506TIP3    H234714   3.651   5.817  15.400 -0.3668  0.3182 -1.6722
 3507TIP3   OH234715   3.804   4.668  14.286  0.1113 -0.2336  0.3663
 3507TIP3    H134716   3.835   4.685  14.197 -1.5540 -1.2027 -0.4478
 3507TIP3    H234717   3.763   4.750  14.314  1.1710  0.2633  0.5013
 3508TIP3   OH234718   5.348   4.074  14.566  0.0689 -0.2497  0.0642
 3508TIP3    H134719   5.393   3.991  14.577 -1.6862 -1.3556 -0.6868
 3508TIP3    H234720   5.332   4.080  14.472 -1.4216  0.0267  0.3089
 3509TIP3   OH234721   1.253   4.477  16.501  0.3752  0.4713  0.3091
 3509TIP3    H134722   1.166   4.517  16.507 -0.1060 -0.2279 -1.5552
 3509TIP3    H234723   1.309   4.546  16.467 -0.3151 -0.1448 -2.2600
 3510TIP3   OH234724   3.257   6.165  14.395  0.0436 -0.2367  0.0530
 3510TIP3    H134725   3.220   6.090  14.443 -1.5383  0.6263  0.2819
 3510TIP3    H234726   3.315   6.127  14.330  2.3783 -1.4828  2.6746
 3511TIP3   OH234727   1.809   1.384  15.192  0.4285  0.3686 -0.0751
 3511TIP3    H134728   1.726   1.354  15.230 -0.1304  0.9550 -0.7903
 3511TIP3    H234729   1.839   1.310  15.139  0.8100 -0.1590  0.8455
 3512TIP3   OH234730   1.178   5.818  15.925 -1.0555  0.3215  0.4573
 3512TIP3    H134731   1.192   5.762  15.848  0.2228  0.0572  0.8667
 3512TIP3    H234732   1.117   5.769  15.980  1.1348 -1.4019  1.4932
 3513TIP3   OH234733   5.303   3.793  16.545 -0.8490  0.4139 -0.0046
 3513TIP3    H134734   5.273   3.721  16.601 -1.3192  0.9662  0.4821
 3513TIP3    H234735   5.313   3.755  16.458  0.0667 -0.5028  0.4908
 3514TIP3   OH234736   2.992   0.846  16.709 -0.3899 -0.1854  0.4817
 3514TIP3    H134737   2.968   0.753  16.702 -0.3132 -0.1398 -0.5279
 3514TIP3    H234738   3.087   0.846  16.714 -0.2655 -0.0964 -1.2960
 3515TIP3   OH234739   1.001   1.428  15.747  0.2769  0.2772 -0.3627
 3515TIP3    H134740   1.023   1.340  15.776 -0.5324 -0.0874 -0.8309
 3515TIP3    H234741   1.020   1.484  15.823  0.0339 -0.4041  0.2097
 3516TIP3   OH234742   2.439   6.195  15.053 -0.0945  0.7156  0.1032
 3516TIP3    H134743   2.499   6.164  15.120 -0.7588 -1.4601 -0.2302
 3516TIP3    H234744   2.421   6.118  14.999 -0.4683  2.1302 -1.8974
 3517TIP3   OH234745   0.890   3.424  15.343 -0.2950  0.5833 -0.0425
 3517TIP3    H134746   0.825   3.483  15.382 -0.7595 -0.5628  0.9809
 3517TIP3    H234747   0.883   3.440  15.249 -1.1361  1.4160  0.1464
 3518TIP3   OH234748   6.000   1.702  15.364 -0.1923 -0.8694  0.5381
 3518TIP3    H134749   6.088   1.726  15.334 -1.0644  0.0001 -1.4973
 3518TIP3    H234750   5.996   1.607  15.350 -0.3811 -0.5762 -1.8134
 3519TIP3   OH234751   6.207   6.513  16.919  0.4999  0.0051  0.3688
 3519TIP3    H134752   6.200   6.442  16.855 -2.1369 -0.4450  1.0087
 3519TIP3    H234753   6.138   6.493  16.983  0.4521  2.5230  1.1844
 3520TIP3   OH234754   2.051   1.806  15.124  0.0224 -0.2758 -0.3762
 3520TIP3    H134755   2.047   1.712  15.108  0.6352 -0.1331 -1.4795
 3520TIP3    H234756   2.029   1.846  15.040  0.0941  0.5705 -0.0112
 3521TIP3   OH234757   2.936   5.090  16.348 -0.0828  0.1031  0.1383
 3521TIP3    H134758   3.011   5.142  16.318 -0.9870  0.3667 -1.8465
 3521TIP3    H234759   2.893   5.147  16.412  1.2966 -0.0054  1.2273
 3522TIP3   OH234760   5.094   2.898  15.950  0.8334  0.4705 -0.4331
 3522TIP3    H134761   5.160   2.831  15.932  1.0179  0.5449 -0.0298
 3522TIP3    H234762   5.143   2.970  15.990  0.3561  0.1105  0.8370
 3523TIP3   OH234763   3.203   3.648  14.782  0.0938 -0.6411 -0.2031
 3523TIP3    H134764   3.111   3.664  14.762 -0.1644  1.7687  2.2687
 3523TIP3    H234765   3.202   3.580  14.849  0.0483 -0.1128  0.3356
 3524TIP3   OH234766   1.442   0.102  14.612  0.4108 -0.2941  0.0035
 3524TIP3    H134767   1.497   0.070  14.683 -1.4964 -0.6222  1.4199
 3524TIP3    H234768   1.469   0.052  14.535  3.5344  1.0843  0.0651
 3525TIP3   OH234769   3.058   1.456  16.991  0.0123 -0.1310  0.5326
 3525TIP3    H134770   3.153   1.456  16.977 -0.1730  2.9462 -1.7863
 3525TIP3    H234771   3.021   1.482  16.907 -2.8534 -0.3734  1.5991
 3526TIP3   OH234772   5.844   2.270  14.358  0.0372 -0.2215  0.1208
 3526TIP3    H134773   5.845   2.221  14.276  0.3051 -0.6394  0.3660
 3526TIP3    H234774   5.761   2.247  14.399  0.8854 -1.8645  1.0378
 3527TIP3   OH234775   0.199   1.191  14.952 -0.3820 -0.4216  0.1570
 3527TIP3    H134776   0.176   1.242  15.030  0.3865  0.6950 -0.3301
 3527TIP3    H234777   0.243   1.253  14.895 -0.2001 -1.4353 -0.8309
 3528TIP3   OH234778   2.673   2.671  15.718 -0.1584 -0.6673  0.5223
 3528TIP3    H134779   2.712   2.720  15.790  0.9372 -0.4927 -0.1524
 3528TIP3    H234780   2.665   2.735  15.647 -2.0802 -0.6033  0.7485
 3529TIP3   OH234781   5.740   4.334  15.088 -0.0942 -0.0778 -0.1966
 3529TIP3    H134782   5.770   4.306  15.002  2.8716  4.1096 -0.8230
 3529TIP3    H234783   5.801   4.293  15.150  0.7218  0.5312 -0.5784
 3530TIP3   OH234784   0.984   3.193  14.860  0.5932  0.2260  0.1188
 3530TIP3    H134785   0.933   3.262  14.817  2.9820  2.8207  1.1463
 3530TIP3    H234786   1.038   3.156  14.790 -2.3990 -2.5443 -0.9776
 3531TIP3   OH234787   4.225   2.835  16.576  0.0136 -0.0733 -0.1884
 3531TIP3    H134788   4.209   2.834  16.482  1.5013  1.4636 -0.5166
 3531TIP3    H234789   4.291   2.767  16.589  1.6929  1.3634 -0.7247
 3532TIP3   OH234790   1.528   2.791  14.846  0.3737  0.1980 -0.0285
 3532TIP3    H134791   1.506   2.698  14.847  0.8481  0.0880  0.6288
 3532TIP3    H234792   1.531   2.814  14.753 -0.6279 -0.2237 -0.1820
 3533TIP3   OH234793   2.328   2.084  16.096 -0.0117 -0.5826 -0.3316
 3533TIP3    H134794   2.402   2.077  16.156 -0.8454 -0.7051  0.7100
 3533TIP3    H234795   2.255   2.045  16.144 -0.2041 -2.9154 -2.3473
 3534TIP3   OH234796   1.071   6.653  17.228  0.9384  0.2165 -0.1604
 3534TIP3    H134797   1.046   6.691  17.313  0.0632  0.5724 -0.5686
 3534TIP3    H234798   1.049   6.721  17.165  0.7842 -0.3901 -0.7615
 3535TIP3   OH234799   3.521   4.655  16.301  0.0289  0.2146  0.4168
 3535TIP3    H134800   3.456   4.724  16.293  1.6496  1.8078  0.3357
 3535TIP3    H234801   3.500   4.611  16.383 -1.5308  0.2436  0.0554
 3536TIP3   OH234802   3.417   0.979  16.081 -0.0780 -0.2325  0.5374
 3536TIP3    H134803   3.344   1.016  16.032  0.2617  0.7753  0.7663
 3536TIP3    H234804   3.377   0.914  16.138 -0.9313  0.8573  1.2306
 3537TIP3   OH234805   3.679   6.526  14.162 -0.1246 -0.0386 -0.0474
 3537TIP3    H134806   3.593   6.547  14.125 -0.8882 -0.4713  1.4283
 3537TIP3    H234807   3.739   6.587  14.118 -1.4870  1.6526  0.3461
 3538TIP3   OH234808   1.121   0.772  15.370  0.1138 -0.1324  0.2013
 3538TIP3    H134809   1.074   0.816  15.299  0.3240  0.6213  0.5128
 3538TIP3    H234810   1.204   0.747  15.332 -0.5519 -1.5398 -0.3773
 3539TIP3   OH234811   3.130   4.686  15.617  0.0471  0.1289 -0.6936
 3539TIP3    H134812   3.085   4.711  15.698 -1.1289  1.5517 -1.7520
 3539TIP3    H234813   3.064   4.640  15.566  0.2721  0.7455 -1.5581
 3540TIP3   OH234814   1.207   2.195  15.966 -0.1301  0.5047  0.2329
 3540TIP3    H134815   1.162   2.215  16.048  0.8442 -0.0073  0.9142
 3540TIP3    H234816   1.300   2.197  15.988  0.2034  1.4372 -1.1168
 3541TIP3   OH234817   1.430   3.341  13.433  0.0079 -0.1713  0.5005
 3541TIP3    H134818   1.493   3.362  13.502 -0.9438 -2.1977  2.1345
 3541TIP3    H234819   1.472   3.368  13.352  1.2950  2.1033  1.8194
 3542TIP3   OH234820   2.597   2.406  16.131  0.0933  0.1196  0.2519
 3542TIP3    H134821   2.603   2.375  16.221 -0.5605  1.2805  0.7117
 3542TIP3    H234822   2.519   2.461  16.129 -0.3928 -0.5577 -1.2364
 3543TIP3   OH234823   2.048   4.052  15.567  0.1333  0.7456 -0.2082
 3543TIP3    H134824   1.966   4.005  15.585  1.0666 -0.6061  0.7168
 3543TIP3    H234825   2.070   4.027  15.478 -0.8547  1.7524 -0.7538
 3544TIP3   OH234826   4.738   4.152  16.282  0.1435  0.2171  0.0223
 3544TIP3    H134827   4.796   4.112  16.346 -0.8124 -2.0244 -0.4090
 3544TIP3    H234828   4.783   4.232  16.255  1.3381  0.3582  2.2361
 3545TIP3   OH234829   6.689   5.657  14.592  0.0390 -0.5614  0.1472
 3545TIP3    H134830   6.727   5.641  14.506 -1.4823  0.5045 -0.7949
 3545TIP3    H234831   6.604   5.612  14.590 -0.3094  0.0326  0.8179
 3546TIP3   OH234832   0.530   2.563  13.434  0.0742 -0.2354  0.3240
 3546TIP3    H134833   0.568   2.611  13.361  0.2525  0.0862  0.6282
 3546TIP3    H234834   0.539   2.471  13.410 -0.5102 -0.1143 -0.3827
 3547TIP3   OH234835   4.154   2.415  15.355  0.0526 -0.4535 -0.3978
 3547TIP3    H134836   4.064   2.394  15.380 -0.3008  0.0458 -1.1968
 3547TIP3    H234837   4.192   2.331  15.329 -0.2464 -0.6345 -0.2575
 3548TIP3   OH234838   2.815   1.597  14.023 -0.2184  0.2166 -0.1185
 3548TIP3    H134839   2.755   1.618  13.951 -0.5388  0.8203  0.3172
 3548TIP3    H234840   2.877   1.535  13.985  0.3698  1.4581 -1.2558
 3549TIP3   OH234841   5.361   1.285  16.747  0.0451  0.4583 -0.3735
 3549TIP3    H134842   5.275   1.297  16.788  0.4139  0.3267  0.4326
 3549TIP3    H234843   5.357   1.197  16.710  0.9311 -0.8252  2.3753
 3550TIP3   OH234844   3.916   3.287  16.727 -0.2357 -0.4152  0.3525
 3550TIP3    H134845   3.916   3.382  16.739 -0.5921 -0.5623  1.6678
 3550TIP3    H234846   3.899   3.275  16.634  0.7989  0.8172 -0.0254
 3551TIP3   OH234847   4.659   4.524  16.117 -0.1926 -0.2325 -0.3614
 3551TIP3    H134848   4.597   4.577  16.167  0.5956  0.4330 -0.0615
 3551TIP3    H234849   4.745   4.551  16.150  0.2269 -1.9050  0.0144
 3552TIP3   OH234850   2.133   3.833  14.867  0.1018  0.8652 -0.3977
 3552TIP3    H134851   2.090   3.758  14.908 -0.9999  1.5515 -0.2600
 3552TIP3    H234852   2.149   3.806  14.777  1.0226 -0.0493  0.0215
 3553TIP3   OH234853   3.725   0.850  16.787  0.5798 -0.2779 -0.0672
 3553TIP3    H134854   3.668   0.791  16.836  1.9461  0.0680  2.0603
 3553TIP3    H234855   3.813   0.824  16.813  1.2366  2.0771  0.2297
 3554TIP3   OH234856   5.618   5.939  13.430 -0.6086  0.0564 -0.1148
 3554TIP3    H134857   5.527   5.922  13.406 -0.7719 -1.6770  1.4502
 3554TIP3    H234858   5.657   5.852  13.440  1.2834  0.7641 -0.9082
 3555TIP3   OH234859   4.160   1.078  14.844  0.2138 -0.0266 -0.3066
 3555TIP3    H134860   4.226   1.011  14.861 -0.5794 -0.2518  2.3329
 3555TIP3    H234861   4.089   1.031  14.802  0.2958 -0.5431  0.1131
 3556TIP3   OH234862   2.767   1.809  15.102  0.2738  0.4727 -0.2476
 3556TIP3    H134863   2.750   1.904  15.099  0.7625  0.5624 -0.1574
 3556TIP3    H234864   2.789   1.787  15.012  0.5304  0.5109 -0.1931
 3557TIP3   OH234865   0.919   2.433  15.539  0.3534 -0.2261  0.0826
 3557TIP3    H134866   0.898   2.526  15.536 -2.3657 -0.7317  0.3125
 3557TIP3    H234867   0.967   2.417  15.457  0.1530  1.2238 -0.3592
 3558TIP3   OH234868   4.306   6.411  14.126 -0.3797  0.2452  0.3332
 3558TIP3    H134869   4.352   6.490  14.153 -0.7774  0.2134  1.1347
 3558TIP3    H234870   4.354   6.340  14.168  0.4242 -0.0152 -0.9836
 3559TIP3   OH234871   0.292   6.436  15.981  0.1209 -0.6277 -0.0557
 3559TIP3    H134872   0.361   6.434  15.915  0.3036 -1.2492  0.1421
 3559TIP3    H234873   0.259   6.346  15.982 -1.7820 -0.0068 -1.2765
 3560TIP3   OH234874   5.854   0.822  15.464 -0.6129 -0.1967 -0.2183
 3560TIP3    H134875   5.884   0.824  15.555 -0.7548  0.5093 -0.1790
 3560TIP3    H234876   5.930   0.793  15.414 -0.0640  0.8841 -0.0432
 3561TIP3   OH234877   4.518   1.904  15.291 -0.0844 -0.2649 -0.5560
 3561TIP3    H134878   4.567   1.822  15.286  2.4085  1.1486 -1.4018
 3561TIP3    H234879   4.512   1.934  15.201 -2.2788 -0.1623 -0.4354
 3562TIP3   OH234880   6.136   1.891  15.020 -0.0073 -0.1586  0.2318
 3562TIP3    H134881   6.174   1.837  15.090 -1.4041 -1.0337  0.3512
 3562TIP3    H234882   6.116   1.974  15.063  1.5337  0.2690  0.2071
 3563TIP3   OH234883   0.859   0.241  17.313 -0.0616  0.3318 -0.1437
 3563TIP3    H134884   0.774   0.283  17.298 -0.2628 -0.1980 -0.5191
 3563TIP3    H234885   0.870   0.243  17.408 -1.5123 -1.5247  0.1278
 3564TIP3   OH234886   2.917   4.846  16.579 -0.4508 -0.2407  0.2468
 3564TIP3    H134887   2.965   4.926  16.602 -2.9179  0.8182  2.1189
 3564TIP3    H234888   2.984   4.777  16.578  1.4972  1.5725  0.0668
 3565TIP3   OH234889   3.518   5.752  16.468  0.3520 -0.5537 -0.3929
 3565TIP3    H134890   3.457   5.746  16.394 -1.8739 -0.0522  1.2736
 3565TIP3    H234891   3.541   5.845  16.473  0.3399 -0.5530 -0.3503
 3566TIP3   OH234892   3.058   6.038  15.880  0.4500  0.2849  0.2178
 3566TIP3    H134893   3.073   6.028  15.974  0.4001  1.2097  0.3377
 3566TIP3    H234894   3.122   6.104  15.852  2.1920 -1.7880 -0.9125
 3567TIP3   OH234895   0.727   6.294  15.335 -0.2409  0.0510  0.3340
 3567TIP3    H134896   0.740   6.381  15.372  3.2269 -0.6377  1.1433
 3567TIP3    H234897   0.721   6.307  15.241  0.9373  1.1572  0.3898
 3568TIP3   OH234898   2.039   4.894  14.166  0.2569 -0.0001  0.2530
 3568TIP3    H134899   1.950   4.864  14.147  0.4783  0.2405 -1.2186
 3568TIP3    H234900   2.038   4.988  14.148  0.7196  0.0696  0.5689
 3569TIP3   OH234901   3.973   1.959  15.226 -0.3788 -0.6892 -0.0365
 3569TIP3    H134902   3.984   1.934  15.134  0.3660 -1.0849  0.1585
 3569TIP3    H234903   3.885   1.997  15.229 -0.0627  0.2032 -1.1087
 3570TIP3   OH234904   4.089   4.887  17.012  0.0378  0.2537 -0.4265
 3570TIP3    H134905   4.050   4.823  17.072 -1.2067  1.6908  0.3730
 3570TIP3    H234906   4.014   4.930  16.970  0.7876  1.8208 -0.2411
 3571TIP3   OH234907   4.824   5.783  16.242  0.2891  0.1761 -0.1081
 3571TIP3    H134908   4.911   5.771  16.279  0.5639 -0.1586 -0.8479
 3571TIP3    H234909   4.788   5.695  16.233 -1.0107  0.4051  2.2165
 3572TIP3   OH234910   6.225   1.038  13.465 -0.3179  0.0351  0.0352
 3572TIP3    H134911   6.259   1.093  13.395 -0.8959 -1.4200 -1.4545
 3572TIP3    H234912   6.296   0.976  13.483 -0.0489  0.5977  1.0023
 3573TIP3   OH234913   1.152   5.169  15.179  0.3026  0.1063 -0.4375
 3573TIP3    H134914   1.203   5.088  15.179  0.9367  0.4626  1.2132
 3573TIP3    H234915   1.061   5.140  15.184  0.4674 -0.5022 -0.8160
 3574TIP3   OH234916   4.862   3.847  17.013 -0.3035  0.4749 -0.3283
 3574TIP3    H134917   4.942   3.887  17.046 -1.3367  1.8558  0.6306
 3574TIP3    H234918   4.891   3.789  16.943  1.4833  1.2282 -0.2671
 3575TIP3   OH234919   4.075   4.556  14.273 -0.1834  0.2846 -0.3989
 3575TIP3    H134920   3.992   4.511  14.287 -0.3572  0.8275  0.3774
 3575TIP3    H234921   4.059   4.646  14.300 -0.0645  1.0479 -2.6381
 3576TIP3   OH234922   5.749   1.002  15.920  0.4784 -0.0285  0.1198
 3576TIP3    H134923   5.744   1.082  15.973 -0.7496  0.4265 -0.6448
 3576TIP3    H234924   5.683   0.944  15.957  1.2431 -0.6360  0.5581
 3577TIP3   OH234925   4.041   5.779  15.637 -0.0625 -0.0716  0.3126
 3577TIP3    H134926   3.996   5.857  15.603  0.3767  0.8317  1.7247
 3577TIP3    H234927   3.971   5.725  15.673 -0.5446 -1.0537 -1.8951
 3578TIP3   OH234928   6.286   0.523  15.294  0.1543  0.2222 -0.3368
 3578TIP3    H134929   6.373   0.482  15.288  0.5159  0.7352  0.9861
 3578TIP3    H234930   6.262   0.513  15.386 -0.6192  1.2406 -0.4157
 3579TIP3   OH234931   6.679   6.005  14.432  0.3509 -0.3658  0.6055
 3579TIP3    H134932   6.634   6.084  14.459  0.6286 -0.4035  1.2136
 3579TIP3    H234933   6.617   5.959  14.376  0.3767  0.5197 -0.1714
 3580TIP3   OH234934   3.666   0.761  14.005  0.3729 -0.7436 -0.4873
 3580TIP3    H134935   3.677   0.849  14.039  1.0800 -0.8133 -0.5154
 3580TIP3    H234936   3.681   0.704  14.080  1.4152 -0.8808 -0.7859
 3581TIP3   OH234937   0.201   2.692  16.468  0.0494 -0.1051 -0.2895
 3581TIP3    H134938   0.262   2.623  16.495  0.9339  0.4262 -0.8917
 3581TIP3    H234939   0.128   2.645  16.427  0.7271 -0.6793 -0.8575
 3582TIP3   OH234940   3.808   5.348  14.035  0.1033 -0.1911  0.1333
 3582TIP3    H134941   3.898   5.328  14.058 -0.0252 -1.2778 -0.2603
 3582TIP3    H234942   3.761   5.346  14.119  0.5328  0.9321  0.4109
 3583TIP3   OH234943   6.093   5.147  14.867  0.2840  0.5366 -0.4460
 3583TIP3    H134944   6.168   5.095  14.837 -0.2492 -0.1030 -0.7126
 3583TIP3    H234945   6.022   5.125  14.805 -0.4419  0.2373  0.4603
 3584TIP3   OH234946   2.039   6.354  16.039  0.0515  0.4909 -0.1740
 3584TIP3    H134947   1.960   6.408  16.034  0.1331  0.5169 -1.5441
 3584TIP3    H234948   2.085   6.372  15.958 -0.2853 -2.1784 -1.0337
 3585TIP3   OH234949   0.974   1.033  13.469  0.0783  0.2199 -0.3353
 3585TIP3    H134950   0.966   1.114  13.418  0.8715 -1.1609 -2.8052
 3585TIP3    H234951   1.065   1.005  13.454 -0.1414 -1.0592  0.6063
 3586TIP3   OH234952   2.351   3.036  16.107 -0.1812  0.2160  0.3770
 3586TIP3    H134953   2.264   3.053  16.142 -0.1790  0.5608  0.2226
 3586TIP3    H234954   2.395   3.122  16.110  0.3421 -0.0596  0.9731
 3587TIP3   OH234955   0.776   4.219  16.310 -0.6842 -0.2819 -0.2621
 3587TIP3    H134956   0.719   4.275  16.363 -2.9806 -2.1752 -0.6027
 3587TIP3    H234957   0.721   4.146  16.284  1.8414 -2.0776 -0.9125
 3588TIP3   OH234958   5.145   4.157  16.304  0.1079  0.5800  0.4369
 3588TIP3    H134959   5.229   4.182  16.343 -0.0330  0.7118  0.6540
 3588TIP3    H234960   5.139   4.063  16.320  0.8495  0.3108 -0.7780
 3589TIP3   OH234961   2.399   0.981  13.638  0.3734  0.1509 -0.2476
 3589TIP3    H134962   2.360   0.904  13.598  0.0127 -0.1558  0.6615
 3589TIP3    H234963   2.492   0.961  13.642  0.3435 -0.0347 -0.4591
 3590TIP3   OH234964   0.403   4.723  15.709  0.4027  0.5827  0.9670
 3590TIP3    H134965   0.362   4.726  15.796 -0.9834  0.6016  0.3374
 3590TIP3    H234966   0.424   4.630  15.696 -0.3695  0.4152  0.8898
 3591TIP3   OH234967   0.768   6.705  15.838 -0.8733  0.2163  0.7510
 3591TIP3    H134968   0.822   6.632  15.869  1.3830  1.5056  0.1177
 3591TIP3    H234969   0.753   6.759  15.916  2.5482  2.0715  0.3500
 3592TIP3   OH234970   4.144   1.369  15.163 -0.2990 -0.0387  0.2568
 3592TIP3    H134971   4.159   1.386  15.070 -0.4455 -1.7759 -0.1097
 3592TIP3    H234972   4.138   1.457  15.202  0.5504  0.7217 -1.2205
 3593TIP3   OH234973   1.820   1.810  14.270  0.2433 -0.6017  0.7714
 3593TIP3    H134974   1.726   1.803  14.253  0.3886  0.0326 -0.3600
 3593TIP3    H234975   1.829   1.787  14.362 -1.2407  1.0803  1.3985
 3594TIP3   OH234976   4.360   5.470  14.272 -0.2786  0.2334  0.0650
 3594TIP3    H134977   4.401   5.467  14.359  0.8419 -1.0057 -0.4575
 3594TIP3    H234978   4.306   5.391  14.268  2.5461 -1.8410 -1.5952
 3595TIP3   OH234979   5.227   6.043  14.173  0.2463 -0.0151  0.1866
 3595TIP3    H134980   5.227   6.096  14.253 -0.1009  0.4384 -0.1060
 3595TIP3    H234981   5.299   6.078  14.121 -1.3861  1.7617 -1.0123
 3596TIP3   OH234982   1.158   6.523  15.297 -0.2503  0.1136  0.0604
 3596TIP3    H134983   1.074   6.567  15.290 -0.3486 -0.0428  0.2674
 3596TIP3    H234984   1.137   6.431  15.310 -0.0700  0.2091  1.1469
 3597TIP3   OH234985   5.497   0.658  17.090 -0.0483 -0.1282  0.3273
 3597TIP3    H134986   5.409   0.696  17.102 -0.3449 -0.3929 -0.8825
 3597TIP3    H234987   5.556   0.733  17.096 -0.5322  0.3665 -0.8278
 3598TIP3   OH234988   0.687   4.386  15.901 -0.8497 -0.0997 -0.4558
 3598TIP3    H134989   0.701   4.450  15.832  0.1598 -1.1047 -1.2290
 3598TIP3    H234990   0.614   4.332  15.870 -1.3683  0.3571 -0.0404
 3599TIP3   OH234991   0.061   0.338  16.689 -0.5247  0.4118  0.4212
 3599TIP3    H134992   0.124   0.354  16.759 -0.4444 -1.1118  0.7423
 3599TIP3    H234993  -0.016   0.389  16.713  0.3872  1.9093  0.2750
 3600TIP3   OH234994   6.146   1.491  15.801 -0.2347  0.2066  0.3891
 3600TIP3    H134995   6.106   1.546  15.869 -0.7487  1.8139 -1.1294
 3600TIP3    H234996   6.086   1.417  15.792 -0.4555  0.2655  1.2921
 3601TIP3   OH234997   1.371   4.633  16.124  0.3327  0.0751  0.0480
 3601TIP3    H134998   1.460   4.599  16.114  0.3846  0.2184  0.0163
 3601TIP3    H234999   1.371   4.674  16.210  0.4339  0.4753 -0.1366
 3602TIP3   OH235000   5.364   0.018  14.545 -0.0569 -0.1738  0.0115
 3602TIP3    H135001   5.451  -0.021  14.550  0.8112  1.6684  0.1913
 3602TIP3    H235002   5.342   0.039  14.636 -0.8654 -0.9485  0.0059
 3603TIP3   OH235003   1.828   2.329  16.744  0.4971 -0.0234  0.0243
 3603TIP3    H135004   1.747   2.368  16.776 -0.2784 -1.2579 -0.3659
 3603TIP3    H235005   1.884   2.404  16.722  1.3051  0.9623  4.5797
 3604TIP3   OH235006   6.087   2.372  14.681  0.1747 -0.3604 -0.3296
 3604TIP3    H135007   6.106   2.302  14.743 -1.7658 -1.0379 -0.4288
 3604TIP3    H235008   6.034   2.331  14.613 -1.8882  1.3690  0.1319
 3605TIP3   OH235009   3.923   4.142  14.773 -0.2910 -0.2118  0.4299
 3605TIP3    H135010   3.841   4.177  14.806 -0.0396  0.5803  0.2440
 3605TIP3    H235011   3.980   4.219  14.766  0.1404 -0.6012 -0.3947
 3606TIP3   OH235012   1.891   2.264  15.083  0.2408 -0.1676  0.4812
 3606TIP3    H135013   1.847   2.348  15.071 -2.7523 -1.4425  1.5499
 3606TIP3    H235014   1.914   2.236  14.995 -0.7569  0.7505 -0.0958
 3607TIP3   OH235015   4.892   5.503  16.994 -0.0943  0.1716  0.2617
 3607TIP3    H135016   4.884   5.595  16.968 -1.2073  0.0721  0.2168
 3607TIP3    H235017   4.971   5.501  17.049  0.0114  1.1252  0.1605
 3608TIP3   OH235018   2.731   1.335  16.299 -0.2718  0.6139  0.1323
 3608TIP3    H135019   2.642   1.300  16.307 -0.0194 -0.3930 -1.1368
 3608TIP3    H235020   2.719   1.417  16.250 -0.2813 -1.0057 -2.7915
 3609TIP3   OH235021   3.711   6.153  16.097  0.2044  0.0406 -0.7599
 3609TIP3    H135022   3.644   6.087  16.079  0.2286  0.0836 -1.0070
 3609TIP3    H235023   3.742   6.179  16.011  0.2446  0.3250 -0.6588
 3610TIP3   OH235024   5.548   1.514  15.124  0.3429 -0.0869  0.4036
 3610TIP3    H135025   5.518   1.503  15.215 -0.5694  3.1431  0.6232
 3610TIP3    H235026   5.643   1.506  15.129  0.3424  0.4748  1.7712
 3611TIP3   OH235027   0.829   2.262  15.748  0.3565  0.8095 -1.0851
 3611TIP3    H135028   0.823   2.308  15.832 -1.1230  2.0845 -1.8523
 3611TIP3    H235029   0.841   2.331  15.683  0.1339 -0.0459 -2.0731
 3612TIP3   OH235030   4.735   1.680  14.384 -0.0868  0.5585  0.2580
 3612TIP3    H135031   4.743   1.775  14.382 -1.1626  0.6413 -0.8984
 3612TIP3    H235032   4.688   1.658  14.304 -0.0940 -0.9304  0.6460
 3613TIP3   OH235033   2.043   6.149  13.482 -0.4497 -0.6639  0.1037
 3613TIP3    H135034   1.951   6.162  13.461 -0.2161  1.1329  0.0794
 3613TIP3    H235035   2.058   6.056  13.465 -1.9830 -0.7600 -0.9431
 3614TIP3   OH235036   1.336   2.258  15.492 -0.3246  0.0880  0.1331
 3614TIP3    H135037   1.320   2.334  15.549  1.8306  1.1550 -0.6183
 3614TIP3    H235038   1.346   2.185  15.553 -1.0924  0.6206  0.9332
 3615TIP3   OH235039   4.024   4.885  15.112  0.3068 -0.6737  0.0971
 3615TIP3    H135040   4.036   4.845  15.198  0.4544  2.2929  1.6110
 3615TIP3    H235041   4.090   4.844  15.056  0.1992 -2.6910  1.3607
 3616TIP3   OH235042   5.405   6.560  13.934 -0.4281 -0.1658  0.2126
 3616TIP3    H135043   5.466   6.504  13.887 -1.2827  0.8645 -2.3117
 3616TIP3    H235044   5.335   6.502  13.962 -0.8290 -0.5635 -1.5131
 3617TIP3   OH235045   4.059   1.205  15.390 -0.0384 -0.1396  0.5304
 3617TIP3    H135046   4.019   1.183  15.474  0.7152  0.6906  1.1247
 3617TIP3    H235047   4.102   1.124  15.362  1.5803  0.1376  2.0416
 3618TIP3   OH235048   4.438   2.298  16.065  0.0482  0.1669  0.5761
 3618TIP3    H135049   4.353   2.285  16.024  0.1663  0.3232  0.2845
 3618TIP3    H235050   4.466   2.209  16.089  1.1382 -0.2853 -1.9859
 3619TIP3   OH235051   1.689   1.644  14.498 -0.1912  0.5156  0.0475
 3619TIP3    H135052   1.633   1.615  14.571 -2.2688  0.6279 -1.4189
 3619TIP3    H235053   1.711   1.564  14.451 -0.4880  0.6332 -0.2982
 3620TIP3   OH235054   0.786   5.588  16.280  0.2888 -0.1337 -0.1046
 3620TIP3    H135055   0.767   5.682  16.286 -0.7031 -0.3426  0.0735
 3620TIP3    H235056   0.867   5.584  16.229 -0.0622  0.7915 -0.7686
 3621TIP3   OH235057   5.446   0.264  14.462 -0.1362 -0.2525  0.3282
 3621TIP3    H135058   5.420   0.196  14.525  0.4001 -1.1858 -0.4213
 3621TIP3    H235059   5.525   0.302  14.499  0.1579 -0.7751  0.2558
 3622TIP3   OH235060   6.189   1.374  15.272  0.5727  0.0460 -0.1275
 3622TIP3    H135061   6.196   1.467  15.294 -2.4030  0.7533 -1.5783
 3622TIP3    H235062   6.210   1.370  15.179  0.0955 -0.5940 -0.2183
 3623TIP3   OH235063   4.430   3.730  14.273  0.1528  0.3003  0.1701
 3623TIP3    H135064   4.456   3.805  14.220 -0.9111  0.5084 -0.0705
 3623TIP3    H235065   4.498   3.664  14.255  0.1977  0.6174 -0.8989
 3624TIP3   OH235066   3.448   4.624  16.915  0.1412  0.2198  0.1745
 3624TIP3    H135067   3.452   4.681  16.992  0.9881 -0.8788  0.9849
 3624TIP3    H235068   3.533   4.637  16.872  0.0590  0.0913 -0.0266
 3625TIP3   OH235069   6.696   0.436  13.081  0.0873 -0.4166 -0.5016
 3625TIP3    H135070   6.689   0.427  13.176 -2.3927  1.1104 -0.4552
 3625TIP3    H235071   6.638   0.368  13.047 -1.3640  0.9221 -0.7860
 3626TIP3   OH235072   6.336   0.642  14.815  0.5097  0.2106 -0.3628
 3626TIP3    H135073   6.410   0.600  14.771 -0.2971 -1.2180 -0.4461
 3626TIP3    H235074   6.349   0.736  14.803  1.6713 -0.0706 -1.3908
 3627TIP3   OH235075   3.027   1.238  14.551 -0.2613  0.4899 -0.0199
 3627TIP3    H135076   3.054   1.146  14.542  0.2855  0.6027  0.4423
 3627TIP3    H235077   2.934   1.237  14.528 -0.5341 -0.3750  1.0334
 3628TIP3   OH235078   3.120   5.346  15.091 -0.0048 -0.0272 -0.4517
 3628TIP3    H135079   3.106   5.265  15.042 -1.2080 -0.7838  1.0723
 3628TIP3    H235080   3.092   5.326  15.180 -0.4949  2.1155 -0.0658
 3629TIP3   OH235081   4.843   6.255  15.788  0.1634  0.2977  0.2999
 3629TIP3    H135082   4.863   6.185  15.726 -1.2120  0.1491 -0.0075
 3629TIP3    H235083   4.853   6.214  15.874 -1.7372 -0.6432  0.1156
 3630TIP3   OH235084   6.022   3.416  15.696  0.1699  0.4102 -0.0677
 3630TIP3    H135085   5.949   3.478  15.694  0.4265  0.7305  0.2194
 3630TIP3    H235086   6.054   3.414  15.606 -0.0841  0.3971 -0.1594
 3631TIP3   OH235087   3.588   5.719  15.037  0.4721 -0.0879  0.1366
 3631TIP3    H135088   3.622   5.783  14.974 -0.4611  0.2903  0.0124
 3631TIP3    H235089   3.594   5.635  14.991  0.6456  0.0579 -0.1148
 3632TIP3   OH235090   5.864   5.168  15.938 -0.0617 -0.2366 -0.0245
 3632TIP3    H135091   5.948   5.183  15.981  1.3236  0.4039 -2.7259
 3632TIP3    H235092   5.817   5.251  15.947  1.5720  1.0556 -2.3956
 3633TIP3   OH235093   0.998   3.064  14.337 -0.4869  0.2541 -0.0961
 3633TIP3    H135094   0.952   3.143  14.363  0.0987  0.1523  1.3351
 3633TIP3    H235095   1.075   3.095  14.289  0.5166  0.6487  1.7028
 3634TIP3   OH235096   1.618   0.922  14.942  0.1640 -0.4571  0.3564
 3634TIP3    H135097   1.596   0.835  14.974 -2.2722  0.5238  1.5977
 3634TIP3    H235098   1.639   0.909  14.849 -0.0346 -2.3589  0.5425
 3635TIP3   OH235099   1.330   2.771  15.574  0.2817 -0.2859  0.1821
 3635TIP3    H135100   1.343   2.764  15.668  1.0042 -0.3416  0.0826
 3635TIP3    H235101   1.273   2.847  15.563 -1.3030 -1.3328  0.7733
 3636TIP3   OH235102   5.577   1.784  15.336  0.3201 -0.0821  0.4682
 3636TIP3    H135103   5.589   1.695  15.369  3.9354 -0.1695 -0.6030
 3636TIP3    H235104   5.622   1.839  15.400  1.8271  0.4206 -0.9527
 3637TIP3   OH235105   5.353   1.934  16.198  0.2047  0.2128 -0.1290
 3637TIP3    H135106   5.397   1.889  16.270 -2.1106 -0.7569  0.7647
 3637TIP3    H235107   5.375   1.881  16.120  1.1952  0.1918  0.1490
 3638TIP3   OH235108   0.133   6.405  14.224  0.0923 -0.2911 -0.3951
 3638TIP3    H135109   0.203   6.471  14.223  0.0521 -0.2549 -0.8425
 3638TIP3    H235110   0.054   6.453  14.202 -0.0000 -0.4201 -0.3474
 3639TIP3   OH235111   1.567   4.243  14.676  0.6809  0.2639  0.6126
 3639TIP3    H135112   1.609   4.184  14.739  0.2960  0.1824  0.7983
 3639TIP3    H235113   1.630   4.314  14.664  1.4737 -0.5453 -0.1830
 3640TIP3   OH235114   3.718   6.501  16.814 -0.3614 -0.3658 -0.2408
 3640TIP3    H135115   3.646   6.445  16.786 -0.8889 -1.2117  2.5851
 3640TIP3    H235116   3.693   6.533  16.900  1.6112  1.2466 -0.1830
 3641TIP3   OH235117   4.548   1.645  13.393 -0.1233  0.3894 -0.6496
 3641TIP3    H135118   4.604   1.584  13.440  0.6029  0.5949 -1.2246
 3641TIP3    H235119   4.529   1.601  13.310 -1.2556  0.0985 -0.2552
 3642TIP3   OH235120   4.290   6.537  16.492 -0.1160 -0.1518 -0.1526
 3642TIP3    H135121   4.384   6.523  16.481 -0.5527 -3.6260 -0.7430
 3642TIP3    H235122   4.282   6.592  16.570  2.3873 -1.0672  0.8510
 3643TIP3   OH235123   1.071   4.279  15.257  0.2134 -0.4984 -0.4574
 3643TIP3    H135124   0.987   4.319  15.233 -0.3289 -1.8659 -0.9367
 3643TIP3    H235125   1.115   4.263  15.174  1.5366  1.3272 -0.1708
 3644TIP3   OH235126   3.578   1.536  14.412  0.4640 -0.3610  0.2380
 3644TIP3    H135127   3.643   1.578  14.357  0.1837  0.3554  0.4411
 3644TIP3    H235128   3.623   1.517  14.494  1.1878 -2.3945 -0.5628
 3645TIP3   OH235129   0.631   5.868  15.526 -0.4153 -0.2364 -0.2099
 3645TIP3    H135130   0.651   5.962  15.536 -1.4501 -0.0296  0.0281
 3645TIP3    H235131   0.712   5.824  15.551 -0.1916  0.5731  0.5584
 3646TIP3   OH235132   0.077   3.489  13.683  0.0177  0.1428 -0.5950
 3646TIP3    H135133   0.162   3.444  13.680 -0.5028 -0.9252  0.0344
 3646TIP3    H235134   0.013   3.418  13.680 -0.8572  0.9431 -1.0641
 3647TIP3   OH235135   1.414   2.910  15.194 -0.3452 -0.1347 -0.7626
 3647TIP3    H135136   1.416   2.848  15.267  0.1905  1.3454  0.5499
 3647TIP3    H235137   1.365   2.985  15.229  0.7025  0.9727 -1.6134
 3648TIP3   OH235138   5.917   1.348  15.385  0.0643  0.4518 -0.2005
 3648TIP3    H135139   6.002   1.326  15.345  0.6063  0.9406  0.6390
 3648TIP3    H235140   5.878   1.263  15.406  0.1456  0.2092 -0.9948
 3649TIP3   OH235141   1.073   3.743  15.980  0.4313 -0.2919  0.4122
 3649TIP3    H135142   1.034   3.662  16.012 -1.8332  0.0190 -1.2929
 3649TIP3    H235143   1.147   3.714  15.926  1.0579 -1.0484  1.6392
 3650TIP3   OH235144   3.396   3.016  16.351 -0.0322 -0.1998  0.2891
 3650TIP3    H135145   3.455   2.991  16.280 -1.9116 -1.4351 -0.9221
 3650TIP3    H235146   3.454   3.037  16.424  1.9019 -0.9688 -0.9445
 3651TIP3   OH235147   4.947   6.069  15.559 -0.7468 -0.2109 -0.0465
 3651TIP3    H135148   5.030   6.116  15.552 -0.4404 -0.5856  0.8905
 3651TIP3    H235149   4.883   6.126  15.517 -0.5067  1.3426  1.5830
 3652TIP3   OH235150   2.345   3.813  16.745  0.3024 -0.0173 -0.2836
 3652TIP3    H135151   2.407   3.875  16.705 -1.0847  1.5638 -0.0865
 3652TIP3    H235152   2.259   3.852  16.730 -0.7954 -2.6886 -1.4756
 3653TIP3   OH235153   4.167   2.377  16.745 -0.0058 -0.3208 -0.0004
 3653TIP3    H135154   4.101   2.446  16.746  0.3486  0.0488 -0.7660
 3653TIP3    H235155   4.144   2.322  16.670  1.7463  1.0633 -1.6780
 3654TIP3   OH235156   2.838   5.255  15.525  0.6338  0.2265 -0.0305
 3654TIP3    H135157   2.757   5.283  15.483  0.7937 -0.6397 -0.9633
 3654TIP3    H235158   2.812   5.180  15.579  0.6357  0.6242  0.5369
 3655TIP3   OH235159   1.303   3.813  16.905  0.2361 -0.3806  0.2134
 3655TIP3    H135160   1.385   3.820  16.954  0.0825  0.3210  0.3825
 3655TIP3    H235161   1.323   3.847  16.818  0.2208 -0.5688  0.1374
 3656TIP3   OH235162   5.208   3.044  16.515  0.3537  0.1691  0.1330
 3656TIP3    H135163   5.114   3.047  16.534  0.8244  1.0012  2.7089
 3656TIP3    H235164   5.236   2.957  16.542  0.4753  0.2321  0.2135
 3657TIP3   OH235165   3.531   0.996  15.377  0.0935 -0.3483  0.0845
 3657TIP3    H135166   3.535   1.058  15.304  1.7184 -2.6527 -1.9841
 3657TIP3    H235167   3.613   1.009  15.424  0.8160 -1.3750 -0.8361
 3658TIP3   OH235168   2.145   2.304  14.153 -0.6862  0.2298 -0.1211
 3658TIP3    H135169   2.181   2.270  14.234  1.5690  0.0012 -1.1373
 3658TIP3    H235170   2.153   2.399  14.162  1.9186  0.1859 -0.9466
 3659TIP3   OH235171   3.368   2.063  15.069  0.0294 -0.3114 -0.6877
 3659TIP3    H135172   3.308   2.105  15.007  1.5770  0.8185 -1.5085
 3659TIP3    H235173   3.448   2.049  15.018  0.9259 -0.5342  0.7286
 3660TIP3   OH235174   4.568   4.968  14.852 -0.1222  0.2088 -0.3187
 3660TIP3    H135175   4.504   5.022  14.805 -2.3494  0.2011  2.4203
 3660TIP3    H235176   4.550   4.985  14.945  2.8312 -1.0790  0.6179
 3661TIP3   OH235177   3.763   5.207  14.728 -0.1403 -0.8265 -0.3475
 3661TIP3    H135178   3.761   5.219  14.823 -0.4587  1.2466 -0.5723
 3661TIP3    H235179   3.685   5.254  14.697  0.5578 -0.5472 -1.7215
 3662TIP3   OH235180   5.099   2.418  16.839  0.0188 -0.1438 -0.8485
 3662TIP3    H135181   5.074   2.402  16.930 -0.8058 -0.1845 -1.0801
 3662TIP3    H235182   5.047   2.355  16.788  0.5472 -0.1891 -1.3438
 3663TIP3   OH235183   2.916   0.525  16.829  0.2500 -0.1917  0.4368
 3663TIP3    H135184   2.888   0.578  16.903 -0.2026 -0.2482  0.3080
 3663TIP3    H235185   3.004   0.495  16.853  0.1543 -0.1120  0.8973
 3664TIP3   OH235186   2.467   3.972  16.312 -0.0095  0.5509  0.1575
 3664TIP3    H135187   2.411   3.902  16.278 -0.8367  2.6021 -3.1197
 3664TIP3    H235188   2.552   3.930  16.327 -1.0084 -1.5462  0.2767
 3665TIP3   OH235189   0.978   2.242  14.682  0.3824  0.4428  0.6778
 3665TIP3    H135190   0.966   2.260  14.775  1.6619 -0.4923  1.0519
 3665TIP3    H235191   0.953   2.150  14.672  4.6243 -0.9547  1.0950
 3666TIP3   OH235192   1.800   1.200  14.329 -0.0845 -0.0466 -0.0049
 3666TIP3    H135193   1.881   1.164  14.292  1.0119  0.2108  2.0337
 3666TIP3    H235194   1.800   1.171  14.420 -2.2671  0.0420  0.0847
 3667TIP3   OH235195   4.294   1.384  16.138  0.0005 -0.3970  0.2134
 3667TIP3    H135196   4.361   1.360  16.075  0.5670  1.1985  0.1632
 3667TIP3    H235197   4.215   1.338  16.109  0.2741  0.2052 -1.6084
 3668TIP3   OH235198   0.358   5.676  15.962 -0.7750  0.1003 -0.1101
 3668TIP3    H135199   0.397   5.743  15.906 -1.0803  1.8597  1.6348
 3668TIP3    H235200   0.401   5.595  15.936  0.1052  1.0637 -1.8801
 3669TIP3   OH235201   2.773   6.362  13.721 -0.2597  0.4431 -0.1739
 3669TIP3    H135202   2.766   6.352  13.816 -1.4038 -0.3481 -0.3171
 3669TIP3    H235203   2.779   6.272  13.688 -0.5455  0.6777 -0.8865
 3670TIP3   OH235204   4.875   5.199  14.370  0.2406  0.0523 -0.5710
 3670TIP3    H135205   4.857   5.270  14.310  1.1274  2.7853  2.1534
 3670TIP3    H235206   4.969   5.206  14.388 -0.1712  0.1796  1.9685
 3671TIP3   OH235207   5.795   0.007  15.568  0.3945 -0.1270 -0.2980
 3671TIP3    H135208   5.806   0.102  15.579  0.0774 -0.2290  1.0420
 3671TIP3    H235209   5.718  -0.002  15.512  0.1396  0.4064 -0.0438
 3672TIP3   OH235210   2.136   3.959  15.323  0.0306 -0.2837 -0.3359
 3672TIP3    H135211   2.158   3.880  15.372 -1.0288 -0.6025 -0.3364
 3672TIP3    H235212   2.220   3.992  15.292  0.3609 -3.0246 -2.8609
 3673TIP3   OH235213   5.063   0.001  16.194  0.5117  0.1404 -0.0147
 3673TIP3    H135214   5.068  -0.071  16.256  0.5812 -2.6056 -2.9626
 3673TIP3    H235215   5.008  -0.031  16.123  1.2005  2.6893 -1.8683
 3674TIP3   OH235216   0.913   5.557  16.555 -0.3194 -0.3987 -0.0911
 3674TIP3    H135217   0.953   5.488  16.502 -0.2508 -0.0051 -0.5610
 3674TIP3    H235218   0.833   5.581  16.506  0.0593  0.3915 -0.3525
 3675TIP3   OH235219   6.607   2.970  14.774  0.3691 -0.4535  0.1100
 3675TIP3    H135220   6.549   2.947  14.847 -0.7995 -0.8494 -0.9180
 3675TIP3    H235221   6.629   3.062  14.790 -0.7686 -0.2108  0.4000
 3676TIP3   OH235222   6.145   2.774  16.104  0.4721  0.2877  0.8767
 3676TIP3    H135223   6.207   2.746  16.037 -0.6920 -1.6324  0.5444
 3676TIP3    H235224   6.190   2.758  16.187  0.5239 -0.8680  0.6340
 3677TIP3   OH235225   1.740   6.099  16.202 -0.0227  0.0382  0.1159
 3677TIP3    H135226   1.709   6.178  16.246 -1.4959 -1.8455  2.8226
 3677TIP3    H235227   1.833   6.095  16.222 -0.2023  0.4640  1.1082
 3678TIP3   OH235228   2.028   0.949  13.523 -0.7450 -0.4984  0.0961
 3678TIP3    H135229   2.002   0.993  13.604  0.8217  1.0982 -0.2054
 3678TIP3    H235230   1.945   0.929  13.479 -1.5677  0.4874  1.1326
 3679TIP3   OH235231   0.960   5.822  13.364 -0.1254 -0.0781 -0.1403
 3679TIP3    H135232   1.052   5.846  13.371  0.1395 -1.3157  1.1267
 3679TIP3    H235233   0.941   5.825  13.270  0.7385  1.7769 -0.2949
 3680TIP3   OH235234   2.492   4.734  16.409 -0.2031 -0.5202  0.5701
 3680TIP3    H135235   2.488   4.775  16.495 -0.5469 -1.5942  1.0783
 3680TIP3    H235236   2.472   4.642  16.424 -2.0029 -0.4268 -0.8867
 3681TIP3   OH235237   3.840   4.742  13.977  0.3895 -0.0863  0.0595
 3681TIP3    H135238   3.818   4.651  13.998 -0.2542  0.0744  0.1222
 3681TIP3    H235239   3.878   4.737  13.889 -0.9833 -0.2782 -0.5650
 3682TIP3   OH235240   2.484   4.757  14.196 -0.5079  0.1385 -0.5148
 3682TIP3    H135241   2.439   4.797  14.122 -2.0664  2.2651  1.4127
 3682TIP3    H235242   2.414   4.717  14.248  0.4850 -0.9826  0.0033
 3683TIP3   OH235243   4.252   0.563  16.707  0.1329 -0.1287 -0.2457
 3683TIP3    H135244   4.267   0.657  16.714 -2.2861  0.2517  0.8300
 3683TIP3    H235245   4.273   0.542  16.616  0.9243  1.4011 -0.4497
 3684TIP3   OH235246   5.375   0.186  15.523 -0.6074 -0.5667 -0.9072
 3684TIP3    H135247   5.428   0.260  15.556 -0.1373 -1.0764 -0.4998
 3684TIP3    H235248   5.331   0.221  15.446 -2.2633  0.8834  0.6008
 3685TIP3   OH235249   3.606   6.009  16.519 -0.3939  0.5777  0.0890
 3685TIP3    H135250   3.691   6.026  16.558 -0.1773  1.2134 -0.6304
 3685TIP3    H235251   3.599   6.073  16.448 -0.4965 -0.9341 -1.3303
 3686TIP3   OH235252   6.565   0.585  14.632  0.3119  0.1235  0.0949
 3686TIP3    H135253   6.596   0.676  14.636  2.8780 -0.6780  0.1954
 3686TIP3    H235254   6.604   0.550  14.552 -0.4514 -0.9765  0.1861
 3687TIP3   OH235255   3.821   6.345  17.207 -0.0013 -0.2458 -0.1640
 3687TIP3    H135256   3.779   6.261  17.223 -0.5774 -0.4684 -2.4472
 3687TIP3    H235257   3.907   6.323  17.171  0.4579  0.1706  0.6532
 3688TIP3   OH235258   2.042   2.891  14.346 -0.0932 -0.3493 -0.2165
 3688TIP3    H135259   2.022   2.848  14.263 -0.7998  1.4726 -1.0413
 3688TIP3    H235260   2.007   2.979  14.337 -1.4626 -0.4922  2.5564
 3689TIP3   OH235261   2.932   5.683  17.009 -0.5235 -0.2594  0.2547
 3689TIP3    H135262   2.854   5.631  17.027 -2.0896  2.1907  0.9586
 3689TIP3    H235263   2.950   5.669  16.916 -1.3518 -1.3886  0.2475
 3690TIP3   OH235264   4.379   5.118  16.782 -0.4793  0.2311 -0.1123
 3690TIP3    H135265   4.406   5.209  16.791  1.2660 -0.2614  0.1365
 3690TIP3    H235266   4.349   5.092  16.869  1.5188 -0.1217  0.5342
 3691TIP3   OH235267   5.304   6.691  13.339 -0.1379  0.2378  0.1257
 3691TIP3    H135268   5.364   6.657  13.405  0.3970  1.7561  0.4580
 3691TIP3    H235269   5.300   6.785  13.356 -1.0470  0.4608 -1.1662
 3692TIP3   OH235270   5.684   5.179  14.714  0.5001 -0.2081 -0.3523
 3692TIP3    H135271   5.698   5.111  14.648  1.5938 -1.0680  0.7157
 3692TIP3    H235272   5.706   5.136  14.797 -1.6890  0.5748  0.7025
 3693TIP3   OH235273   5.921   0.228  15.373 -0.2367 -0.1872  0.2555
 3693TIP3    H135274   5.880   0.171  15.438  0.1678 -0.9692 -0.1569
 3693TIP3    H235275   5.865   0.305  15.369 -1.4829 -1.0836 -0.0547
 3694TIP3   OH235276   3.470   6.406  15.898 -0.5600  0.0532 -0.0658
 3694TIP3    H135277   3.548   6.422  15.952 -1.5548  0.1841  1.3773
 3694TIP3    H235278   3.413   6.481  15.914 -1.2331 -0.3084 -0.6742
 3695TIP3   OH235279   2.135   0.203  17.202  0.0396 -0.4304 -0.3107
 3695TIP3    H135280   2.089   0.237  17.279  1.6500  1.3915 -0.0860
 3695TIP3    H235281   2.199   0.141  17.239  2.5073  2.2385  0.2079
 3696TIP3   OH235282   3.436   5.520  16.674  0.5263 -0.0738 -0.3662
 3696TIP3    H135283   3.508   5.534  16.612 -0.5085  0.1984 -1.5553
 3696TIP3    H235284   3.370   5.473  16.623 -0.7675  1.0550  0.2221
 3697TIP3   OH235285   3.883   6.073  16.322 -0.8397  0.5328  0.1921
 3697TIP3    H135286   3.866   6.106  16.234 -2.5279  0.5892  0.5187
 3697TIP3    H235287   3.832   6.130  16.380 -1.4157 -0.7766  1.0177
 3698TIP3   OH235288   4.960   1.198  15.983 -0.0531  0.0049  0.2926
 3698TIP3    H135289   5.000   1.167  15.901 -1.2344  0.9338 -0.6745
 3698TIP3    H235290   5.014   1.272  16.009  0.7748 -0.7499  0.7893
 3699TIP3   OH235291   6.516   5.251  14.816 -0.1121  0.4681 -0.5682
 3699TIP3    H135292   6.444   5.307  14.847  1.8139  2.3677  0.7530
 3699TIP3    H235293   6.512   5.174  14.873  0.4596  1.7798  1.3766
 3700TIP3   OH235294   4.242   5.614  16.486  0.5006  0.5050 -0.2707
 3700TIP3    H135295   4.199   5.561  16.419 -0.4861 -0.0883  0.7965
 3700TIP3    H235296   4.205   5.701  16.475  0.8174  0.5644 -0.8978
 3701TIP3   OH235297   2.988   5.954  17.116 -0.1165  0.1861  0.6658
 3701TIP3    H135298   2.950   5.992  17.036  0.3757  0.8697  0.7583
 3701TIP3    H235299   2.982   5.859  17.102  1.9605  0.2491 -1.1626
 3702TIP3   OH235300   4.861   3.131  14.582  0.3471 -0.5907 -0.2001
 3702TIP3    H135301   4.781   3.148  14.630 -0.2526 -1.8545 -0.7058
 3702TIP3    H235302   4.908   3.214  14.583 -0.1518 -0.3022  1.5919
 3703TIP3   OH235303   1.623   6.523  16.932 -0.2516 -0.2316  0.0240
 3703TIP3    H135304   1.653   6.586  16.998 -1.9591 -1.1512  1.8040
 3703TIP3    H235305   1.704   6.483  16.899  0.7041 -0.7737  2.6829
 3704TIP3   OH235306   5.366   2.358  15.790 -0.1760 -0.7061 -0.3067
 3704TIP3    H135307   5.329   2.314  15.866 -0.9790  0.1445 -0.1844
 3704TIP3    H235308   5.439   2.409  15.826 -1.9515  1.5323  0.3661
 3705TIP3   OH235309   6.308   0.752  14.423  0.1843  0.1328 -0.0929
 3705TIP3    H135310   6.311   0.671  14.474 -0.4127  0.3548  0.2986
 3705TIP3    H235311   6.225   0.793  14.447  0.8154  1.2401  0.2908
 3706TIP3   OH235312   0.270   4.407  14.560 -0.0877 -0.4052  0.7757
 3706TIP3    H135313   0.361   4.387  14.582  0.4438  0.1112 -0.7923
 3706TIP3    H235314   0.230   4.321  14.547  0.6518 -0.6343 -0.1890
 3707TIP3   OH235315   5.841   4.798  16.691 -0.4400  0.0813 -0.0727
 3707TIP3    H135316   5.852   4.736  16.763  1.3094 -1.3797 -1.4778
 3707TIP3    H235317   5.911   4.862  16.703 -0.0630 -0.2379 -0.5094
 3708TIP3   OH235318   2.662   4.521  16.793 -0.3206 -0.1377 -0.1035
 3708TIP3    H135319   2.725   4.531  16.722 -0.9730 -1.7915 -0.9974
 3708TIP3    H235320   2.697   4.449  16.846 -0.9918 -0.4876 -0.1175
 3709TIP3   OH235321   0.946   0.515  14.622 -0.4087 -0.0798 -0.3324
 3709TIP3    H135322   0.876   0.579  14.640  0.1431 -0.2022  2.7291
 3709TIP3    H235323   0.968   0.479  14.708  2.9248 -0.5958 -1.2623
 3710TIP3   OH235324   3.617   3.295  14.512  0.3409  0.5419 -0.0794
 3710TIP3    H135325   3.635   3.231  14.580 -1.2216  0.2090  0.0431
 3710TIP3    H235326   3.560   3.250  14.450 -0.7732  1.7923 -0.0070
 3711TIP3   OH235327   0.896   4.613  16.098 -0.1120  0.1281 -0.0995
 3711TIP3    H135328   0.834   4.554  16.141  0.5106  1.0377  2.1920
 3711TIP3    H235329   0.963   4.555  16.062 -0.1521 -0.6522  1.0258
 3712TIP3   OH235330   2.929   2.786  14.916  0.0634  0.3057  0.1103
 3712TIP3    H135331   3.017   2.819  14.898  1.4652 -2.4265  1.3519
 3712TIP3    H235332   2.874   2.828  14.850  1.8688  3.5969  0.4779
 3713TIP3   OH235333   4.291   5.060  16.332 -0.5728  0.0195 -0.5861
 3713TIP3    H135334   4.221   5.108  16.376 -0.6304 -0.4918 -0.1195
 3713TIP3    H235335   4.284   5.089  16.240 -1.6877 -0.3509 -0.6421
 3714TIP3   OH235336   4.168   6.092  13.662  0.4556 -0.3252  0.2104
 3714TIP3    H135337   4.155   6.161  13.727 -0.0286  1.8508 -2.0575
 3714TIP3    H235338   4.190   6.138  13.581 -1.1910 -2.6989 -1.7587
 3715TIP3   OH235339   0.640   6.555  14.649 -0.2100 -0.1835  0.0316
 3715TIP3    H135340   0.666   6.644  14.625 -0.2540 -0.4046 -0.8581
 3715TIP3    H235341   0.721   6.512  14.676  0.1079 -0.3683 -1.1430
 3716TIP3   OH235342   5.990   5.935  14.601 -0.1980  0.1366 -0.0401
 3716TIP3    H135343   5.996   5.841  14.618  1.5103 -0.1942 -1.9741
 3716TIP3    H235344   6.070   5.970  14.639 -0.3462  0.6463 -0.2009
 3717TIP3   OH235345   5.580   2.252  13.739 -0.8217  0.2013  0.5749
 3717TIP3    H135346   5.499   2.282  13.699 -1.3119  0.2760  1.5988
 3717TIP3    H235347   5.570   2.157  13.745  0.3297 -0.1350 -1.7850
 3718TIP3   OH235348   2.701   6.034  14.257  0.1448 -0.2308  0.2266
 3718TIP3    H135349   2.605   6.035  14.265  0.2652  0.1664  2.3262
 3718TIP3    H235350   2.728   6.123  14.282  0.9772  0.4937 -2.8866
 3719TIP3   OH235351   5.768   5.372  14.380  0.3320 -0.2963  0.5152
 3719TIP3    H135352   5.830   5.445  14.382 -0.3622  0.2754  1.6937
 3719TIP3    H235353   5.823   5.293  14.386  1.0849  0.0921 -0.7808
 3720TIP3   OH235354   4.897   2.678  15.462 -0.5343 -0.2544  0.1845
 3720TIP3    H135355   4.971   2.651  15.407 -1.4687 -1.8762 -0.3444
 3720TIP3    H235356   4.936   2.697  15.547  0.8078  1.3377 -0.7245
 3721TIP3   OH235357   3.831   2.313  16.749 -0.2466  0.3456  0.6389
 3721TIP3    H135358   3.856   2.343  16.661 -1.1456  0.7150  0.4978
 3721TIP3    H235359   3.811   2.394  16.796 -0.3535  0.1132  0.9912
 3722TIP3   OH235360   6.417   2.109  15.787  0.3594 -0.3743  0.1670
 3722TIP3    H135361   6.504   2.114  15.747  1.5387  0.2783  2.6049
 3722TIP3    H235362   6.399   2.015  15.794 -0.5622 -0.5365 -3.0648
 3723TIP3   OH235363   3.641   4.894  15.278  0.4635 -0.1309  0.1154
 3723TIP3    H135364   3.684   4.947  15.211  0.6358  0.4732  0.6903
 3723TIP3    H235365   3.662   4.938  15.360  0.3258 -0.9078  0.5772
 3724TIP3   OH235366   5.870   2.134  15.946  0.0280 -0.5362  0.3111
 3724TIP3    H135367   5.852   2.228  15.937  0.4451 -0.4061  0.7860
 3724TIP3    H235368   5.821   2.109  16.025  1.4558 -0.2884  1.3240
 3725TIP3   OH235369   2.249   1.188  15.148  0.6144 -0.2983  0.0509
 3725TIP3    H135370   2.261   1.247  15.073  0.3097 -0.1637  0.1056
 3725TIP3    H235371   2.230   1.103  15.108 -0.9334  0.0568 -0.0471
 3726TIP3   OH235372   1.743   4.499  14.688  0.1184 -0.2031 -0.0587
 3726TIP3    H135373   1.805   4.528  14.755 -2.2052  2.0347  1.3282
 3726TIP3    H235374   1.682   4.573  14.679 -1.9967 -2.0229 -1.7660
 3727TIP3   OH235375   5.180   5.129  13.285  0.3840  0.0182  0.7525
 3727TIP3    H135376   5.261   5.180  13.289 -0.1678  0.9000  1.0328
 3727TIP3    H235377   5.208   5.038  13.288  1.4967  0.2462 -1.0516
 3728TIP3   OH235378   5.228   4.915  16.855 -0.0113 -0.2127 -0.0036
 3728TIP3    H135379   5.261   4.832  16.820  0.3409  1.2944 -3.7103
 3728TIP3    H235380   5.133   4.906  16.851  0.0256 -0.3434 -0.6788
 3729TIP3   OH235381   4.748   1.842  15.559  0.0316 -0.9653  0.3833
 3729TIP3    H135382   4.659   1.873  15.572  0.5099  0.9739 -0.4602
 3729TIP3    H235383   4.798   1.883  15.629  0.6233 -0.0904 -0.5194
 3730TIP3   OH235384   3.948   5.087  15.698  0.5211  0.3622  0.2440
 3730TIP3    H135385   4.010   5.087  15.624 -0.3409 -1.1405 -0.5248
 3730TIP3    H235386   3.993   5.038  15.767  0.8947  0.8303  0.3391
 3731TIP3   OH235387   5.685   5.086  15.416  0.0802  0.5842  0.0012
 3731TIP3    H135388   5.638   5.028  15.357 -0.4580 -0.6771  1.5775
 3731TIP3    H235389   5.772   5.094  15.378 -0.1500 -0.4655 -0.7826
 3732TIP3   OH235390   4.397   5.375  16.871 -0.5448 -0.2519  0.5071
 3732TIP3    H135391   4.339   5.443  16.905 -1.8070 -1.5057  0.9172
 3732TIP3    H235392   4.480   5.390  16.916 -0.2292  2.0558 -0.6570
 3733TIP3   OH235393   3.923   2.348  15.493  0.2152 -0.1111  0.0465
 3733TIP3    H135394   3.932   2.261  15.531  0.1222 -0.5514 -0.9052
 3733TIP3    H235395   3.846   2.385  15.534  0.0637 -0.6067  0.2165
 3734TIP3   OH235396   5.876   0.118  15.935  0.3365 -0.0041  0.4442
 3734TIP3    H135397   5.796   0.067  15.943  0.9301 -0.7205  2.3153
 3734TIP3    H235398   5.943   0.066  15.978  3.0611 -1.7043 -4.9715
 3735TIP3   OH235399   1.245   6.438  16.531 -0.1036  0.2169  0.1376
 3735TIP3    H135400   1.188   6.433  16.607 -0.0816 -1.2546  0.0928
 3735TIP3    H235401   1.329   6.403  16.562  0.3764  1.0877 -0.1530
 3736TIP3   OH235402   2.832   2.431  16.802  0.2063 -0.0569  0.3670
 3736TIP3    H135403   2.858   2.351  16.756 -2.0699 -1.5193  1.4487
 3736TIP3    H235404   2.786   2.482  16.736  0.2237 -0.4117  0.0738
 3737TIP3   OH235405   1.959   5.035  16.196 -0.2426  0.0019  0.1860
 3737TIP3    H135406   1.930   5.104  16.254 -0.8548  0.9219 -1.1677
 3737TIP3    H235407   2.042   5.067  16.160  1.3282 -1.5565  2.2136
 3738TIP3   OH235408   0.270   1.448  14.073  0.1232  0.1418 -0.1195
 3738TIP3    H135409   0.195   1.495  14.036  0.6746  0.0154 -1.4491
 3738TIP3    H235410   0.253   1.356  14.051 -0.9146 -0.3543  2.3962
 3739TIP3   OH235411   0.161   5.864  15.045 -0.5461 -0.0751 -0.1672
 3739TIP3    H135412   0.146   5.804  14.972  3.5182 -0.4058 -0.9943
 3739TIP3    H235413   0.217   5.932  15.008 -0.4865  1.1664  2.0689
 3740TIP3   OH235414   6.586   0.921  15.725 -0.2018 -0.0462 -0.1000
 3740TIP3    H135415   6.530   0.892  15.797 -0.2565  1.1437  0.3737
 3740TIP3    H235416   6.541   0.890  15.646 -0.6477 -0.5435  0.3406
 3741TIP3   OH235417   2.246   1.157  16.108 -0.4568  0.5798 -0.1874
 3741TIP3    H135418   2.166   1.113  16.136  0.4722 -0.2462  1.3152
 3741TIP3    H235419   2.289   1.182  16.190  2.2401 -1.6365 -0.7737
 3742TIP3   OH235420   6.133   4.085  15.630 -0.5419  0.2121  0.3044
 3742TIP3    H135421   6.107   3.995  15.610 -0.4895  0.6666 -2.1847
 3742TIP3    H235422   6.228   4.083  15.633 -0.5436  0.1554  0.3166
 3743TIP3   OH235423   3.695   4.524  17.158 -0.4598  0.1470 -0.2155
 3743TIP3    H135424   3.696   4.542  17.252  0.2404  0.9500 -0.3723
 3743TIP3    H235425   3.677   4.430  17.152  0.8109 -0.1863  0.7616
 3744TIP3   OH235426   3.838   2.708  16.200  0.4822  0.2882 -0.4143
 3744TIP3    H135427   3.882   2.787  16.167  1.4496 -0.2447 -0.4404
 3744TIP3    H235428   3.781   2.740  16.270  0.1127  1.1332 -1.0779
 3745TIP3   OH235429   3.052   5.609  15.306  0.5856 -0.1595  0.0292
 3745TIP3    H135430   2.988   5.583  15.240  1.3019 -0.4991 -0.5539
 3745TIP3    H235431   3.020   5.571  15.388 -0.1087 -0.0695 -0.1944
 3746TIP3   OH235432   6.116   2.174  16.273 -0.6870 -0.0148  0.2904
 3746TIP3    H135433   6.089   2.160  16.182  0.0102  1.3816 -0.1655
 3746TIP3    H235434   6.153   2.263  16.274  1.3226 -0.7904  1.4374
 3747TIP3   OH235435   0.190   4.239  16.664 -0.0142 -0.5694 -0.2870
 3747TIP3    H135436   0.195   4.335  16.669  1.2945 -0.5448 -1.5634
 3747TIP3    H235437   0.098   4.219  16.682 -0.2265  0.8844  0.4124
 3748TIP3   OH235438   3.902   5.890  14.621 -0.2800 -0.5589  0.0986
 3748TIP3    H135439   3.850   5.894  14.540  0.8146 -0.6754 -0.6279
 3748TIP3    H235440   3.992   5.904  14.592 -0.0109  0.7539  1.4624
 3749TIP3   OH235441   5.975   1.282  15.870  0.0580 -0.8133 -0.7109
 3749TIP3    H135442   5.908   1.250  15.931  1.6593 -2.5428  0.2489
 3749TIP3    H235443   5.962   1.229  15.791 -0.0526 -0.7480 -0.7370
 3750TIP3   OH235444   1.406   2.643  13.453 -0.4629  0.1209 -0.4587
 3750TIP3    H135445   1.378   2.560  13.491 -1.5508  1.1147  1.0004
 3750TIP3    H235446   1.378   2.710  13.516  1.9868  1.4900 -0.6631
 3751TIP3   OH235447   5.916   3.746  15.264  0.2403  0.3803 -0.2499
 3751TIP3    H135448   5.908   3.703  15.178  1.9136  0.0192 -0.2466
 3751TIP3    H235449   5.826   3.772  15.285 -0.6720 -1.9942 -0.8410
 3752TIP3   OH235450   2.436   4.093  15.661 -0.5195 -0.1846  0.0184
 3752TIP3    H135451   2.384   4.168  15.688  0.4989  0.4609  0.2229
 3752TIP3    H235452   2.494   4.076  15.735  0.7418  0.1837 -0.8693
 3753TIP3   OH235453   2.517   3.061  15.369  0.0143 -0.1050 -0.2035
 3753TIP3    H135454   2.544   3.145  15.332  1.0077 -0.4773 -0.3599
 3753TIP3    H235455   2.453   3.026  15.307  1.2224 -0.4534 -1.3048
 3754TIP3   OH235456   3.587   0.187  14.391 -0.3906 -0.9397  0.3776
 3754TIP3    H135457   3.555   0.118  14.334  1.5748 -1.2739 -0.4026
 3754TIP3    H235458   3.561   0.268  14.347 -0.4053 -1.1963 -0.0911
 3755TIP3   OH235459   4.672   0.280  13.741  0.3872  0.0938  0.1640
 3755TIP3    H135460   4.697   0.190  13.718 -0.1117 -0.1345  0.5049
 3755TIP3    H235461   4.685   0.329  13.660  1.1401 -0.1815  0.1070
 3756TIP3   OH235462   1.714   5.634  16.785 -0.6318 -0.1207  0.0850
 3756TIP3    H135463   1.795   5.645  16.835 -0.5906 -2.7254  0.7328
 3756TIP3    H235464   1.733   5.563  16.724 -2.6519 -1.3964  0.8420
 3757TIP3   OH235465   0.441   0.213  14.511  0.3339  0.1011 -0.4092
 3757TIP3    H135466   0.435   0.308  14.522 -0.6008  0.1615 -1.2196
 3757TIP3    H235467   0.390   0.196  14.431  1.4736 -0.9453 -0.9385
 3758TIP3   OH235468   3.123   5.501  16.205  0.2825 -0.4393  0.3836
 3758TIP3    H135469   3.049   5.521  16.148  0.1725 -0.7767  0.4016
 3758TIP3    H235470   3.114   5.563  16.278 -0.3223 -0.8478  0.6751
 3759TIP3   OH235471   2.454   1.377  16.225  0.1391  0.6432 -0.1349
 3759TIP3    H135472   2.414   1.413  16.304  1.8814  0.5145  0.8391
 3759TIP3    H235473   2.402   1.413  16.153  0.4161  3.2869  0.9071
 3760TIP3   OH235474   3.212   5.051  15.728  0.1300  0.2143  0.3403
 3760TIP3    H135475   3.194   4.974  15.780 -0.3622 -1.2853 -1.8894
 3760TIP3    H235476   3.216   5.019  15.638  1.5996  2.5286 -0.5203
 3761TIP3   OH235477   5.246   2.552  16.222  0.9951  0.1319 -0.5564
 3761TIP3    H135478   5.291   2.469  16.237  0.2704 -0.4016 -1.2504
 3761TIP3    H235479   5.159   2.527  16.193  0.8385  1.1378 -0.9986
 3762TIP3   OH235480   6.446   3.653  14.929  0.4798  0.4052 -0.3664
 3762TIP3    H135481   6.487   3.731  14.891  1.6686  0.1830  0.4055
 3762TIP3    H235482   6.485   3.580  14.880  0.3537  0.2362 -0.2142
 3763TIP3   OH235483   1.925   0.225  14.337 -0.6844 -0.2499 -0.3996
 3763TIP3    H135484   1.876   0.307  14.339 -0.0621  0.1305 -0.2732
 3763TIP3    H235485   1.961   0.221  14.249 -0.0345  0.0341 -0.1564
 3764TIP3   OH235486   0.171   2.796  13.922  0.0576  0.3897 -0.6327
 3764TIP3    H135487   0.104   2.783  13.855 -1.3276 -2.0846  1.0437
 3764TIP3    H235488   0.254   2.785  13.876 -0.8338 -1.1331 -1.9974
 3765TIP3   OH235489   2.538   3.888  14.148  0.0724 -0.1823 -0.7489
 3765TIP3    H135490   2.580   3.878  14.062 -0.5931  0.4427 -1.1609
 3765TIP3    H235491   2.590   3.834  14.207  0.0288 -1.3017 -1.7103
 3766TIP3   OH235492   6.440   5.084  15.755  0.1511 -0.1161  0.0650
 3766TIP3    H135493   6.473   5.111  15.669 -2.1668  1.1700 -0.4928
 3766TIP3    H235494   6.511   5.106  15.816  1.2755  0.2459 -1.3163
 3767TIP3   OH235495   4.131   5.911  15.985 -0.3295  0.2879 -0.6789
 3767TIP3    H135496   4.038   5.907  15.962 -0.0436  0.7221 -1.9760
 3767TIP3    H235497   4.158   5.820  15.993 -0.9873  0.1673  0.2330
 3768TIP3   OH235498   0.853   1.994  14.643 -0.2563  0.1562  0.1834
 3768TIP3    H135499   0.780   1.979  14.583  0.3407  1.7435 -1.0019
 3768TIP3    H235500   0.864   1.910  14.688 -1.9738 -0.4935 -0.5194
 3769TIP3   OH235501   6.451   5.381  16.070  0.1687 -0.1621 -1.2382
 3769TIP3    H135502   6.429   5.367  15.978 -0.5681  0.3410 -1.1506
 3769TIP3    H235503   6.452   5.476  16.080  1.9072 -0.1655 -1.1005
 3770TIP3   OH235504   4.846   2.951  15.689 -0.0964  0.3189 -0.1754
 3770TIP3    H135505   4.764   2.913  15.657 -0.2875  0.0132  0.6727
 3770TIP3    H235506   4.895   2.877  15.725 -0.3986  0.8190  1.3344
 3771TIP3   OH235507   3.780   3.367  14.904 -0.3980 -0.1566  0.0665
 3771TIP3    H135508   3.803   3.276  14.923 -1.0147 -0.8456 -2.2066
 3771TIP3    H235509   3.773   3.408  14.990  0.1028 -2.1890  1.1456
 3772TIP3   OH235510   1.061   6.640  14.768  0.0840  0.3104  0.0040
 3772TIP3    H135511   1.080   6.725  14.727 -1.0562 -0.1081 -1.4650
 3772TIP3    H235512   1.147   6.603  14.787  0.6058  1.6420  0.3781
 3773TIP3   OH235513   1.740   6.326  15.223 -0.5207  0.1770  0.0207
 3773TIP3    H135514   1.799   6.384  15.174  0.4794  1.4492  2.5411
 3773TIP3    H235515   1.664   6.316  15.167  1.2984 -0.0378 -2.5894
 3774TIP3   OH235516   5.547   0.827  15.683 -0.2365  0.3087 -0.2600
 3774TIP3    H135517   5.507   0.899  15.633 -0.7981  0.5598  0.5248
 3774TIP3    H235518   5.614   0.791  15.625 -1.1275  0.3457 -1.3303
 3775TIP3   OH235519   2.509   6.263  17.482  0.2067  0.2323  0.7541
 3775TIP3    H135520   2.589   6.213  17.494  0.2242 -0.1071 -0.6581
 3775TIP3    H235521   2.499   6.272  17.387  0.0774  2.7060  0.9209
 3776TIP3   OH235522   3.874   3.922  16.053  0.0888  0.2980 -0.2829
 3776TIP3    H135523   3.922   4.004  16.066  3.4181 -1.5050  0.0876
 3776TIP3    H235524   3.929   3.855  16.095 -2.6335 -2.1117 -0.2396
 3777TIP3   OH235525   5.260   3.363  15.977 -0.1561 -0.2000 -0.2610
 3777TIP3    H135526   5.246   3.270  15.962 -0.2148 -0.0960 -0.8731
 3777TIP3    H235527   5.197   3.386  16.046 -1.4817 -0.2154 -1.4167
 3778TIP3   OH235528   5.960   4.504  15.975 -0.2428  0.3766 -0.5848
 3778TIP3    H135529   6.015   4.513  15.897  0.7315 -3.3204 -0.5157
 3778TIP3    H235530   6.018   4.468  16.042 -2.2155 -1.6517  0.1641
 3779TIP3   OH235531   4.998   1.691  14.902  0.1895 -0.0394  0.1289
 3779TIP3    H135532   5.048   1.623  14.947  0.5058 -0.1460 -0.3818
 3779TIP3    H235533   5.034   1.773  14.935  0.0130 -0.1192  0.5194
 3780TIP3   OH235534   6.240   3.952  14.473  0.4071  0.2168  0.2532
 3780TIP3    H135535   6.239   4.046  14.452 -0.6426  0.1010 -0.2794
 3780TIP3    H235536   6.235   3.908  14.388 -0.5993 -0.3032  0.5725
 3781TIP3   OH235537   2.063   6.368  15.259 -0.5773 -0.1346  0.2139
 3781TIP3    H135538   2.079   6.462  15.254  0.5833 -0.1908  2.0812
 3781TIP3    H235539   1.997   6.359  15.328 -0.2819 -0.7328  0.4178
 3782TIP3   OH235540   5.702   0.299  17.027 -0.1697  0.2794  0.7221
 3782TIP3    H135541   5.769   0.265  17.085 -0.2124  1.6399  1.6079
 3782TIP3    H235542   5.738   0.381  16.993 -0.4236 -0.1508 -0.6707
 3783TIP3   OH235543   3.224   6.462  17.066 -0.2180  0.0076 -0.2069
 3783TIP3    H135544   3.303   6.419  17.099 -0.0029 -0.5697 -1.4513
 3783TIP3    H235545   3.162   6.391  17.052 -1.3122  0.5355  1.5991
 3784TIP3   OH235546   4.126   1.599  16.570  0.1237 -0.1420 -0.4743
 3784TIP3    H135547   4.215   1.602  16.537  0.0899 -1.9691 -0.8476
 3784TIP3    H235548   4.133   1.556  16.655 -0.3398  0.2301 -0.2431
 3785TIP3   OH235549   0.649   6.455  17.053 -0.2336  0.6195  0.3666
 3785TIP3    H135550   0.610   6.414  17.129  1.4102  1.6066  1.8088
 3785TIP3    H235551   0.744   6.445  17.065  0.0882  0.3551 -1.8182
 3786TIP3   OH235552   1.853   6.546  13.418 -0.2147  0.2759  0.1066
 3786TIP3    H135553   1.800   6.615  13.459 -1.4586  0.8920 -2.3398
 3786TIP3    H235554   1.903   6.592  13.350 -0.5415 -1.0919 -1.1094
 3787TIP3   OH235555   0.634   5.297  16.913  0.4377  0.2458 -0.2565
 3787TIP3    H135556   0.666   5.344  16.989 -0.6431 -1.9030  1.6326
 3787TIP3    H235557   0.713   5.264  16.870  1.0786  1.8310 -0.3613
 3788TIP3   OH235558   5.307   0.179  15.033  0.1337  1.0545  0.4578
 3788TIP3    H135559   5.250   0.252  15.009 -1.2459 -0.5434 -1.4510
 3788TIP3    H235560   5.268   0.103  14.990  0.8747 -1.0609  3.2157
 3789TIP3   OH235561   2.918   5.151  15.905 -0.2656 -0.1797 -0.2884
 3789TIP3    H135562   2.862   5.214  15.950  1.3918 -0.0662  1.7444
 3789TIP3    H235563   2.984   5.205  15.862  0.6910 -0.4526  0.7985
 3790TIP3   OH235564   5.612   4.667  16.402  0.6379  0.3489  0.3201
 3790TIP3    H135565   5.695   4.621  16.415  0.4830  0.0083  0.1163
 3790TIP3    H235566   5.579   4.633  16.318  0.8951  1.3896 -0.2240
 3791TIP3   OH235567   2.125   6.592  13.330 -0.3914  0.3445  0.1958
 3791TIP3    H135568   2.157   6.663  13.386 -0.5556  0.8076 -0.2948
 3791TIP3    H235569   2.175   6.599  13.249 -0.9962  0.4226 -0.1751
 3792TIP3   OH235570   4.099   4.783  15.389 -0.4284  0.4238 -0.6863
 3792TIP3    H135571   4.119   4.749  15.476 -0.9450  0.5929 -0.4953
 3792TIP3    H235572   4.043   4.715  15.349 -0.5546  0.5457 -0.7179
 3793TIP3   OH235573   6.147   6.379  14.645  0.2131 -0.8238 -0.2252
 3793TIP3    H135574   6.058   6.410  14.629  0.2861 -0.4847  0.0275
 3793TIP3    H235575   6.177   6.348  14.560  0.1164 -0.2736 -0.4615
 3794TIP3   OH235576   1.338   0.745  15.890 -0.2501  0.3825 -0.2406
 3794TIP3    H135577   1.390   0.681  15.842  0.0457  0.8177 -0.5019
 3794TIP3    H235578   1.299   0.801  15.822 -1.6542 -0.3781 -0.0961
 3795TIP3   OH235579   3.933   6.143  14.978 -0.1314 -0.5847 -0.8279
 3795TIP3    H135580   3.924   6.162  15.071 -1.6378 -1.1775 -0.8378
 3795TIP3    H235581   4.026   6.123  14.967  0.1338 -0.1795  0.4760
 3796TIP3   OH235582   2.177   4.265  15.254 -0.0869 -0.8379  0.9999
 3796TIP3    H135583   2.247   4.206  15.227  0.1145 -0.4837  0.7240
 3796TIP3    H235584   2.210   4.309  15.332  0.9280  0.9084 -0.3288
 3797TIP3   OH235585   2.975   6.622  13.318  0.5318 -0.6707  0.5395
 3797TIP3    H135586   2.948   6.690  13.256 -0.5926 -1.5803 -0.0120
 3797TIP3    H235587   2.893   6.592  13.358  0.8485 -2.4172 -0.0060
 3798TIP3   OH235588   1.442   5.645  16.017  0.0298 -0.1750 -0.2237
 3798TIP3    H135589   1.428   5.553  16.038  2.2200 -0.1646  1.6835
 3798TIP3    H235590   1.466   5.685  16.100  1.2561  1.6662 -1.3866
 3799TIP3   OH235591   6.113   3.968  16.380  0.0686 -0.1801 -0.2640
 3799TIP3    H135592   6.085   3.911  16.308  1.0784 -0.3601 -0.5299
 3799TIP3    H235593   6.057   4.046  16.372  1.2673  0.5569 -2.3107
 3800TIP3   OH235594   6.158   5.553  15.046  0.3100 -0.5954  0.0561
 3800TIP3    H135595   6.104   5.609  15.101  1.9623  0.4660  0.6920
 3800TIP3    H235596   6.170   5.473  15.098 -0.6131 -0.8470 -0.0987
 3801TIP3   OH235597   3.120   1.708  16.748  0.1115  0.0392  0.3515
 3801TIP3    H135598   3.147   1.777  16.809  2.3017 -1.1791  0.8621
 3801TIP3    H235599   3.095   1.756  16.669  0.7182  1.4799  0.9862
 3802TIP3   OH235600   6.622   3.937  14.495 -0.2294 -0.5433 -0.1997
 3802TIP3    H135601   6.680   3.991  14.442 -0.3276 -0.3738 -0.1350
 3802TIP3    H235602   6.583   3.998  14.558  0.1429 -0.8022  0.2843
 3803TIP3   OH235603   6.212   1.136  13.901 -0.1695  0.5127  0.2019
 3803TIP3    H135604   6.168   1.058  13.866 -0.6428  0.7788  0.1943
 3803TIP3    H235605   6.186   1.207  13.841  0.3765  0.6517  0.1212
 3804TIP3   OH235606   0.282   2.614  16.191  0.4232  0.3243  0.2070
 3804TIP3    H135607   0.320   2.590  16.276  0.2576 -1.1964 -0.1133
 3804TIP3    H235608   0.330   2.560  16.128 -2.0388 -1.5462 -0.2456
 3805TIP3   OH235609   6.579   4.524  16.688  0.3224 -0.7974 -0.1246
 3805TIP3    H135610   6.521   4.563  16.623  0.7677 -1.1572 -0.7394
 3805TIP3    H235611   6.562   4.430  16.683  0.9014 -0.8985 -0.2566
 3806TIP3   OH235612   1.595   2.211  14.741 -0.2482 -0.3579  0.3292
 3806TIP3    H135613   1.520   2.172  14.694  0.2914 -1.6294  0.4768
 3806TIP3    H235614   1.671   2.161  14.710  0.3731  0.0769  1.1186
 3807TIP3   OH235615   6.668   3.165  13.513 -0.0119 -0.3670 -0.0138
 3807TIP3    H135616   6.616   3.236  13.552 -1.1041 -1.0236 -0.2249
 3807TIP3    H235617   6.636   3.159  13.423  0.2361 -0.9779 -0.0628
 3808TIP3   OH235618   4.777   3.334  16.241 -0.0647 -0.1877 -0.3500
 3808TIP3    H135619   4.736   3.308  16.158  1.8402 -1.0454 -1.0899
 3808TIP3    H235620   4.799   3.252  16.284  1.2631  0.1935 -0.2326
 3809TIP3   OH235621   6.626   4.933  16.095  0.3298  0.0071  0.1253
 3809TIP3    H135622   6.568   4.893  16.031 -0.8133  1.0112  0.4843
 3809TIP3    H235623   6.625   5.026  16.074  1.9858  0.0288  0.0318
 3810TIP3   OH235624   3.948   3.650  16.153 -0.4459  0.4963 -0.4396
 3810TIP3    H135625   3.928   3.593  16.079  0.2004 -0.2700 -0.0314
 3810TIP3    H235626   4.043   3.661  16.150 -0.4190  0.4940  0.2485
 3811TIP3   OH235627   4.121   4.223  13.293  0.9202 -0.3152 -0.4546
 3811TIP3    H135628   4.057   4.245  13.225  1.8647 -0.4462 -1.4315
 3811TIP3    H235629   4.096   4.135  13.322  0.4038 -0.1898 -0.5114
 3812TIP3   OH235630   0.722   6.106  15.535 -0.0106 -0.4659  0.2787
 3812TIP3    H135631   0.814   6.089  15.553  0.6706  2.0530 -0.4239
 3812TIP3    H235632   0.722   6.181  15.475 -2.5111 -0.4221  0.2124
 3813TIP3   OH235633   4.132   4.306  16.561  0.1801  1.0201  0.0325
 3813TIP3    H135634   4.126   4.385  16.508 -1.4712 -0.5586 -2.3806
 3813TIP3    H235635   4.160   4.238  16.500 -0.5862 -0.6681  1.4554
 3814TIP3   OH235636   0.528   0.958  17.207 -0.6290 -0.1769  0.9788
 3814TIP3    H135637   0.572   0.905  17.140  0.6038  1.0466  0.7727
 3814TIP3    H235638   0.531   0.904  17.286 -1.5105 -1.3661  0.2477
 3815TIP3   OH235639   4.528   6.330  15.164  0.4513 -0.7905 -0.2564
 3815TIP3    H135640   4.503   6.339  15.256  0.4496 -0.4911 -0.2870
 3815TIP3    H235641   4.492   6.245  15.137 -0.7025 -0.2779 -0.3601
 3816TIP3   OH235642   3.614   5.592  14.757 -0.0614  0.6354  0.1729
 3816TIP3    H135643   3.577   5.575  14.671 -0.9017 -0.3344  0.7165
 3816TIP3    H235644   3.589   5.682  14.776  1.5815  1.4656 -1.2999
 3817TIP3   OH235645   2.732   3.699  16.540  0.2056  0.6851 -0.4069
 3817TIP3    H135646   2.704   3.770  16.597 -0.2925  0.5395 -0.4615
 3817TIP3    H235647   2.655   3.643  16.532  0.4444  0.3993 -0.7580
 3818TIP3   OH235648   5.298   3.170  15.083 -0.5866  0.1769  0.0640
 3818TIP3    H135649   5.212   3.135  15.105 -0.2015 -0.3381  0.7773
 3818TIP3    H235650   5.358   3.096  15.092  0.3322  1.0800  2.1152
 3819TIP3   OH235651   2.902   1.182  14.009 -0.2192  0.5143  0.1429
 3819TIP3    H135652   2.931   1.250  13.948  1.2196 -1.1411 -1.1381
 3819TIP3    H235653   2.935   1.211  14.094  3.3327 -0.0649 -0.8774
 3820TIP3   OH235654   2.272   3.383  14.297  0.0030 -0.2419  0.3974
 3820TIP3    H135655   2.214   3.315  14.264 -1.1149  0.4481  0.8675
 3820TIP3    H235656   2.352   3.337  14.322 -1.2144 -1.5990  1.9832
 3821TIP3   OH235657   1.744   4.821  15.492 -0.7025 -0.3545 -0.0668
 3821TIP3    H135658   1.673   4.885  15.495 -2.5753 -2.3424  2.7009
 3821TIP3    H235659   1.703   4.738  15.517  2.4058 -1.8231  0.6639
 3822TIP3   OH235660   0.228   0.355  16.930  0.0240 -0.6428 -0.2917
 3822TIP3    H135661   0.294   0.362  16.861  1.3397  0.2928  1.0235
 3822TIP3    H235662   0.248   0.273  16.975 -1.3924 -1.7205 -1.5239
 3823TIP3   OH235663   3.184   2.738  14.182 -0.6320  0.0216  0.6511
 3823TIP3    H135664   3.236   2.659  14.193 -1.3110 -0.5080  0.1476
 3823TIP3    H235665   3.154   2.759  14.271 -0.3423 -0.2137  0.8050
 3824TIP3   OH235666   0.233   3.060  16.645 -0.4687 -0.5176  0.1666
 3824TIP3    H135667   0.295   2.992  16.673  1.0598  1.1963  1.1139
 3824TIP3    H235668   0.287   3.130  16.609 -1.8476  0.9890  0.8716
 3825TIP3   OH235669   4.633   0.156  15.354 -0.3926 -0.1191  0.2024
 3825TIP3    H135670   4.574   0.225  15.326 -0.4488 -0.6878 -1.1445
 3825TIP3    H235671   4.721   0.193  15.343 -0.4253 -0.2267 -0.4502
 3826TIP3   OH235672   3.926   3.564  15.841  0.7244 -0.5414  0.4313
 3826TIP3    H135673   4.008   3.612  15.827  0.4985 -0.5309 -1.0649
 3826TIP3    H235674   3.910   3.519  15.758  0.6799 -2.8666  1.6343
 3827TIP3   OH235675   6.518   5.799  15.465  0.2827 -0.6867 -0.5654
 3827TIP3    H135676   6.554   5.887  15.454  0.0993 -0.4523  0.6618
 3827TIP3    H235677   6.591   5.741  15.441  1.3539 -0.2105  1.3323
 3828TIP3   OH235678   2.138   5.969  16.492  0.5043 -0.0810  0.1249
 3828TIP3    H135679   2.137   5.897  16.429  1.7474  1.1836 -1.4266
 3828TIP3    H235680   2.229   5.999  16.492  0.4336  0.2681  2.2087
 3829TIP3   OH235681   0.873   5.127  15.161 -0.3478  0.6314  0.5763
 3829TIP3    H135682   0.836   5.202  15.206 -0.2239  0.1399  1.5131
 3829TIP3    H235683   0.810   5.108  15.091 -0.0750  1.9627 -0.0622
 3830TIP3   OH235684   3.370   3.379  15.442 -0.2988  0.4172  1.1123
 3830TIP3    H135685   3.397   3.341  15.526  0.0608 -0.0242  0.8034
 3830TIP3    H235686   3.444   3.435  15.418 -0.6555  0.9999  1.3721
 3831TIP3   OH235687   0.896   5.501  14.505  0.1886  0.2951 -0.1946
 3831TIP3    H135688   0.889   5.498  14.409 -1.2336  0.0911 -0.1066
 3831TIP3    H235689   0.990   5.493  14.522  0.4967  0.5907 -1.5758
 3832TIP3   OH235690   2.750   5.578  13.730  0.1047  0.0293 -0.0931
 3832TIP3    H135691   2.748   5.587  13.825  0.3986  0.8860 -0.1669
 3832TIP3    H235692   2.659   5.560  13.707 -0.0879  0.4798  0.2898
 3833TIP3   OH235693   4.203   6.662  16.249 -0.2841 -0.3161  0.0743
 3833TIP3    H135694   4.235   6.624  16.331 -0.0182 -0.9826 -0.3302
 3833TIP3    H235695   4.248   6.746  16.242 -0.5705 -0.0975  0.7794
 3834TIP3   OH235696   3.152   1.432  16.715 -0.0993 -0.2846  0.4688
 3834TIP3    H135697   3.150   1.527  16.722 -2.1307 -0.0397 -2.0982
 3834TIP3    H235698   3.222   1.414  16.653  1.3403 -0.6600  2.1172
 3835TIP3   OH235699   5.556   1.996  16.667 -0.1673 -0.5165 -0.5943
 3835TIP3    H135700   5.609   1.964  16.593  0.2516  1.9549 -1.4590
 3835TIP3    H235701   5.616   1.992  16.742 -0.1382 -1.7104 -0.6626
 3836TIP3   OH235702   0.800   3.835  16.566 -0.2557 -0.6005  0.1578
 3836TIP3    H135703   0.734   3.904  16.556 -0.9239 -1.1855  0.4112
 3836TIP3    H235704   0.876   3.866  16.516 -0.5492  0.3059  0.2559
 3837TIP3   OH235705   2.374   6.257  17.224 -0.2009 -0.3886  0.0586
 3837TIP3    H135706   2.441   6.265  17.156 -0.6638  0.1565 -0.3483
 3837TIP3    H235707   2.321   6.183  17.197 -1.3303  0.7832 -1.0389
 3838TIP3   OH235708   3.666   4.653  15.747 -0.5493  0.1230 -0.2244
 3838TIP3    H135709   3.684   4.746  15.756 -0.3933  0.1584 -0.8757
 3838TIP3    H235710   3.578   4.648  15.711 -0.8985 -0.0062  0.6181
 3839TIP3   OH235711   1.395   5.199  14.583 -0.3855  0.3989 -0.2175
 3839TIP3    H135712   1.358   5.122  14.539 -1.8583  0.0024  1.5862
 3839TIP3    H235713   1.480   5.169  14.616 -0.4724 -0.1208 -0.4535
 3840TIP3   OH235714   2.583   1.688  16.359  0.1493  0.8811 -0.4747
 3840TIP3    H135715   2.582   1.688  16.454  0.3898  0.6363 -0.4710
 3840TIP3    H235716   2.492   1.705  16.334 -0.2926 -0.8703 -0.1898
 3841TIP3   OH235717   6.708   3.899  13.566  0.5857  0.1529  0.6057
 3841TIP3    H135718   6.769   3.870  13.634 -0.0334 -0.1764  1.0255
 3841TIP3    H235719   6.621   3.887  13.605  0.2312  0.0735 -0.1973
 3842TIP3   OH235720   6.053   5.184  16.740 -0.0934  0.0880  0.0956
 3842TIP3    H135721   5.961   5.189  16.767  0.3295  0.8271  1.4985
 3842TIP3    H235722   6.093   5.264  16.774  1.5750 -1.2732  1.5630
 3843TIP3   OH235723   3.255   6.114  15.127  0.0103 -0.0661  0.3692
 3843TIP3    H135724   3.312   6.039  15.110  0.1201  0.3844 -1.5028
 3843TIP3    H235725   3.174   6.092  15.080  0.6543  1.6878 -1.7181
 3844TIP3   OH235726   0.475   6.650  16.791 -0.0269 -0.3959  0.0807
 3844TIP3    H135727   0.391   6.684  16.821 -0.5966 -1.8808  0.2668
 3844TIP3    H235728   0.457   6.618  16.702  0.9157  1.2713 -0.7651
 3845TIP3   OH235729   4.241   6.582  16.772 -0.0687 -0.6116  0.4336
 3845TIP3    H135730   4.242   6.493  16.807  0.9897 -1.0713 -0.6798
 3845TIP3    H235731   4.150   6.598  16.748  0.0156 -2.1828 -1.1723
 3846TIP3   OH235732   4.336   4.598  13.808 -0.0786  0.5181  0.6354
 3846TIP3    H135733   4.258   4.588  13.753  1.5589  1.0807 -1.9390
 3846TIP3    H235734   4.367   4.509  13.822 -1.2349  0.2788  1.8157
 3847TIP3   OH235735   4.295   0.026  14.010 -0.0862 -0.0571  0.2583
 3847TIP3    H135736   4.379  -0.016  13.990  1.2123  2.1856  0.7060
 3847TIP3    H235737   4.269  -0.010  14.095  0.1677 -1.0945 -0.0911
 3848TIP3   OH235738   3.685   4.135  16.638  0.5094 -0.0664  0.0050
 3848TIP3    H135739   3.719   4.132  16.728  0.9061  1.2043 -0.0783
 3848TIP3    H235740   3.663   4.044  16.618  0.9369 -0.4582  1.1888
 3849TIP3   OH235741   5.129   1.852  16.699  0.5426 -0.0736 -0.0180
 3849TIP3    H135742   5.136   1.858  16.603  0.2812  3.7051  0.0356
 3849TIP3    H235743   5.218   1.866  16.730  0.8844 -2.6586  0.3984
 3850TIP3   OH235744   2.364   0.257  14.779 -0.4034 -0.0740 -0.8313
 3850TIP3    H135745   2.294   0.286  14.720  0.5419  0.2264 -1.8286
 3850TIP3    H235746   2.385   0.334  14.832 -0.8144 -0.1681 -0.5193
 3851TIP3   OH235747   0.231   3.817  15.316  0.3840  0.2474  0.2198
 3851TIP3    H135748   0.173   3.810  15.392 -0.7115 -1.0352 -0.6652
 3851TIP3    H235749   0.176   3.856  15.248  0.2751 -1.6339 -0.8465
 3852TIP3   OH235750   1.423   2.553  15.961 -0.2289 -0.1735 -0.5338
 3852TIP3    H135751   1.347   2.553  16.019 -0.0125  0.8652 -0.2284
 3852TIP3    H235752   1.496   2.523  16.016 -0.4314 -1.2723 -0.8556
 3853TIP3   OH235753   4.101   1.275  14.328  0.9520  0.0415 -0.6674
 3853TIP3    H135754   4.140   1.191  14.302  1.9014  0.7658 -1.6332
 3853TIP3    H235755   4.025   1.250  14.381  2.2889 -1.4295  0.6818
 3854TIP3   OH235756   4.219   0.986  14.521  0.4770  0.3568 -0.0316
 3854TIP3    H135757   4.154   1.018  14.584 -0.0429 -0.4211 -0.1495
 3854TIP3    H235758   4.298   0.972  14.573  0.0463 -0.3095  0.4709
 3855TIP3   OH235759   5.030   2.351  14.187  0.3307 -0.5240 -0.4260
 3855TIP3    H135760   4.937   2.367  14.202  0.1188 -0.8147 -1.3553
 3855TIP3    H235761   5.034   2.259  14.158  0.9257 -0.5697 -0.2162
 3856TIP3   OH235762   5.765   5.445  15.981 -0.5034  0.4508 -0.1207
 3856TIP3    H135763   5.757   5.525  16.033  1.0266  0.2373  0.4962
 3856TIP3    H235764   5.782   5.477  15.892 -1.1287  0.8087 -0.1192
 3857TIP3   OH235765   0.827   1.860  16.536 -0.1088 -0.5193 -0.6610
 3857TIP3    H135766   0.813   1.955  16.529  0.9845 -0.4584 -3.3876
 3857TIP3    H235767   0.822   1.829  16.446  1.6802 -2.7276 -0.0946
 3858TIP3   OH235768   1.924   0.157  15.284  0.0603  0.8626 -0.2059
 3858TIP3    H135769   1.970   0.193  15.208 -0.4451  0.1699 -0.8503
 3858TIP3    H235770   1.987   0.166  15.356  1.4765 -0.6628 -1.1869
 3859TIP3   OH235771   6.573   3.421  14.662 -0.2550 -0.2151  0.2964
 3859TIP3    H135772   6.630   3.496  14.644 -0.2692 -0.1079  0.7019
 3859TIP3    H235773   6.490   3.444  14.619  0.3101 -0.8407 -1.2293
 3860TIP3   OH235774   5.202   5.198  16.818  0.4314 -0.0561 -0.1699
 3860TIP3    H135775   5.112   5.228  16.823 -0.1590 -1.1496 -2.6059
 3860TIP3    H235776   5.196   5.102  16.823  1.8601 -0.1173  3.1843
 3861TIP3   OH235777   2.722   4.697  14.444 -0.1742 -0.2764  0.5005
 3861TIP3    H135778   2.721   4.792  14.445  0.0099 -0.2349 -1.1403
 3861TIP3    H235779   2.638   4.672  14.484 -0.2674  0.5529  0.8436
 3862TIP3   OH235780   3.992   4.726  16.747 -0.8674  0.3479 -0.1704
 3862TIP3    H135781   3.998   4.631  16.744  0.2818  0.4250 -1.5489
 3862TIP3    H235782   4.031   4.751  16.830 -0.3369 -0.3362 -0.2099
 3863TIP3   OH235783   2.031   1.867  14.117 -0.5869  0.1758  0.0787
 3863TIP3    H135784   1.942   1.866  14.152  0.6557 -1.7382  3.7315
 3863TIP3    H235785   2.081   1.814  14.179  3.2651  1.7708 -1.3971
 3864TIP3   OH235786   3.739   1.288  16.333  0.2354  0.7421 -0.0375
 3864TIP3    H135787   3.790   1.308  16.411 -1.5154  0.4944  1.2448
 3864TIP3    H235788   3.714   1.373  16.297  1.3290  0.8581 -0.5401
 3865TIP3   OH235789   1.929   2.745  15.660  0.1897 -0.5144 -0.2543
 3865TIP3    H135790   2.009   2.725  15.708  2.0538  0.8023 -2.5942
 3865TIP3    H235791   1.898   2.660  15.628 -0.1409 -1.1912  1.7141
 3866TIP3   OH235792   1.614   4.520  15.529  0.1040 -0.3224 -0.0411
 3866TIP3    H135793   1.533   4.497  15.573 -0.7819 -1.1218 -1.9603
 3866TIP3    H235794   1.674   4.449  15.551 -0.3774 -0.7956 -0.2383
 3867TIP3   OH235795   6.298   6.267  14.928  0.3176  0.0949  0.3444
 3867TIP3    H135796   6.219   6.269  14.982  0.2599  0.3544  0.2500
 3867TIP3    H235797   6.355   6.334  14.967  0.5069 -0.1146  0.4332
 3868TIP3   OH235798   0.742   4.518  14.829 -0.5591  0.7935 -0.1034
 3868TIP3    H135799   0.689   4.440  14.845 -0.9709  1.4864  2.3169
 3868TIP3    H235800   0.682   4.580  14.787 -1.7128  1.4783  2.3730
 3869TIP3   OH235801   1.328   6.554  14.778 -0.6685  0.3641 -0.8706
 3869TIP3    H135802   1.352   6.486  14.841 -0.2182  1.6769  0.4306
 3869TIP3    H235803   1.412   6.587  14.745 -0.7639  1.7978  0.2156
 3870TIP3   OH235804   4.602   5.512  16.969 -0.2157  0.0210 -0.0062
 3870TIP3    H135805   4.597   5.594  17.017 -2.3031  1.0438 -1.8036
 3870TIP3    H235806   4.692   5.482  16.982  1.1686  3.4422 -0.6600
 3871TIP3   OH235807   5.681   0.112  14.669 -0.4373 -0.7482 -0.4689
 3871TIP3    H135808   5.629   0.160  14.733 -1.6430 -0.8792 -1.3003
 3871TIP3    H235809   5.657   0.020  14.682  1.6154 -1.1478  0.8985
 3872TIP3   OH235810   2.588   1.344  16.539 -0.4987  0.6320 -0.4166
 3872TIP3    H135811   2.597   1.387  16.624  1.7052 -2.0451  0.8779
 3872TIP3    H235812   2.671   1.361  16.495  0.1069 -1.4331 -0.1896
 3873TIP3   OH235813   2.894   0.030  14.730  0.0514 -0.1219  0.4403
 3873TIP3    H135814   2.914  -0.013  14.646 -1.8301  3.1787 -1.9423
 3873TIP3    H235815   2.977   0.066  14.759  0.1453  2.4104 -2.4580
 3874TIP3   OH235816   4.913   6.078  14.057  0.5650  0.0427 -0.5840
 3874TIP3    H135817   4.904   6.099  13.964  2.8009  0.8334 -0.6866
 3874TIP3    H235818   4.859   6.143  14.101  1.6558  1.4689 -1.2576
 3875TIP3   OH235819   3.929   6.605  16.361  0.3630 -0.5006 -0.0478
 3875TIP3    H135820   3.882   6.583  16.280  0.6508  1.0733 -0.6793
 3875TIP3    H235821   4.022   6.603  16.336  0.3939  2.3099 -0.4559
 3876TIP3   OH235822   0.550   4.691  14.763  0.2602  0.2986 -0.3865
 3876TIP3    H135823   0.493   4.687  14.686 -0.4380 -0.6520  0.1568
 3876TIP3    H235824   0.608   4.765  14.746 -0.7395  0.9151 -1.2349
 3877TIP3   OH235825   4.203   0.431  16.066  0.4359  0.3002  0.0155
 3877TIP3    H135826   4.275   0.380  16.030  0.1385  0.7452 -1.2775
 3877TIP3    H235827   4.128   0.371  16.065  0.8220 -0.2595  1.6466
 3878TIP3   OH235828   5.155   6.619  15.126 -0.0172 -0.5627 -0.6637
 3878TIP3    H135829   5.153   6.530  15.093 -0.1992 -0.2344 -1.5654
 3878TIP3    H235830   5.140   6.674  15.049  1.4344  0.3111 -0.3558
 3879TIP3   OH235831   4.931   2.586  14.415  0.3804 -0.0372 -0.1458
 3879TIP3    H135832   5.016   2.556  14.384  0.7002  1.9772 -1.4311
 3879TIP3    H235833   4.942   2.681  14.426 -1.7446  0.3125 -0.5289
 3880TIP3   OH235834   4.088   6.642  14.528  0.3592 -0.5411 -0.3104
 3880TIP3    H135835   4.125   6.566  14.572 -0.4421  0.9523  3.3427
 3880TIP3    H235836   4.072   6.705  14.599 -0.1944  2.5562 -2.9516
 3881TIP3   OH235837   5.749   3.444  16.331  0.8137 -0.2416  0.0306
 3881TIP3    H135838   5.681   3.480  16.388  3.1802  1.6491  1.8856
 3881TIP3    H235839   5.715   3.455  16.243 -1.7595 -0.5338  0.9022
 3882TIP3   OH235840   3.690   0.094  15.965  0.3100 -0.0722 -0.6875
 3882TIP3    H135841   3.663   0.002  15.960 -1.5748  0.4438 -1.1308
 3882TIP3    H235842   3.704   0.111  16.058 -0.2624 -0.5921 -0.4980
 3883TIP3   OH235843   2.227   0.990  14.156 -0.0717  0.3746  0.3621
 3883TIP3    H135844   2.293   0.975  14.223 -0.1918  0.5861  0.5282
 3883TIP3    H235845   2.275   0.989  14.074  0.3010  1.5254  0.5452
 3884TIP3   OH235846   4.926   3.395  15.955 -0.0060 -0.3077 -0.0916
 3884TIP3    H135847   4.989   3.429  15.891  0.6861 -0.0382  0.7087
 3884TIP3    H235848   4.936   3.300  15.952  0.3027 -0.2749 -0.1135
 3885TIP3   OH235849   0.381   2.227  15.591 -0.1911 -0.4460  0.4667
 3885TIP3    H135850   0.457   2.170  15.588  0.3709  0.1695  1.9088
 3885TIP3    H235851   0.415   2.311  15.623 -0.9238  0.8655 -1.9210
 3886TIP3   OH235852   3.150   1.029  16.501 -0.4722  0.3993 -0.3609
 3886TIP3    H135853   3.101   0.961  16.454 -0.5422  0.2288 -0.0492
 3886TIP3    H235854   3.229   1.042  16.448 -0.6466  0.3598 -0.6326
 3887TIP3   OH235855   6.524   1.912  16.652  0.0757  0.5604 -0.8929
 3887TIP3    H135856   6.599   1.886  16.598  1.3934  0.1460  1.0434
 3887TIP3    H235857   6.509   2.004  16.629  0.9653  0.5575 -1.5385
 3888TIP3   OH235858   2.088   0.373  16.981 -0.2789 -0.3968 -0.2389
 3888TIP3    H135859   2.180   0.369  16.953  0.3737  1.4859  1.3877
 3888TIP3    H235860   2.091   0.354  17.075 -1.2909  1.3998  0.1923
 3889TIP3   OH235861   2.291   3.563  16.604 -0.6278 -0.6640 -0.0237
 3889TIP3    H135862   2.329   3.623  16.669 -2.7532 -0.1731  0.8227
 3889TIP3    H235863   2.257   3.621  16.535 -0.2228 -1.0808 -0.5869
 3890TIP3   OH235864   2.747   4.318  14.702  0.0098  0.7490 -0.0379
 3890TIP3    H135865   2.786   4.386  14.647 -0.6699  1.1793  0.0149
 3890TIP3    H235866   2.822   4.265  14.731  0.5952  1.7539  0.3208
 3891TIP3   OH235867   0.592   6.201  13.948  0.2177 -0.6548 -0.0678
 3891TIP3    H135868   0.657   6.245  14.003 -1.4747  0.4066  1.1895
 3891TIP3    H235869   0.631   6.116  13.928  1.3918 -0.6180  1.8234
 3892TIP3   OH235870   1.412   3.184  15.102  0.5335 -0.4314 -0.1291
 3892TIP3    H135871   1.386   3.220  15.017 -0.6011 -1.0923 -0.0871
 3892TIP3    H235872   1.352   3.226  15.165 -0.3362 -1.8058  0.0053
 3893TIP3   OH235873   4.991   2.767  16.658  0.3386  0.1661  0.0621
 3893TIP3    H135874   5.023   2.738  16.572 -1.3341  2.2297 -1.3795
 3893TIP3    H235875   4.914   2.712  16.674  0.0573  0.4503 -0.2809
 3894TIP3   OH235876   0.566   5.106  15.686 -0.0692  0.5727 -0.1039
 3894TIP3    H135877   0.531   5.164  15.754  1.7264  0.5234  0.9111
 3894TIP3    H235878   0.559   5.158  15.606 -0.5463  1.3405  0.4169
 3895TIP3   OH235879   0.116   6.230  16.287 -0.5580  0.1963 -0.2115
 3895TIP3    H135880   0.050   6.164  16.264 -0.3000  0.2591 -1.1657
 3895TIP3    H235881   0.154   6.198  16.369 -0.6328 -0.6989 -0.5197
 3896TIP3   OH235882   4.262   3.509  15.047  0.3563 -0.0990  0.6857
 3896TIP3    H135883   4.309   3.458  15.113  2.5944  2.5225  1.2901
 3896TIP3    H235884   4.269   3.599  15.077 -1.8434  0.8265 -1.2743
 3897TIP3   OH235885   4.094   2.471  14.753  0.0519  0.2816 -0.4163
 3897TIP3    H135886   4.032   2.509  14.690 -0.3890  0.4298  0.0975
 3897TIP3    H235887   4.158   2.541  14.768  0.1641  0.2423 -0.7070
 3898TIP3   OH235888   2.442   1.539  15.146  0.5222  0.1476 -0.1861
 3898TIP3    H135889   2.396   1.592  15.211  0.0505 -0.4141 -0.0473
 3898TIP3    H235890   2.497   1.480  15.197 -0.2065 -0.6188 -0.2689
 3899TIP3   OH235891   0.563   1.788  14.877 -0.0297 -0.0755  0.1923
 3899TIP3    H135892   0.485   1.806  14.825 -0.4199 -1.2955  0.3130
 3899TIP3    H235893   0.608   1.872  14.884 -0.8759  0.4602 -0.6251
 3900TIP3   OH235894   6.266   2.542  16.894  0.2856  0.1358 -0.6742
 3900TIP3    H135895   6.188   2.568  16.942  0.6852  3.9908 -1.8220
 3900TIP3    H235896   6.234   2.483  16.826 -1.4976  1.0523 -0.6804
 3901TIP3   OH235897   0.689   2.750  15.421  0.1233  0.1136  0.5777
 3901TIP3    H135898   0.597   2.771  15.439 -0.1679 -0.8652  0.2701
 3901TIP3    H235899   0.738   2.816  15.471 -0.7359  0.6918  0.6915
 3902TIP3   OH235900   0.647   2.601  15.689 -0.9953  0.5255  0.4981
 3902TIP3    H135901   0.661   2.569  15.599  2.2517 -1.3825  1.5068
 3902TIP3    H235902   0.669   2.694  15.685  0.2956  0.2123 -0.5147
 3903TIP3   OH235903   2.712   6.318  14.053 -0.2101 -0.6114  0.2007
 3903TIP3    H135904   2.645   6.326  14.121  0.0513  0.8460  0.3215
 3903TIP3    H235905   2.786   6.369  14.086 -0.8082  1.9301 -1.9795
 3904TIP3   OH235906   6.015   1.495  14.365  0.0111  0.9223 -0.4776
 3904TIP3    H135907   5.946   1.549  14.405 -0.7424 -0.0710 -0.3818
 3904TIP3    H235908   5.972   1.453  14.290  0.6733  0.7225 -0.7480
 3905TIP3   OH235909   4.960   4.569  15.678  0.0440 -0.3663  0.3823
 3905TIP3    H135910   4.871   4.589  15.650  0.0646  0.1085  0.6460
 3905TIP3    H235911   5.016   4.622  15.622  0.1573 -0.5635  0.3062
 3906TIP3   OH235912   4.888   0.047  14.343 -0.1182  0.3435  0.6336
 3906TIP3    H135913   4.831  -0.026  14.368  0.6955 -0.5255  0.0366
 3906TIP3    H235914   4.959   0.045  14.407  0.2542  0.1866  0.2180
 3907TIP3   OH235915   6.371   3.264  14.898 -0.4197  0.3169 -0.6818
 3907TIP3    H135916   6.326   3.312  14.828 -0.9277 -0.4826 -0.9134
 3907TIP3    H235917   6.456   3.240  14.859  0.6538  2.6034  0.0526
 3908TIP3   OH235918   3.771   0.688  14.245  0.4329 -0.1644 -0.3045
 3908TIP3    H135919   3.802   0.778  14.254 -0.1171 -0.0412  0.5708
 3908TIP3    H235920   3.745   0.664  14.334  3.5550 -2.3100  0.1815
 3909TIP3   OH235921   6.015   6.544  15.480  0.6513  0.3788 -0.0041
 3909TIP3    H135922   5.943   6.587  15.527  0.0310 -1.8706  1.2468
 3909TIP3    H235923   6.093   6.593  15.507 -0.0746  1.0743  0.9365
 3910TIP3   OH235924   1.117   0.735  16.595 -0.2778 -0.0436  0.0022
 3910TIP3    H135925   1.086   0.762  16.681  0.4963  0.5735  0.0930
 3910TIP3    H235926   1.208   0.709  16.608 -0.0874  0.2478 -0.6619
 3911TIP3   OH235927   0.974   1.256  15.550  0.0158  0.0847  0.2554
 3911TIP3    H135928   1.062   1.235  15.517  0.3973  1.9228  0.0211
 3911TIP3    H235929   0.988   1.323  15.616 -1.0591 -1.2134  1.8991
 3912TIP3   OH235930   6.447   4.035  15.645  0.3310 -0.3134  0.1439
 3912TIP3    H135931   6.483   4.090  15.575  1.0545 -0.0280  0.7246
 3912TIP3    H235932   6.525   3.997  15.687 -0.1638 -2.9029 -1.1138
 3913TIP3   OH235933   0.213   6.240  14.447  0.3079 -0.0123 -0.2657
 3913TIP3    H135934   0.283   6.298  14.477  0.9263  0.8683 -3.1389
 3913TIP3    H235935   0.178   6.283  14.369 -3.7005 -0.2733  1.1512
 3914TIP3   OH235936   6.004   6.510  14.298 -0.4185  0.2353  0.1898
 3914TIP3    H135937   6.057   6.587  14.317 -2.6036  1.6525  0.8888
 3914TIP3    H235938   5.963   6.529  14.214 -1.6096  0.2205  0.7544
 3915TIP3   OH235939   4.825   5.602  16.545  0.3907  0.3434 -0.1462
 3915TIP3    H135940   4.786   5.515  16.547 -0.6672  0.8129  0.3944
 3915TIP3    H235941   4.752   5.662  16.561  0.8527  1.4213 -1.8280
 3916TIP3   OH235942   1.714   6.274  15.886 -0.3446  0.1603 -0.4091
 3916TIP3    H135943   1.624   6.258  15.916  0.4667 -0.8893  1.6578
 3916TIP3    H235944   1.753   6.187  15.882  0.5479  0.5903 -1.4789
 3917TIP3   OH235945   3.530   1.048  16.589 -0.5831  0.0380  0.1939
 3917TIP3    H135946   3.479   1.067  16.511 -0.5578  1.6692  0.5419
 3917TIP3    H235947   3.505   0.958  16.613 -0.8754 -0.3480 -1.4401
 3918TIP3   OH235948   0.960   1.711  14.671  0.4463 -0.0811 -0.1660
 3918TIP3    H135949   0.968   1.766  14.749 -0.8178  0.6470 -0.5293
 3918TIP3    H235950   0.874   1.669  14.680  0.5676 -0.4951 -0.8499
 3919TIP3   OH235951   5.673   6.337  15.658  0.5832 -0.2926  0.3318
 3919TIP3    H135952   5.746   6.393  15.685  0.2497  1.1595 -1.5937
 3919TIP3    H235953   5.611   6.344  15.731  0.6145  1.7809  0.2266
 3920TIP3   OH235954   1.597   5.918  14.484 -0.4532 -0.1944  0.1610
 3920TIP3    H135955   1.592   5.897  14.578 -2.4896 -0.6638 -0.0024
 3920TIP3    H235956   1.653   5.995  14.480 -0.1373 -0.2915  1.7380
 3921TIP3   OH235957   0.731   2.483  15.931  0.1371 -0.3288 -0.8488
 3921TIP3    H135958   0.808   2.539  15.919  0.6096 -0.7775  0.0062
 3921TIP3    H235959   0.672   2.508  15.860  0.5136  0.9608 -0.7309
 3922TIP3   OH235960   6.214   5.442  15.407  0.2283  0.0204  0.1049
 3922TIP3    H135961   6.252   5.463  15.493 -0.9475  0.6987  0.4861
 3922TIP3    H235962   6.280   5.472  15.344  1.3155 -0.8978  0.7434
 3923TIP3   OH235963   3.123   3.131  15.594  0.0463  0.0661 -0.5374
 3923TIP3    H135964   3.034   3.108  15.570  0.5806 -0.0922 -2.4883
 3923TIP3    H235965   3.114   3.214  15.642 -1.4008 -1.5453  2.2645
 3924TIP3   OH235966   3.911   2.268  15.840 -0.4395  0.6574 -0.2918
 3924TIP3    H135967   3.948   2.180  15.853 -1.4888  0.2220 -0.1877
 3924TIP3    H235968   3.881   2.294  15.927 -3.1202 -0.2735 -0.8532
 3925TIP3   OH235969   0.781   1.151  14.334  0.1693  0.5062  0.0044
 3925TIP3    H135970   0.688   1.131  14.331  0.4348 -0.7066 -1.2468
 3925TIP3    H235971   0.824   1.074  14.297  1.6746  1.0563  0.4886
 3926TIP3   OH235972   3.838   1.624  14.308  0.1464 -0.2019  0.1448
 3926TIP3    H135973   3.906   1.591  14.367 -1.2482 -1.0951  1.3254
 3926TIP3    H235974   3.860   1.716  14.295  1.8348 -0.5791  0.0949
 3927TIP3   OH235975   0.102   5.710  14.147  0.0694  0.3803  0.6837
 3927TIP3    H135976   0.020   5.662  14.137  0.9294 -0.9788 -0.1157
 3927TIP3    H235977   0.133   5.687  14.235 -0.0271  0.3110  0.6987
 3928TIP3   OH235978   2.118   2.328  15.231 -0.5686 -0.1289  0.4325
 3928TIP3    H135979   2.049   2.312  15.167  0.4176 -0.7661 -0.5043
 3928TIP3    H235980   2.092   2.276  15.307 -0.8345 -0.8309 -0.1242
 3929TIP3   OH235981   5.904   3.021  13.898 -0.2382 -0.1442 -0.0130
 3929TIP3    H135982   5.926   3.096  13.841 -0.2167  0.5528  0.8925
 3929TIP3    H235983   5.862   3.061  13.974  1.9866 -0.8024  1.6580
 3930TIP3   OH235984   6.086   4.920  16.781 -0.7015 -0.0500 -0.0280
 3930TIP3    H135985   6.156   4.917  16.847  0.9419  0.3756 -1.6688
 3930TIP3    H235986   6.068   5.013  16.770 -1.2126 -0.1384  0.0419
 3931TIP3   OH235987   0.939   2.169  16.799  0.6560  0.8894  0.3227
 3931TIP3    H135988   0.898   2.253  16.779  0.2199  0.4224 -0.8124
 3931TIP3    H235989   1.033   2.189  16.806  0.6534  1.3366 -0.7613
 3932TIP3   OH235990   3.599   0.623  14.886  0.0499  0.2261  0.9350
 3932TIP3    H135991   3.604   0.535  14.925  0.4917 -2.0770 -3.7138
 3932TIP3    H235992   3.684   0.663  14.907  1.1802 -1.7885  0.4327
 3933TIP3   OH235993   5.518   6.024  13.724 -0.5891 -0.5608 -0.2240
 3933TIP3    H135994   5.604   6.000  13.691 -1.3177 -2.3620 -0.9665
 3933TIP3    H235995   5.499   6.109  13.684  0.7166 -0.2510 -0.2213
 3934TIP3   OH235996   4.417   5.733  14.275  0.4118 -0.5567  0.2501
 3934TIP3    H135997   4.381   5.761  14.191  1.0939 -1.2695 -0.2983
 3934TIP3    H235998   4.402   5.638  14.276  1.5964 -0.7548  0.3279
 3935TIP3   OH235999   0.038   0.927  14.166  0.3704  0.1492  0.3658
 3935TIP3    H136000   0.042   0.913  14.072  0.4413  2.0582  0.0528
 3935TIP3    H236001   0.028   1.022  14.176  0.2715 -0.0247  2.2761
 3936TIP3   OH236002   2.975   5.012  17.004 -0.3801  0.0613 -0.1784
 3936TIP3    H136003   2.950   5.104  17.008  2.1107  0.8141 -0.0042
 3936TIP3    H236004   2.942   4.974  17.086 -2.1663  0.5470 -0.6331
 3937TIP3   OH236005   6.488   5.583  16.747 -0.0057  0.0274  0.5807
 3937TIP3    H136006   6.409   5.601  16.798 -0.5333 -0.7447  0.0456
 3937TIP3    H236007   6.478   5.636  16.668 -0.1196 -0.2948  0.3809
 3938TIP3   OH236008   0.148   3.103  13.676 -0.2965 -0.1966  0.0843
 3938TIP3    H136009   0.181   3.187  13.709 -3.6244  0.9139  0.9129
 3938TIP3    H236010   0.094   3.126  13.600  1.2907 -2.0125 -1.7324
 3939TIP3   OH236011   2.041   3.251  15.722 -0.0179  0.2519  0.0238
 3939TIP3    H136012   1.972   3.291  15.775  0.3952 -2.0562  2.5074
 3939TIP3    H236013   2.000   3.240  15.636 -1.9050  1.1081  0.7385
 3940TIP3   OH236014   0.137   4.727  15.282 -0.4899 -0.0764  0.1829
 3940TIP3    H136015   0.227   4.697  15.292  0.3329  1.8519 -0.8584
 3940TIP3    H236016   0.120   4.720  15.188 -0.8772  0.9439  0.1574
 3941TIP3   OH236017   5.159   3.753  15.819  0.3756  0.0803 -0.0477
 3941TIP3    H136018   5.078   3.773  15.772 -0.3856 -1.0680  0.7196
 3941TIP3    H236019   5.224   3.814  15.783 -0.7072  0.6944 -1.0144
 3942TIP3   OH236020   4.325   4.022  16.673 -0.2537  0.1226  0.4837
 3942TIP3    H136021   4.342   4.100  16.726 -1.0113  0.4228  0.3075
 3942TIP3    H236022   4.387   4.028  16.600 -0.3151  0.5737  0.4634
 3943TIP3   OH236023   0.293   3.342  14.843 -0.3811 -0.5351  0.1959
 3943TIP3    H136024   0.218   3.298  14.884 -1.8614  0.0348 -1.7100
 3943TIP3    H236025   0.262   3.432  14.828  0.6030 -0.3379 -0.8029
 3944TIP3   OH236026   0.017   0.203  13.549 -0.0203  0.1486 -0.5182
 3944TIP3    H136027   0.084   0.209  13.616  1.3671 -0.4418 -1.8012
 3944TIP3    H236028  -0.004   0.294  13.527  0.0238  0.3343  0.1866
 3945TIP3   OH236029   5.071   2.088  15.865  0.0893  0.1186 -0.3784
 3945TIP3    H136030   5.120   2.146  15.922 -0.9773 -0.0609  0.7603
 3945TIP3    H236031   5.102   2.000  15.886  0.8384  0.1540 -1.2457
 3946TIP3   OH236032   3.555   3.668  16.951 -0.0548  0.9156  0.2978
 3946TIP3    H136033   3.463   3.649  16.933  0.5051 -0.1678 -1.7490
 3946TIP3    H236034   3.575   3.620  17.031 -0.4338 -1.7700 -1.1135
 3947TIP3   OH236035   2.775   0.024  14.257  0.1276  0.2998  0.5610
 3947TIP3    H136036   2.731   0.102  14.221 -0.9127 -0.6369 -0.2818
 3947TIP3    H236037   2.712  -0.012  14.320  0.6664  0.2157  1.0591
 3948TIP3   OH236038   6.648   1.871  15.887 -0.3438 -0.2269  0.3834
 3948TIP3    H136039   6.610   1.958  15.896 -0.3466 -0.2247  0.3533
 3948TIP3    H236040   6.719   1.883  15.823 -0.5496 -0.3104  0.1382
 3949TIP3   OH236041   5.099   2.504  15.101 -0.1425  0.2824 -0.1611
 3949TIP3    H136042   5.140   2.554  15.029  0.4393 -1.0066 -0.7513
 3949TIP3    H236043   5.005   2.511  15.083 -0.0769  1.1113 -0.2581
 3950TIP3   OH236044   3.355   2.272  15.934  0.2069 -0.3134  0.4934
 3950TIP3    H136045   3.272   2.273  15.983  0.0818  0.7247  0.2814
 3950TIP3    H236046   3.376   2.179  15.924  0.1280 -0.5495  2.3233
 3951TIP3   OH236047   5.772   4.925  15.607 -0.8384 -0.1246 -0.1878
 3951TIP3    H136048   5.723   4.915  15.688 -0.9705  0.7354 -0.1561
 3951TIP3    H236049   5.729   4.998  15.562 -0.4959 -0.3143 -0.8310
 3952TIP3   OH236050   4.061   4.391  14.602 -0.1086 -0.2154  0.5634
 3952TIP3    H136051   3.967   4.406  14.593  0.3814  2.7144 -0.5124
 3952TIP3    H236052   4.086   4.349  14.520 -0.0851  1.5303 -0.3663
 3953TIP3   OH236053   3.763   1.950  13.708  0.0358  0.3413  0.1761
 3953TIP3    H136054   3.829   1.972  13.774 -1.0721  0.7149  1.2002
 3953TIP3    H236055   3.732   2.035  13.676 -1.0977  0.2319  0.9146
 3954TIP3   OH236056   0.224   1.439  16.308 -0.0152 -0.0016  0.0840
 3954TIP3    H136057   0.317   1.418  16.296  0.1765  1.1148 -0.4982
 3954TIP3    H236058   0.214   1.449  16.403  0.7808  1.2281  0.0606
 3955TIP3   OH236059   3.407   0.755  16.568  0.1790 -0.1528 -0.1153
 3955TIP3    H136060   3.495   0.719  16.575 -0.9933 -3.3110 -0.0502
 3955TIP3    H236061   3.353   0.695  16.619 -2.0231  1.8140  0.0436
 3956TIP3   OH236062   2.029   5.530  16.480 -0.1545 -0.2305  0.2067
 3956TIP3    H136063   2.001   5.510  16.570 -0.3223 -0.7063  0.0498
 3956TIP3    H236064   1.954   5.505  16.426  0.3331 -0.9386 -0.1619
 3957TIP3   OH236065   5.671   6.088  15.806  0.1054 -0.3186 -0.2654
 3957TIP3    H136066   5.639   6.152  15.743 -2.5416 -0.8225  0.4453
 3957TIP3    H236067   5.743   6.132  15.851 -0.5322  1.5074 -0.9378
 3958TIP3   OH236068   4.463   5.456  15.642  0.1211  0.3970  0.1129
 3958TIP3    H136069   4.528   5.486  15.706 -0.1047 -0.9413  1.0259
 3958TIP3    H236070   4.395   5.523  15.643 -0.0722  0.2240  1.6181
 3959TIP3   OH236071   2.019   6.578  13.639  0.0404 -0.3277 -0.1792
 3959TIP3    H136072   1.967   6.536  13.570  0.3585  0.4849 -0.9210
 3959TIP3    H236073   2.063   6.651  13.596  0.4398  0.0494  0.8306
 3960TIP3   OH236074   2.889   4.638  15.449 -0.1094  0.2376  0.2880
 3960TIP3    H136075   2.832   4.697  15.499 -0.1850  0.4438 -0.0401
 3960TIP3    H236076   2.902   4.683  15.366  0.5155  0.1753  0.3539
 3961TIP3   OH236077   2.994   1.564  16.480 -1.3288 -1.0538  0.5129
 3961TIP3    H136078   2.979   1.484  16.530 -1.9465 -0.6232  1.0285
 3961TIP3    H236079   2.949   1.632  16.529 -0.6774 -0.3565  0.1644
 3962TIP3   OH236080   6.099   5.471  16.692  0.1553  0.3028 -0.4633
 3962TIP3    H136081   6.014   5.514  16.681  0.1179  0.6311  0.8909
 3962TIP3    H236082   6.163   5.538  16.667  0.0819  1.0396  1.2084
 3963TIP3   OH236083   2.944   2.398  16.329  0.6813  0.3798 -0.5189
 3963TIP3    H136084   2.941   2.316  16.278 -0.1885 -1.1571  1.8502
 3963TIP3    H236085   2.871   2.391  16.390  1.6749  2.1117  0.9653
 3964TIP3   OH236086   1.776   5.952  13.769  0.1325 -0.2899 -0.6846
 3964TIP3    H136087   1.717   5.974  13.697  0.0014 -3.9021 -1.8653
 3964TIP3    H236088   1.718   5.926  13.841  0.2946  1.3441  0.0712
 3965TIP3   OH236089   6.518   2.251  14.338 -0.4182 -0.4116 -0.2182
 3965TIP3    H136090   6.473   2.195  14.401 -1.6288  0.8995  0.1361
 3965TIP3    H236091   6.564   2.316  14.392  1.2603 -1.2134 -0.6060
 3966TIP3   OH236092   6.671   1.525  14.911 -0.3012 -0.3373  0.9809
 3966TIP3    H136093   6.734   1.482  14.969  1.5822  1.6302  0.5610
 3966TIP3    H236094   6.705   1.615  14.902 -4.0215  1.3364  1.8849
 3967TIP3   OH236095   6.199   2.112  15.168  0.3243 -0.0844 -0.4774
 3967TIP3    H136096   6.286   2.073  15.159  0.1263 -0.0430 -3.7083
 3967TIP3    H236097   6.164   2.074  15.248  1.8843 -3.0319 -1.0540
 3968TIP3   OH236098   3.062   2.810  16.694 -0.3975  0.1252  0.6528
 3968TIP3    H136099   3.058   2.718  16.669  0.5162  0.6543 -1.7079
 3968TIP3    H236100   3.155   2.833  16.687 -0.8116  1.6272 -0.5286
 3969TIP3   OH236101   1.644   5.083  13.577  0.1826  0.5596 -0.2670
 3969TIP3    H136102   1.605   4.999  13.554  1.1832 -0.4587  1.5475
 3969TIP3    H236103   1.703   5.103  13.504  0.3995 -0.6252 -0.4368
 3970TIP3   OH236104   1.115   6.212  14.669 -0.0403 -0.3373 -0.1046
 3970TIP3    H136105   1.139   6.303  14.648 -0.8219 -0.1536 -0.2187
 3970TIP3    H236106   1.197   6.164  14.661  0.0655  0.0415 -1.8467
 3971TIP3   OH236107   2.066   5.600  15.044 -0.3288 -0.4624 -0.0294
 3971TIP3    H136108   1.973   5.614  15.061 -0.0377  1.4249  0.2954
 3971TIP3    H236109   2.106   5.597  15.131  0.2757  2.0423 -0.1405
 3972TIP3   OH236110   4.926   3.631  16.832  0.1766 -0.1303  0.2197
 3972TIP3    H136111   5.004   3.638  16.778  0.4470 -0.4219  0.5662
 3972TIP3    H236112   4.853   3.648  16.772  0.4472 -0.8737 -0.3290
 3973TIP3   OH236113   1.408   6.536  15.737 -0.3735 -0.3827  0.2562
 3973TIP3    H136114   1.361   6.478  15.678 -1.3168  0.1459  0.4643
 3973TIP3    H236115   1.500   6.515  15.724 -0.4528  0.4951 -2.2806
 3974TIP3   OH236116   1.146   0.874  15.726 -0.3794 -0.1512  0.1414
 3974TIP3    H136117   1.156   0.791  15.679  0.3022 -0.5365  0.9462
 3974TIP3    H236118   1.052   0.890  15.726 -0.5511 -1.1009  0.2648
 3975TIP3   OH236119   2.016   4.890  14.609  0.4063 -0.4422  0.3684
 3975TIP3    H136120   1.930   4.880  14.648 -0.5154 -0.5527 -1.5902
 3975TIP3    H236121   2.010   4.970  14.556  2.2475  0.8544  1.9871
 3976TIP3   OH236122   5.310   4.929  16.256  0.2526  0.0050  0.4467
 3976TIP3    H136123   5.248   4.879  16.307 -0.6983  1.5067  0.8211
 3976TIP3    H236124   5.359   4.863  16.206 -1.4687 -1.2366  0.3112
 3977TIP3   OH236125   3.269   2.183  16.386 -0.1796  0.0862  0.4434
 3977TIP3    H136126   3.237   2.096  16.407  2.3409 -1.0671 -0.1337
 3977TIP3    H236127   3.232   2.203  16.300  0.2059 -0.9726  0.0166
 3978TIP3   OH236128   2.297   6.246  15.549 -0.2699 -0.3206 -0.6616
 3978TIP3    H136129   2.353   6.315  15.514 -0.7562 -0.3855 -1.5796
 3978TIP3    H236130   2.359   6.184  15.589  0.2388  0.1283 -0.7378
 3979TIP3   OH236131   5.944   2.064  13.571 -0.0266 -0.1958 -0.0866
 3979TIP3    H136132   5.975   2.020  13.492 -0.2370 -1.0512  0.3027
 3979TIP3    H236133   5.905   1.995  13.624  0.5625  0.2765  0.9977
 3980TIP3   OH236134   1.559   4.687  14.742 -0.2667 -0.0407 -0.0749
 3980TIP3    H136135   1.476   4.639  14.733 -0.2125  0.1447 -1.9653
 3980TIP3    H236136   1.532   4.776  14.764 -0.4608 -0.4322  1.3406
 3981TIP3   OH236137   5.743   5.388  15.275 -0.7954  0.2546  0.1105
 3981TIP3    H136138   5.771   5.405  15.185  2.0816 -2.4560  0.3015
 3981TIP3    H236139   5.814   5.424  15.329 -0.4263 -1.6763  1.0024
 3982TIP3   OH236140   0.759   2.185  13.720  0.4247  0.0988  0.1994
 3982TIP3    H136141   0.664   2.182  13.710  0.5365 -1.2147 -0.7740
 3982TIP3    H236142   0.774   2.211  13.810 -0.8517  0.7497  0.2399
 3983TIP3   OH236143   1.755   5.062  15.072  0.2508 -0.3515 -0.2087
 3983TIP3    H136144   1.707   5.118  15.133  2.1680  2.2901 -0.9127
 3983TIP3    H236145   1.837   5.041  15.117 -0.3299 -2.4829 -0.0664
 3984TIP3   OH236146   2.775   1.180  13.542  0.2653  0.0071 -0.6682
 3984TIP3    H136147   2.838   1.209  13.476  2.2724  0.1566  1.1710
 3984TIP3    H236148   2.779   1.248  13.610 -0.6441 -0.8395  0.2637
 3985TIP3   OH236149   5.319   3.934  16.222  0.1578  0.2431  0.1980
 3985TIP3    H136150   5.242   3.885  16.192  0.3287 -0.4922  0.9313
 3985TIP3    H236151   5.391   3.872  16.217  0.2251  0.1181  1.9195
 3986TIP3   OH236152   1.005   6.673  16.907  0.5350  0.0039 -0.2815
 3986TIP3    H136153   0.982   6.715  16.824 -0.8871 -0.6706 -0.2663
 3986TIP3    H236154   1.021   6.746  16.967 -0.9212  0.5478 -0.5154
 3987TIP3   OH236155   4.104   2.568  15.896  0.7946  0.3098  0.0108
 3987TIP3    H136156   4.105   2.541  15.804  2.1077  0.9407 -0.1925
 3987TIP3    H236157   4.120   2.487  15.945  1.0364  0.1187 -0.3790
 3988TIP3   OH236158   3.826   5.500  16.815 -0.3962 -0.0191 -0.0044
 3988TIP3    H136159   3.800   5.466  16.901 -1.7668 -0.0338 -0.4004
 3988TIP3    H236160   3.818   5.595  16.824 -0.8695 -0.0409 -0.2241
 3989TIP3   OH236161   2.556   4.414  15.752 -0.2713 -0.3464  0.2327
 3989TIP3    H136162   2.554   4.348  15.682 -0.4900  0.8868 -0.9824
 3989TIP3    H236163   2.603   4.488  15.713 -0.9188  0.5987  1.1975
 3990TIP3   OH236164   6.600   6.508  14.768 -0.5611  0.7389  0.4219
 3990TIP3    H136165   6.663   6.444  14.735 -2.4232 -0.1303 -1.7109
 3990TIP3    H236166   6.603   6.579  14.705 -1.4626  0.8352  0.4757
 3991TIP3   OH236167   2.802   5.604  13.994 -0.2178  0.1011  0.7825
 3991TIP3    H136168   2.726   5.584  14.049  0.2707 -1.8581  0.8344
 3991TIP3    H236169   2.871   5.625  14.057 -0.6669  1.8570  0.7354
 3992TIP3   OH236170   6.709   2.498  16.371 -0.0418  0.3902 -0.5445
 3992TIP3    H136171   6.627   2.515  16.324  0.9281  0.0987 -2.4508
 3992TIP3    H236172   6.769   2.468  16.303  1.3781 -0.3283  0.9747
 3993TIP3   OH236173   1.691   5.507  15.607  0.0907  0.4096 -0.4443
 3993TIP3    H136174   1.690   5.578  15.672 -0.6738 -1.9522  2.3043
 3993TIP3    H236175   1.756   5.445  15.641 -0.7118 -1.1475 -1.6812
 3994TIP3   OH236176   2.723   6.451  14.520  0.1877 -0.0105 -0.7861
 3994TIP3    H136177   2.653   6.425  14.461 -0.9921  2.4099 -0.5801
 3994TIP3    H236178   2.679   6.481  14.599  1.5873 -0.3830  0.1802
 3995TIP3   OH236179   2.905   2.174  16.678  0.3388  0.2868 -0.0075
 3995TIP3    H136180   2.859   2.099  16.716  0.5730  0.6114  0.9435
 3995TIP3    H236181   2.991   2.173  16.720 -0.2836  2.1577  1.4360
 3996TIP3   OH236182   4.596   2.904  14.422 -0.1543  0.3135 -0.0928
 3996TIP3    H136183   4.545   2.840  14.373 -0.0757 -0.7880  1.1928
 3996TIP3    H236184   4.601   2.980  14.365  0.6990 -1.2073 -2.1562
 3997TIP3   OH236185   1.968   5.627  15.678 -0.1801 -0.2242  0.0768
 3997TIP3    H136186   1.914   5.645  15.755  1.7707  0.0473  1.4847
 3997TIP3    H236187   1.978   5.711  15.635 -0.4521 -0.1690  0.1245
 3998TIP3   OH236188   3.765   1.618  14.680  0.0984 -0.4745  0.0771
 3998TIP3    H136189   3.766   1.523  14.670 -0.0390 -0.3560 -1.1161
 3998TIP3    H236190   3.854   1.646  14.662 -0.0139 -0.3134 -0.2358
 3999TIP3   OH236191   0.283   2.622  14.581 -0.2352  0.8115 -0.1694
 3999TIP3    H136192   0.350   2.687  14.559  0.1205  0.5425  0.1126
 3999TIP3    H236193   0.214   2.673  14.624  0.1361  0.9762  0.2481
 4000TIP3   OH236194   0.231   6.408  16.682 -0.4179  0.2546  0.2161
 4000TIP3    H136195   0.216   6.401  16.776 -0.0358  1.9776  0.4345
 4000TIP3    H236196   0.178   6.483  16.655  2.2798  2.1069 -0.2514
 4001TIP3   OH236197   3.560   4.276  14.064  0.1738  0.1698 -0.3689
 4001TIP3    H136198   3.477   4.261  14.018 -1.1092  0.0956  1.8203
 4001TIP3    H236199   3.610   4.196  14.050 -0.4223 -0.0842 -1.1367
 4002TIP3   OH236200   2.782   1.929  16.056 -0.4932 -0.2022 -0.1925
 4002TIP3    H136201   2.855   1.949  15.998 -0.5113  1.0692  0.1931
 4002TIP3    H236202   2.718   1.998  16.039 -0.6623 -0.0239  1.0480
 4003TIP3   OH236203   6.029   4.895  15.899 -0.3154 -0.2282 -0.6113
 4003TIP3    H136204   5.939   4.903  15.929 -0.3140 -0.8100 -0.4251
 4003TIP3    H236205   6.044   4.971  15.843 -1.2097 -0.5908 -1.3704
 4004TIP3   OH236206   0.702   1.575  16.388  0.0471 -0.1499 -0.3932
 4004TIP3    H136207   0.688   1.510  16.457  1.8140 -1.3715 -1.1051
 4004TIP3    H236208   0.624   1.630  16.390 -1.7222 -2.5270  0.0053
 4005TIP3   OH236209   0.611   3.694  15.121  0.5269  0.2018  0.2690
 4005TIP3    H136210   0.700   3.724  15.102  1.4677 -1.8534  1.1240
 4005TIP3    H236211   0.581   3.750  15.192  1.1842  0.8366  0.0508
 4006TIP3   OH236212   5.819   2.309  13.563  0.0516 -0.2266 -0.0635
 4006TIP3    H136213   5.744   2.272  13.610  1.5377 -0.3739  2.3532
 4006TIP3    H236214   5.874   2.234  13.543 -0.3305 -0.0991 -1.7031
 4007TIP3   OH236215   6.061   4.136  16.685  0.3502 -0.0256  0.1425
 4007TIP3    H136216   5.968   4.119  16.672  0.4582 -0.1003 -0.5192
 4007TIP3    H236217   6.100   4.049  16.694  0.1207  0.0308  2.1380
 4008TIP3   OH236218   0.655   1.701  15.302  0.3478  0.3178  0.4891
 4008TIP3    H136219   0.697   1.706  15.388  0.9923  0.0670  0.1963
 4008TIP3    H236220   0.670   1.788  15.264  1.0506  0.0770  0.1899
 4009TIP3   OH236221   3.340   5.993  15.622  0.0673  0.3580  0.1944
 4009TIP3    H136222   3.301   6.060  15.677 -0.5333 -1.5432  2.2097
 4009TIP3    H236223   3.274   5.976  15.554  0.0843  1.5073 -0.1343
 4010TIP3   OH236224   1.349   1.272  14.565 -0.0419 -0.0865  0.5306
 4010TIP3    H136225   1.267   1.274  14.516  0.9147 -1.9756 -1.3349
 4010TIP3    H236226   1.360   1.180  14.590  0.6834  0.4361  2.2654
 4011TIP3   OH236227   2.831   1.061  17.076  0.7515 -0.1381  0.3731
 4011TIP3    H136228   2.924   1.070  17.096  0.7002  1.2330  0.1171
 4011TIP3    H236229   2.805   0.979  17.118  2.2408 -0.9454 -0.2194
 4012TIP3   OH236230   2.359   4.587  16.201 -0.2410  0.2778 -0.5316
 4012TIP3    H136231   2.357   4.683  16.206  0.8033  0.2636  0.5814
 4012TIP3    H236232   2.294   4.558  16.264 -0.5399  0.2441 -0.8501
 4013TIP3   OH236233   4.137   3.544  14.008  0.2979  0.4101 -0.0026
 4013TIP3    H136234   4.224   3.558  14.046 -0.3948 -0.5435  2.1043
 4013TIP3    H236235   4.152   3.538  13.914  2.5532  0.0219  0.3313
 4014TIP3   OH236236   3.747   0.211  14.783 -0.3055 -0.1630 -0.2813
 4014TIP3    H136237   3.746   0.300  14.748  2.0429  0.4463  0.9524
 4014TIP3    H236238   3.700   0.217  14.866  1.5785  0.5097  0.8177
 4015TIP3   OH236239   2.086   2.760  14.596 -0.1257 -0.5285  0.2513
 4015TIP3    H136240   2.006   2.808  14.618  0.7343  0.5681  1.0629
 4015TIP3    H236241   2.110   2.791  14.509  0.4727  0.6245  0.8055
 4016TIP3   OH236242   5.861   1.394  16.614 -0.3801  0.0045  0.9793
 4016TIP3    H136243   5.837   1.426  16.527 -0.5589 -0.4598  0.8551
 4016TIP3    H236244   5.806   1.444  16.674  0.9112  1.5274  0.9587
 4017TIP3   OH236245   1.158   1.466  16.249  0.3293  0.0229  0.4567
 4017TIP3    H136246   1.211   1.416  16.186 -1.3173 -1.4731  0.1854
 4017TIP3    H236247   1.172   1.557  16.224  1.5612 -0.4173 -0.5792
 4018TIP3   OH236248   5.147   2.070  16.329  0.8765  0.0858  0.1793
 4018TIP3    H136249   5.218   2.026  16.283 -0.5799 -1.6891 -0.4752
 4018TIP3    H236250   5.178   2.079  16.419  1.2163 -2.4805  0.3922
 4019TIP3   OH236251   3.159   6.503  14.695 -0.1501  0.1859  0.7711
 4019TIP3    H136252   3.199   6.590  14.693  2.0534 -0.7449  1.0251
 4019TIP3    H236253   3.086   6.509  14.634  0.7071  1.8787 -0.1736
 4020TIP3   OH236254   2.725   0.775  14.792  0.6715 -0.3519  0.0081
 4020TIP3    H136255   2.680   0.753  14.874 -0.7427  0.4217 -0.5255
 4020TIP3    H236256   2.804   0.721  14.793  1.6983  0.9899  2.7722
 4021TIP3   OH236257   2.606   1.592  17.117 -0.1791  0.1750 -0.7095
 4021TIP3    H136258   2.645   1.539  17.187  2.0305  1.6228 -0.7571
 4021TIP3    H236259   2.587   1.529  17.047 -1.6426 -1.1675  0.8013
 4022TIP3   OH236260   5.782   3.869  16.190  0.0001  0.0185 -0.2507
 4022TIP3    H136261   5.856   3.826  16.149  0.0785  1.1207 -1.3103
 4022TIP3    H236262   5.771   3.950  16.141 -0.9281  0.6104  0.8904
 4023TIP3   OH236263   5.957   5.710  15.152  0.5460 -0.0961  0.3722
 4023TIP3    H136264   5.982   5.744  15.238  1.0470  0.2340  0.0994
 4023TIP3    H236265   5.923   5.787  15.105  1.0644 -0.1019 -0.0181
 4024TIP3   OH236266   5.479   4.671  16.941  0.3320  0.5917 -0.2273
 4024TIP3    H136267   5.553   4.727  16.962  0.1071  0.7798  0.0779
 4024TIP3    H236268   5.492   4.646  16.850  2.1119 -1.3953  0.4832
 4025TIP3   OH236269   0.079   2.027  14.780  0.2436 -0.0419  0.7652
 4025TIP3    H136270   0.116   2.028  14.868 -0.1299  2.1562  0.9551
 4025TIP3    H236271   0.137   2.084  14.728 -1.2552  1.2125  0.3968
 4026TIP3   OH236272   3.623   6.637  14.649  0.2649 -0.3322  0.1003
 4026TIP3    H136273   3.658   6.583  14.720  0.8395  0.5997  0.5519
 4026TIP3    H236274   3.684   6.624  14.576  1.7210  1.3939  0.9308
 4027TIP3   OH236275   2.154   2.914  14.915  0.2062  0.0032  0.5656
 4027TIP3    H136276   2.214   2.955  14.852 -0.3939 -0.5360 -0.3721
 4027TIP3    H236277   2.194   2.830  14.936 -0.0326 -0.1887  0.2432
 4028TIP3   OH236278   0.087   1.439  13.388 -0.3472  0.1467 -0.2794
 4028TIP3    H136279   0.033   1.516  13.409  1.0218  0.9537  0.3904
 4028TIP3    H236280   0.063   1.417  13.298 -2.9976 -0.5570  0.5190
 4029TIP3   OH236281   1.777   4.708  14.944  0.5332  0.1385  0.0397
 4029TIP3    H136282   1.696   4.699  14.894  0.2469  0.6522  0.4060
 4029TIP3    H236283   1.750   4.748  15.027  1.1633  0.3124  0.1665
 4030TIP3   OH236284   6.413   4.451  15.653  0.3246 -0.3536  0.2449
 4030TIP3    H136285   6.486   4.419  15.706  0.3996 -1.7702 -0.6494
 4030TIP3    H236286   6.338   4.451  15.712  0.7632 -0.1922  0.8144
 4031TIP3   OH236287   5.127   6.196  15.758 -0.2644  0.0109  0.2706
 4031TIP3    H136288   5.193   6.175  15.691 -0.4300  0.9533 -0.2111
 4031TIP3    H236289   5.087   6.112  15.780 -0.1695 -0.3261 -0.7891
 4032TIP3   OH236290   0.361   6.561  14.155 -0.4825  0.2159 -0.1346
 4032TIP3    H136291   0.405   6.483  14.189 -1.6626 -0.2639  0.3737
 4032TIP3    H236292   0.372   6.555  14.060  0.3930  0.0321 -0.0271
 4033TIP3   OH236293   2.949   1.218  13.333  0.0851 -0.0833 -0.0968
 4033TIP3    H136294   3.016   1.150  13.334 -0.6631 -0.8359  0.8263
 4033TIP3    H236295   2.993   1.296  13.366  0.6313 -0.4353  0.0141
 4034TIP3   OH236296   4.387   6.404  13.751  0.8757 -0.2116  0.0394
 4034TIP3    H136297   4.435   6.348  13.812  0.9708  0.1102  0.2652
 4034TIP3    H236298   4.437   6.485  13.749  0.9058 -0.2398 -0.5177
 4035TIP3   OH236299   6.475   1.173  13.851 -0.2507  0.2002  0.1392
 4035TIP3    H136300   6.496   1.144  13.763 -0.2721  0.4636  0.0468
 4035TIP3    H236301   6.381   1.155  13.861 -0.0167 -0.8827  0.5168
 4036TIP3   OH236302   5.177   0.209  16.312 -0.0024 -0.4146 -0.2724
 4036TIP3    H136303   5.128   0.136  16.274  1.2000 -2.2878  1.5648
 4036TIP3    H236304   5.129   0.231  16.392  0.4524 -0.1494 -0.0685
 4037TIP3   OH236305   3.637   5.350  16.170 -0.0331 -0.4261  0.3119
 4037TIP3    H136306   3.633   5.442  16.143  1.1165 -0.4375  0.0242
 4037TIP3    H236307   3.605   5.301  16.095 -0.4870 -0.2696  0.4020
 4038TIP3   OH236308   3.715   1.251  17.090 -0.1716  0.5288 -0.2873
 4038TIP3    H136309   3.736   1.276  17.001  1.5411 -0.2360 -0.1454
 4038TIP3    H236310   3.725   1.331  17.141 -3.0579  1.4477 -0.9869
 4039TIP3   OH236311   1.021   0.472  15.148  0.1341 -0.2198  0.4231
 4039TIP3    H136312   0.998   0.557  15.112 -0.5549 -0.3074  0.6370
 4039TIP3    H236313   1.109   0.453  15.114  0.1281  0.3964  0.0685
 4040TIP3   OH236314   4.721   6.080  16.844  0.3961 -0.2332 -0.0629
 4040TIP3    H136315   4.742   6.005  16.900  0.4432 -0.8021 -0.8237
 4040TIP3    H236316   4.634   6.061  16.809  0.7086 -0.3162 -0.8401
 4041TIP3   OH236317   1.229   1.151  15.538 -0.0313  0.3047  0.1803
 4041TIP3    H136318   1.308   1.111  15.576 -0.6741 -2.6332 -1.2813
 4041TIP3    H236319   1.253   1.167  15.446 -1.2726 -1.2249 -0.4449
 4042TIP3   OH236320   3.371   0.855  13.740 -0.0428  0.1831 -0.2194
 4042TIP3    H136321   3.391   0.862  13.834 -0.1491  1.7666 -0.2852
 4042TIP3    H236322   3.428   0.920  13.698 -3.3355  3.1457 -0.6576
 4043TIP3   OH236323   0.201   3.450  16.312  0.3375 -0.0535  0.7683
 4043TIP3    H136324   0.243   3.416  16.233  0.4829  0.3449  0.6727
 4043TIP3    H236325   0.256   3.523  16.339  0.4870 -0.4160  1.4465
 4044TIP3   OH236326   0.480   1.865  15.743  0.2971 -0.4232  0.7225
 4044TIP3    H136327   0.502   1.772  15.732 -1.0439 -0.7389  0.5850
 4044TIP3    H236328   0.555   1.901  15.791  1.5031 -1.2527 -0.4533
 4045TIP3   OH236329   6.438   0.294  15.176  0.2697 -0.3164  0.1076
 4045TIP3    H136330   6.453   0.372  15.123  1.4442 -0.3050  0.4308
 4045TIP3    H236331   6.517   0.241  15.166 -0.8080 -1.8523 -0.7073
 4046TIP3   OH236332   4.704   2.935  17.029  0.0957  0.6889  0.1793
 4046TIP3    H136333   4.756   2.876  17.084  0.4288  0.7675 -0.0501
 4046TIP3    H236334   4.746   2.931  16.943 -2.6727 -2.4990 -1.2743
 4047TIP3   OH236335   2.511   1.749  14.983 -0.6281  0.0694  0.3875
 4047TIP3    H136336   2.472   1.668  15.017 -0.3233  0.7860  2.5312
 4047TIP3    H236337   2.583   1.768  15.042  1.4564  0.1787 -2.0058
 4048TIP3   OH236338   0.669   5.427  15.675  0.5210 -0.3626  0.8321
 4048TIP3    H136339   0.757   5.464  15.687 -0.0300  1.0824  0.6580
 4048TIP3    H236340   0.622   5.452  15.754  0.2768 -1.2019  0.9590
 4049TIP3   OH236341   0.054   6.601  16.573  0.2277 -0.2774  0.1512
 4049TIP3    H136342   0.055   6.674  16.634 -0.2583 -1.3187  1.4625
 4049TIP3    H236343  -0.018   6.620  16.513  0.7300  0.7737 -0.1329
 4050TIP3   OH236344   3.286   5.735  14.785 -0.4912 -0.2802 -0.3179
 4050TIP3    H136345   3.271   5.642  14.770  1.2324 -0.9545  1.6494
 4050TIP3    H236346   3.277   5.745  14.880  2.8914  0.7739 -0.0018
 4051TIP3   OH236347   2.792   3.209  16.144  0.7684  0.5962 -0.3133
 4051TIP3    H136348   2.718   3.264  16.171  1.7160  1.9992 -0.4405
 4051TIP3    H236349   2.757   3.120  16.142 -0.9876  1.2493 -0.6211
 4052TIP3   OH236350   4.852   1.399  14.351 -0.5551 -0.0592  0.1838
 4052TIP3    H136351   4.938   1.396  14.393  0.0155  1.3650 -0.7967
 4052TIP3    H236352   4.796   1.447  14.412 -0.9573 -1.8218  1.2663
 4053TIP3   OH236353   4.686   5.103  14.159 -0.4995  0.1458  0.1075
 4053TIP3    H136354   4.763   5.051  14.183 -0.4083  0.1847 -0.0975
 4053TIP3    H236355   4.721   5.177  14.110 -0.7533 -0.4543 -1.0131
 4054TIP3   OH236356   4.547   6.468  14.222  0.0567 -0.0886 -0.1811
 4054TIP3    H136357   4.603   6.475  14.300 -1.2126  1.7975  0.6359
 4054TIP3    H236358   4.592   6.522  14.156 -0.9635  1.9064  0.6507
 4055TIP3   OH236359   0.002   2.562  13.751 -0.1957  0.4365  0.2051
 4055TIP3    H136360   0.019   2.501  13.680  0.9920  1.1358 -0.1432
 4055TIP3    H236361   0.071   2.628  13.743  0.8258 -0.1751  2.7924
 4056TIP3   OH236362   4.749   3.308  16.633  0.1219  0.4214 -0.3237
 4056TIP3    H136363   4.692   3.325  16.708 -2.1434 -1.1945 -1.5575
 4056TIP3    H236364   4.783   3.394  16.608 -0.5572  1.2329  1.3764
 4057TIP3   OH236365   0.403   3.371  15.829  0.3542 -0.4143 -0.0913
 4057TIP3    H136366   0.466   3.300  15.834 -1.5562 -2.1996 -0.0188
 4057TIP3    H236367   0.333   3.338  15.772 -2.2012 -0.0157  2.5295
 4058TIP3   OH236368   2.073   6.525  16.606 -0.9459 -0.0319  0.3987
 4058TIP3    H136369   2.144   6.585  16.582 -1.9273  0.7036 -0.7287
 4058TIP3    H236370   2.043   6.557  16.691  0.5915 -0.8736  1.3270
 4059TIP3   OH236371   3.773   0.953  14.350  0.3599 -0.3433 -0.1358
 4059TIP3    H136372   3.810   1.001  14.424 -3.8178  1.1141  1.2602
 4059TIP3    H236373   3.788   1.011  14.275 -0.2168  0.8581  0.6385
 4060TIP3   OH236374   2.380   5.066  16.376 -0.0332 -0.3208 -0.5711
 4060TIP3    H136375   2.352   5.153  16.405 -1.1597 -0.7151 -0.4232
 4060TIP3    H236376   2.474   5.065  16.391 -0.2293  0.3399  0.8956
 4061TIP3   OH236377   3.259   6.533  16.060 -0.3711 -0.0605 -0.1424
 4061TIP3    H136378   3.216   6.617  16.076 -1.2614 -0.4685 -0.3329
 4061TIP3    H236379   3.352   6.550  16.076 -0.5399  0.9592 -0.1923
 4062TIP3   OH236380   0.560   4.308  14.299 -0.3372  0.0838  0.1539
 4062TIP3    H136381   0.605   4.349  14.373 -0.6826  0.0003  0.4153
 4062TIP3    H236382   0.552   4.378  14.234 -0.1612  0.1971  0.2522
 4063TIP3   OH236383   2.464   4.454  15.172  0.2004 -0.0494  0.2106
 4063TIP3    H136384   2.445   4.410  15.088  2.9761 -0.5681 -0.2360
 4063TIP3    H236385   2.482   4.382  15.232  0.2518  0.3914  0.7244
 4064TIP3   OH236386   0.489   3.499  14.414 -0.1493  0.5111 -0.6937
 4064TIP3    H136387   0.426   3.428  14.419  0.1206  0.3605  1.2443
 4064TIP3    H236388   0.455   3.557  14.346 -0.5976 -1.2148 -2.0186
 4065TIP3   OH236389   1.823   4.346  16.778 -0.1230 -0.4814 -0.0946
 4065TIP3    H136390   1.772   4.421  16.748  0.0002 -0.7204 -0.9268
 4065TIP3    H236391   1.846   4.367  16.869  0.4037  0.7550 -0.4982
 4066TIP3   OH236392   1.572   6.249  15.012  0.2853  0.1271  0.0081
 4066TIP3    H136393   1.590   6.155  15.018  0.6203  0.1158 -0.9905
 4066TIP3    H236394   1.629   6.279  14.941 -1.0568  0.7755 -0.8216
 4067TIP3   OH236395   2.988   2.879  15.171  0.0984 -0.1527  0.4671
 4067TIP3    H136396   2.991   2.840  15.084 -1.1310  0.0676  0.3078
 4067TIP3    H236397   3.072   2.923  15.180 -0.4633  1.4263 -1.3725
 4068TIP3   OH236398   2.855   4.168  15.379 -0.0080 -0.2185 -0.4514
 4068TIP3    H136399   2.807   4.121  15.447  0.2161 -0.3596 -0.3913
 4068TIP3    H236400   2.826   4.259  15.387 -1.2242 -0.5172 -1.2339
 4069TIP3   OH236401   5.194   0.565  14.814 -0.2943 -0.2630  0.3238
 4069TIP3    H136402   5.273   0.530  14.773 -0.4501  1.1490 -1.3233
 4069TIP3    H236403   5.192   0.526  14.901  2.3308 -0.1904  0.4906
 4070TIP3   OH236404   0.272   4.557  14.202 -0.5745 -0.0294  0.4075
 4070TIP3    H136405   0.279   4.462  14.214 -0.4831 -0.0573  0.1384
 4070TIP3    H236406   0.275   4.569  14.107  3.7937  0.5550  0.4134
 4071TIP3   OH236407   0.714   4.444  14.500 -0.3668  0.6731  0.6870
 4071TIP3    H136408   0.794   4.454  14.552 -0.1372 -0.1583  0.5078
 4071TIP3    H236409   0.667   4.526  14.513  0.1203  0.8412  1.4674
 4072TIP3   OH236410   1.185   0.429  16.295  0.3322  0.2940  0.1648
 4072TIP3    H136411   1.207   0.452  16.205  0.7130 -1.3529 -0.1899
 4072TIP3    H236412   1.252   0.367  16.321 -0.4291 -0.1192  1.1964
 4073TIP3   OH236413   5.876   2.045  13.913 -0.2372 -0.7616 -0.2742
 4073TIP3    H136414   5.825   2.036  13.833 -0.4421  1.0133 -0.3811
 4073TIP3    H236415   5.965   2.065  13.882 -0.1702 -0.7262 -0.0592
 4074TIP3   OH236416   1.054   1.442  14.973 -0.0610  0.0185 -0.4194
 4074TIP3    H136417   1.116   1.460  15.043 -0.3512 -0.0737 -0.1359
 4074TIP3    H236418   1.105   1.451  14.892 -0.0736  1.6504 -0.2830
 4075TIP3   OH236419   0.054   1.793  15.232 -0.0862  0.2876  0.0838
 4075TIP3    H136420   0.115   1.726  15.262 -1.0239 -0.1586  1.0649
 4075TIP3    H236421  -0.003   1.748  15.170 -0.3289  0.3390  0.2709
 4076TIP3   OH236422   2.595   4.000  15.334 -0.7528 -0.1279  0.2645
 4076TIP3    H136423   2.555   3.970  15.416  0.6506  2.2697  1.9438
 4076TIP3    H236424   2.652   3.928  15.308 -1.6340 -1.1645  1.0549
 4077TIP3   OH236425   5.721   5.272  16.238 -0.6863  0.2771 -0.5984
 4077TIP3    H136426   5.634   5.296  16.272 -0.6322  0.0884 -0.3266
 4077TIP3    H236427   5.740   5.339  16.173 -1.8219 -0.6744 -1.9725
 4078TIP3   OH236428   0.079   1.829  15.543  0.2391  0.0891 -0.6750
 4078TIP3    H136429   0.146   1.784  15.493 -2.4180 -2.1192 -2.5357
 4078TIP3    H236430   0.096   1.922  15.528  2.8551 -0.3557 -0.9454
 4079TIP3   OH236431   5.697   0.260  16.345  0.1763 -0.0681 -0.6560
 4079TIP3    H136432   5.702   0.164  16.352 -0.7066 -0.0558  0.5621
 4079TIP3    H236433   5.639   0.286  16.417  0.0206  1.3482 -1.2605
 4080TIP3   OH236434   0.954   1.641  14.199 -0.0342  0.1629  0.4145
 4080TIP3    H136435   0.977   1.567  14.143  0.4730  0.8282 -0.2743
 4080TIP3    H236436   0.879   1.610  14.250  0.6112 -1.0575  0.6474
 4081TIP3   OH236437   4.562   1.383  15.694 -0.3028 -0.3790  0.0191
 4081TIP3    H136438   4.468   1.396  15.708 -0.2727 -0.5296  0.3857
 4081TIP3    H236439   4.570   1.366  15.600 -0.7167 -1.0002  0.0840
 4082TIP3   OH236440   0.315   6.007  16.838 -0.2592 -0.2260  0.2444
 4082TIP3    H136441   0.370   6.048  16.905 -0.5354 -1.4664  1.2598
 4082TIP3    H236442   0.367   6.012  16.758 -0.5447  2.6839  0.1374
 4083TIP3   OH236443   3.453   6.162  16.220  0.0604 -0.1668 -0.1229
 4083TIP3    H136444   3.455   6.209  16.304  1.0286 -0.5365  0.0683
 4083TIP3    H236445   3.538   6.180  16.181  0.8296 -2.4897  0.3603
 4084TIP3   OH236446   2.644   0.640  15.182 -0.1610 -0.3918  0.2636
 4084TIP3    H136447   2.657   0.731  15.156 -0.0775 -0.3515  0.4478
 4084TIP3    H236448   2.641   0.592  15.099  1.0525 -0.3874  0.1990
 4085TIP3   OH236449   4.585   0.553  14.880 -0.5157 -0.2126  0.4557
 4085TIP3    H136450   4.619   0.578  14.795 -0.2134 -1.8673  0.0559
 4085TIP3    H236451   4.662   0.529  14.932 -0.7341  0.3311  1.0519
 4086TIP3   OH236452   2.248   1.509  16.356 -0.8916 -0.0385 -0.3218
 4086TIP3    H136453   2.179   1.486  16.294 -0.2473  0.7565 -1.3472
 4086TIP3    H236454   2.271   1.599  16.335  0.6560 -0.3760 -0.1671
 4087TIP3   OH236455   6.129   2.831  14.559 -0.1244 -0.0795 -0.0470
 4087TIP3    H136456   6.135   2.746  14.603  0.9866  0.9555  1.8986
 4087TIP3    H236457   6.197   2.827  14.491 -0.1063 -0.7471 -0.0008
 4088TIP3   OH236458   6.272   3.425  15.186  0.3184 -0.0474  0.3150
 4088TIP3    H136459   6.227   3.499  15.146  0.3433 -0.6693 -0.9061
 4088TIP3    H236460   6.290   3.454  15.275  0.7761  1.6011 -0.2766
 4089TIP3   OH236461   5.828   0.473  15.448  0.4813  0.2518 -0.1397
 4089TIP3    H136462   5.916   0.502  15.472  0.0815  0.0195  1.7695
 4089TIP3    H236463   5.774   0.497  15.523 -0.3378 -3.1032  0.4786
 4090TIP3   OH236464   1.345   5.891  16.143 -0.0122  0.1693  0.5209
 4090TIP3    H136465   1.329   5.831  16.070  2.3698 -0.1232  0.1650
 4090TIP3    H236466   1.298   5.971  16.120 -1.0906 -0.6591 -0.2497
 4091TIP3   OH236467   0.389   0.925  16.058  0.6278 -0.2134  0.3061
 4091TIP3    H136468   0.458   0.966  16.006 -0.2999 -1.1414 -1.7509
 4091TIP3    H236469   0.324   0.994  16.072 -0.1316 -0.4568 -1.6957
 4092TIP3   OH236470   2.443   3.687  16.242  0.2989  0.0553  0.3037
 4092TIP3    H136471   2.505   3.618  16.266 -0.2982 -0.7632 -0.4169
 4092TIP3    H236472   2.469   3.713  16.153 -0.5431 -0.5173 -0.1347
 4093TIP3   OH236473   6.275   5.569  15.645  0.0446 -0.5432  0.4197
 4093TIP3    H136474   6.341   5.622  15.689 -1.0386  1.2985 -0.0773
 4093TIP3    H236475   6.193   5.594  15.686 -0.6416 -0.9681 -0.6441
 4094TIP3   OH236476   5.363   0.367  15.961  1.0050  0.2929 -0.8865
 4094TIP3    H136477   5.293   0.376  15.896 -0.4518  2.1989  0.7711
 4094TIP3    H236478   5.338   0.291  16.013  0.1747  0.8581 -0.4140
 4095TIP3   OH236479   3.686   4.115  13.745 -0.1742  0.1038  0.7192
 4095TIP3    H136480   3.590   4.108  13.742 -0.1442 -0.0547 -0.4682
 4095TIP3    H236481   3.709   4.093  13.835 -1.1157 -1.8108  0.5467
 4096TIP3   OH236482   2.078   4.048  15.877 -0.3689  0.1466  0.1020
 4096TIP3    H136483   2.089   4.072  15.785 -0.4460 -1.4893 -0.3538
 4096TIP3    H236484   2.100   4.128  15.925  0.3414  0.8273 -1.3003
 4097TIP3   OH236485   0.939   3.159  14.032 -0.4741  0.3671 -0.1830
 4097TIP3    H136486   1.016   3.199  14.072 -0.1105  0.2619 -0.7500
 4097TIP3    H236487   0.948   3.066  14.051  0.1673  0.1926 -1.2198
 4098TIP3   OH236488   1.554   4.470  15.146 -0.7916  0.0568  0.2627
 4098TIP3    H136489   1.607   4.549  15.141  0.7243 -0.8825  0.7905
 4098TIP3    H236490   1.464   4.501  15.150 -0.1718  1.7983  1.8043
 4099TIP3   OH236491   4.758   3.610  16.301  0.7720 -0.2595  0.4264
 4099TIP3    H136492   4.785   3.521  16.280 -0.1681 -0.7652  1.2560
 4099TIP3    H236493   4.662   3.605  16.305  0.7788  0.3525  2.2603
 4100TIP3   OH236494   0.183   2.919  14.345 -0.4546 -0.1303 -0.4667
 4100TIP3    H136495   0.224   2.907  14.431  0.1475  0.0477 -0.7251
 4100TIP3    H236496   0.090   2.905  14.361 -0.2780 -0.7116  0.0960
 4101TIP3   OH236497   0.717   6.293  13.238 -0.0362  0.0416  0.5168
 4101TIP3    H136498   0.649   6.230  13.213  0.7361 -0.5692 -0.0956
 4101TIP3    H236499   0.673   6.378  13.232 -1.0783 -0.4225  1.3069
 4102TIP3   OH236500   2.640   2.935  16.161  0.3159 -0.1898  0.2693
 4102TIP3    H136501   2.674   2.862  16.213 -1.0503 -1.0403  0.0130
 4102TIP3    H236502   2.546   2.933  16.175  0.1657  1.0133 -0.4169
 4103TIP3   OH236503   4.230   3.666  15.524 -0.4495 -0.7172  0.4362
 4103TIP3    H136504   4.213   3.733  15.591 -1.4381  0.0961 -0.6040
 4103TIP3    H236505   4.193   3.702  15.444  1.8258 -1.0991 -0.8806
 4104TIP3   OH236506   2.778   4.308  15.093 -0.1970  0.0212 -0.0810
 4104TIP3    H136507   2.864   4.345  15.112 -0.2261 -0.4173  0.9590
 4104TIP3    H236508   2.761   4.248  15.165 -2.6792  2.3095  1.4312
 4105TIP3   OH236509   6.171   3.900  16.627 -0.3513  0.6452 -0.1514
 4105TIP3    H136510   6.135   3.903  16.538  2.4241  1.4746 -1.3239
 4105TIP3    H236511   6.195   3.808  16.640 -5.5396 -0.8282  1.9963
 4106TIP3   OH236512   1.753   4.016  14.522 -0.0203 -0.8044 -0.5905
 4106TIP3    H136513   1.785   4.104  14.505  1.0857 -1.2628 -1.0045
 4106TIP3    H236514   1.831   3.967  14.551 -1.2789 -0.6497  3.8493
 4107TIP3   OH236515   2.463   4.501  16.569  0.3295  0.3269 -0.3756
 4107TIP3    H136516   2.414   4.419  16.576  0.5918  0.2863  1.8049
 4107TIP3    H236517   2.547   4.482  16.611  0.3049  1.7601  0.3809
 4108TIP3   OH236518   3.294   4.301  16.138  0.0308 -0.0990 -0.7663
 4108TIP3    H136519   3.351   4.327  16.065  0.1287  0.2235 -0.5763
 4108TIP3    H236520   3.206   4.301  16.100 -0.3624  3.1618 -0.1642
 4109TIP3   OH236521   3.861   5.877  15.898  0.0398  0.0464  0.2775
 4109TIP3    H136522   3.815   5.952  15.862  2.0083  1.5898  0.8347
 4109TIP3    H236523   3.844   5.806  15.836  0.4165  1.6737 -1.7666
 4110TIP3   OH236524   6.462   5.644  16.129  0.5834  0.0179 -0.2979
 4110TIP3    H136525   6.496   5.693  16.054 -0.4124 -0.1628 -0.8858
 4110TIP3    H236526   6.471   5.704  16.203  2.1464 -0.0309 -0.4301
 4111TIP3   OH236527   1.278   4.484  13.618 -0.0562 -0.0065 -0.7215
 4111TIP3    H136528   1.309   4.499  13.707  0.3145 -0.0906 -0.8357
 4111TIP3    H236529   1.345   4.429  13.578  1.0402  2.0178 -1.8111
 4112TIP3   OH236530   3.568   1.054  13.696 -0.3282  0.1339  0.0933
 4112TIP3    H136531   3.531   1.090  13.776 -0.5273  1.1421 -0.4364
 4112TIP3    H236532   3.640   1.113  13.674 -0.4181 -0.0008 -0.5932
 4113TIP3   OH236533   1.658   2.882  15.573  0.3045  0.1719  0.1673
 4113TIP3    H136534   1.644   2.820  15.500  1.3269  0.2250 -0.0949
 4113TIP3    H236535   1.729   2.842  15.624 -0.5701  0.0163  1.2860
 4114TIP3   OH236536   1.392   5.423  16.403 -0.2942  0.3883  0.1131
 4114TIP3    H136537   1.341   5.435  16.323 -0.8193  0.0220  0.3899
 4114TIP3    H236538   1.359   5.490  16.463 -0.3120  0.2820  0.2228
 4115TIP3   OH236539   3.132   2.905  14.776  0.3916  0.1287  0.5320
 4115TIP3    H136540   3.157   2.997  14.788  0.4732  0.0881  0.6639
 4115TIP3    H236541   3.213   2.861  14.752  0.0211  0.4436 -1.4869
 4116TIP3   OH236542   2.264   1.315  15.880 -0.6569  0.2117 -0.1401
 4116TIP3    H136543   2.187   1.272  15.844 -1.1394 -0.5219  1.6597
 4116TIP3    H236544   2.292   1.258  15.951 -0.5309  2.1946  1.4835
 4117TIP3   OH236545   5.425   0.200  16.456 -0.2084 -0.0985  0.0045
 4117TIP3    H136546   5.420   0.106  16.471 -0.7160 -0.0999 -0.1711
 4117TIP3    H236547   5.399   0.212  16.365 -0.6503  0.2560  0.1684
 4118TIP3   OH236548   3.802   1.519  16.936 -0.0314 -0.4838  0.1115
 4118TIP3    H136549   3.823   1.611  16.922 -1.2495 -0.0242  1.1755
 4118TIP3    H236550   3.848   1.473  16.865  0.2727  0.9682 -0.6641
 4119TIP3   OH236551   5.525   2.777  15.345  0.3160  0.0379 -0.1781
 4119TIP3    H136552   5.519   2.682  15.356  3.7527 -0.0355  2.8895
 4119TIP3    H236553   5.438   2.809  15.368 -0.3190 -2.2545  0.9498
 4120TIP3   OH236554   1.695   1.977  14.504 -0.1407  0.9718  0.6340
 4120TIP3    H136555   1.713   1.913  14.572  0.5504  1.6638  1.1231
 4120TIP3    H236556   1.600   1.972  14.491 -0.0141 -0.6911  0.0851
 4121TIP3   OH236557   5.133   6.428  15.907  0.9488 -0.3211  0.0232
 4121TIP3    H136558   5.119   6.364  15.837  0.4636 -2.6252  2.0558
 4121TIP3    H236559   5.189   6.495  15.868  0.5786 -1.4013 -2.5651
 4122TIP3   OH236560   0.284   1.971  13.351 -0.1845  0.1788  0.5567
 4122TIP3    H136561   0.197   1.952  13.317  0.3294  0.3228 -0.9198
 4122TIP3    H236562   0.337   1.896  13.323  0.1269 -0.0355  1.6706
 4123TIP3   OH236563   4.403   5.175  14.205  0.0489 -0.1770  0.8663
 4123TIP3    H136564   4.487   5.130  14.208 -0.2461 -0.6581  2.5383
 4123TIP3    H236565   4.377   5.170  14.113  0.9613 -1.6659  0.6586
 4124TIP3   OH236566   4.810   2.410  15.007  0.1301 -0.3645 -0.6136
 4124TIP3    H136567   4.866   2.384  14.933  1.0086 -1.9412  0.5463
 4124TIP3    H236568   4.819   2.505  15.011  2.2376 -0.5032 -0.8824
 4125TIP3   OH236569   2.371   4.184  16.133  0.4818  0.4541  0.3172
 4125TIP3    H136570   2.414   4.125  16.195  0.5936  0.7952  0.5683
 4125TIP3    H236571   2.435   4.253  16.116  1.4584 -0.9530 -2.1813
 4126TIP3   OH236572   2.110   0.875  16.612 -0.6665  0.1244  0.6494
 4126TIP3    H136573   2.149   0.960  16.591 -1.6350  1.0184  2.3352
 4126TIP3    H236574   2.037   0.867  16.550  0.2364 -0.1485 -0.4285
 4127TIP3   OH236575   0.206   1.752  16.242 -0.2548  0.4741  0.2197
 4127TIP3    H136576   0.262   1.827  16.220 -1.0657  0.6848 -1.2470
 4127TIP3    H236577   0.267   1.683  16.269  0.5507  1.4070  0.8555
 4128TIP3   OH236578   0.514   2.801  14.603  0.3711  0.2197  0.0355
 4128TIP3    H136579   0.546   2.872  14.547  1.4590 -0.1802  0.1406
 4128TIP3    H236580   0.591   2.770  14.650 -0.3037 -0.2834  0.8402
 4129TIP3   OH236581   2.586   1.872  14.044  0.3203  0.1276 -0.0839
 4129TIP3    H136582   2.548   1.788  14.069  1.3985 -0.6747 -1.0302
 4129TIP3    H236583   2.605   1.862  13.950  3.5586  0.1637  0.4580
 4130TIP3   OH236584   3.420   2.674  15.466 -0.4210 -0.7640 -0.1080
 4130TIP3    H136585   3.458   2.592  15.495  0.6682 -0.3715 -0.3763
 4130TIP3    H236586   3.425   2.732  15.542  0.8871 -0.2647 -0.5353
 4131TIP3   OH236587   2.605   0.133  15.690  0.3300 -0.0470 -0.1131
 4131TIP3    H136588   2.655   0.169  15.617  1.8581 -1.1828  0.3306
 4131TIP3    H236589   2.661   0.147  15.767 -0.5791 -0.2472  0.6013
 4132TIP3   OH236590   2.436   5.926  17.198  0.4821  0.1656 -0.2175
 4132TIP3    H136591   2.516   5.978  17.201  0.7160 -0.2209  0.2584
 4132TIP3    H236592   2.412   5.912  17.289  0.1277 -0.1171 -0.3507
 4133TIP3   OH236593   0.643   3.063  14.542 -0.1968  0.2678  0.4207
 4133TIP3    H136594   0.630   3.147  14.586  1.6983  1.0916 -0.4789
 4133TIP3    H236595   0.708   3.017  14.595  0.1975  0.1900 -0.1197
 4134TIP3   OH236596   6.358   4.586  15.048  0.0363 -0.1910  0.1907
 4134TIP3    H136597   6.397   4.671  15.034  0.7891 -0.2161  1.8686
 4134TIP3    H236598   6.296   4.599  15.120 -2.2827 -0.4039 -1.6212
 4135TIP3   OH236599   4.844   5.821  15.969  0.4019  0.1612 -0.2114
 4135TIP3    H136600   4.837   5.806  16.063 -0.1966  1.5125 -0.0222
 4135TIP3    H236601   4.757   5.801  15.934  0.8180 -1.0514 -0.6068
 4136TIP3   OH236602   3.427   4.563  16.546 -0.6856 -0.0047 -0.2998
 4136TIP3    H136603   3.403   4.470  16.538 -1.8447  0.1877  0.7621
 4136TIP3    H236604   3.477   4.568  16.627  1.4180 -0.0567 -1.5043
 4137TIP3   OH236605   1.491   6.468  13.794  0.2660  0.4211  0.6974
 4137TIP3    H136606   1.438   6.450  13.717  0.2214  0.4251  0.7259
 4137TIP3    H236607   1.519   6.382  13.825  0.6403  0.4480  0.4300
 4138TIP3   OH236608   4.129   3.361  14.356  0.6046  0.2002 -0.1798
 4138TIP3    H136609   4.177   3.299  14.411 -1.8380 -2.1792 -0.5163
 4138TIP3    H236610   4.041   3.364  14.394  0.1863  2.2537 -1.1611
 4139TIP3   OH236611   5.993   1.634  13.589 -0.0137  0.0339 -0.5030
 4139TIP3    H136612   6.087   1.643  13.573  0.1794 -0.0199  0.5317
 4139TIP3    H236613   5.966   1.559  13.536  0.9411 -1.2164  0.7275
 4140TIP3   OH236614   2.891   4.092  16.361  0.0374  0.2286 -0.5460
 4140TIP3    H136615   2.885   4.144  16.281 -2.5667  1.0048  0.0633
 4140TIP3    H236616   2.927   4.152  16.426 -1.5459  0.8628 -0.2168
 4141TIP3   OH236617   6.450   4.841  14.317  0.8395  0.3075  0.0534
 4141TIP3    H136618   6.369   4.871  14.277 -0.0818  0.8557  2.2043
 4141TIP3    H236619   6.515   4.845  14.246 -0.8113  0.6330 -1.4929
 4142TIP3   OH236620   5.159   1.194  15.813 -0.0056  0.1853  0.0035
 4142TIP3    H136621   5.203   1.279  15.810 -1.6008  1.0766  0.7724
 4142TIP3    H236622   5.172   1.158  15.725  1.3033  0.8765 -0.1191
 4143TIP3   OH236623   6.597   1.875  14.883 -0.1741  0.3983  0.2784
 4143TIP3    H136624   6.677   1.915  14.849 -0.3197 -0.1854 -0.8014
 4143TIP3    H236625   6.569   1.815  14.813 -2.4718  1.8138 -0.1057
 4144TIP3   OH236626   4.734   1.133  16.090 -0.0615 -0.3918  0.0370
 4144TIP3    H136627   4.755   1.103  16.179 -0.1546 -1.3271 -0.2474
 4144TIP3    H236628   4.819   1.156  16.052  0.4064 -3.0892 -0.7248
 4145TIP3   OH236629   4.745   1.089  14.310  0.0834 -0.0568  0.6715
 4145TIP3    H136630   4.817   1.125  14.258 -0.3610  0.5768  0.4813
 4145TIP3    H236631   4.690   1.164  14.330 -0.3251 -0.4733  1.1418
 4146TIP3   OH236632   4.221   3.266  16.924 -0.6955  0.2303 -0.1159
 4146TIP3    H136633   4.131   3.241  16.945 -0.6315  0.0906 -0.0099
 4146TIP3    H236634   4.268   3.183  16.915  0.0023  0.2746  2.3053
 4147TIP3   OH236635   0.004   2.486  15.539 -0.2907  0.5398  0.1059
 4147TIP3    H136636   0.029   2.556  15.599  2.7906 -1.4563  1.3742
 4147TIP3    H236637   0.053   2.504  15.459  1.2786 -0.5875  0.7688
 4148TIP3   OH236638   2.840   5.811  14.320 -0.2993 -0.6841 -0.1996
 4148TIP3    H136639   2.804   5.895  14.292 -0.8113 -1.2510 -1.2706
 4148TIP3    H236640   2.828   5.810  14.415  0.2749  0.7091 -0.0985
 4149TIP3   OH236641   6.057   6.569  17.137 -0.2183 -0.2106  0.4749
 4149TIP3    H136642   6.039   6.525  17.220  0.9386  1.6840  1.7963
 4149TIP3    H236643   6.016   6.655  17.146 -0.7673 -0.2500 -1.2670
 4150TIP3   OH236644   0.555   0.388  17.033  0.6316 -0.3732 -0.1483
 4150TIP3    H136645   0.579   0.337  16.955  1.4934 -0.8412  0.4041
 4150TIP3    H236646   0.513   0.324  17.091  1.0557 -0.3003  0.2445
 4151TIP3   OH236647   6.436   1.829  16.912  0.4358  0.0016  0.2885
 4151TIP3    H136648   6.348   1.859  16.894 -0.3543 -1.0308  2.1355
 4151TIP3    H236649   6.483   1.839  16.829 -0.7909  2.5647 -0.1719
 4152TIP3   OH236650   3.573   4.524  14.224 -0.1739 -0.2705 -0.2221
 4152TIP3    H136651   3.648   4.572  14.258 -0.1946 -0.9510  0.8333
 4152TIP3    H236652   3.610   4.444  14.186 -0.3775 -0.8826  0.8081
 4153TIP3   OH236653   2.604   0.927  16.381 -0.2860 -0.6652  0.4650
 4153TIP3    H136654   2.656   0.941  16.302  0.8467  0.1074  1.3150
 4153TIP3    H236655   2.533   0.991  16.374  0.9921  0.8806  1.0378
 4154TIP3   OH236656   1.194   3.162  14.197 -0.2098 -0.3846  0.1614
 4154TIP3    H136657   1.267   3.140  14.139 -0.7077  0.3733 -0.7965
 4154TIP3    H236658   1.179   3.255  14.181 -0.2096 -0.0891  1.7185
 4155TIP3   OH236659   3.071   0.246  16.787 -0.5518  0.1074 -0.9313
 4155TIP3    H136660   3.054   0.225  16.879 -2.0947  0.9443 -0.9943
 4155TIP3    H236661   2.984   0.264  16.751 -0.0402 -0.8244 -2.7218
 4156TIP3   OH236662   5.347   5.929  13.409  0.3278  0.1549  0.4065
 4156TIP3    H136663   5.309   5.991  13.347  1.1002 -1.6883 -2.0993
 4156TIP3    H236664   5.276   5.908  13.469 -0.4913  1.9683  0.1262
 4157TIP3   OH236665   4.041   3.903  17.269 -0.2343 -0.4539  0.1968
 4157TIP3    H136666   4.090   3.931  17.347 -0.7660  2.1412 -0.3203
 4157TIP3    H236667   4.108   3.869  17.210  0.9549  2.3518 -0.2133
 4158TIP3   OH236668   0.678   1.941  15.180  0.8896  0.0401  0.0104
 4158TIP3    H136669   0.657   1.985  15.098 -0.9323  1.0025  0.9232
 4158TIP3    H236670   0.762   1.977  15.207 -0.0047  2.1472  0.1287
 4159TIP3   OH236671   4.381   0.165  14.852  0.2761 -0.4256 -0.2388
 4159TIP3    H136672   4.290   0.169  14.824  0.0944 -0.8372  0.2882
 4159TIP3    H236673   4.413   0.082  14.818  0.8468  0.3154 -1.5742
 4160TIP3   OH236674   6.628   6.582  14.183  0.3334  0.0893  0.1355
 4160TIP3    H136675   6.606   6.647  14.250 -2.1002 -0.5949  0.0887
 4160TIP3    H236676   6.653   6.634  14.106  0.9557  0.9017  0.8618
 4161TIP3   OH236677   6.456   0.509  14.267  0.0992 -0.2619  0.2093
 4161TIP3    H136678   6.422   0.456  14.195  2.0381 -0.0334 -0.9524
 4161TIP3    H236679   6.378   0.544  14.310 -1.1382 -0.6686 -1.5856
 4162TIP3   OH236680   5.563   5.418  16.537 -0.1826 -0.2385 -0.2932
 4162TIP3    H136681   5.623   5.491  16.558 -2.2612  2.1296 -1.9663
 4162TIP3    H236682   5.577   5.355  16.607  3.0783  0.9009  0.2656
 4163TIP3   OH236683   4.237   6.286  16.884 -0.5620 -0.1457  0.0555
 4163TIP3    H136684   4.239   6.197  16.849 -0.4480 -0.7845  1.5955
 4163TIP3    H236685   4.168   6.285  16.950 -2.1202  1.5610 -1.4487
 4164TIP3   OH236686   4.378   4.358  15.143  0.2920 -0.0464  0.0770
 4164TIP3    H136687   4.440   4.290  15.171  1.1927  0.3620 -0.8647
 4164TIP3    H236688   4.332   4.319  15.069  0.1453  0.0344  0.1251
 4165TIP3   OH236689   4.641   2.165  15.759  0.2023  0.4045 -0.2211
 4165TIP3    H136690   4.713   2.103  15.763  0.6127  0.8954  0.2198
 4165TIP3    H236691   4.563   2.113  15.773  0.5512  0.0044  0.2676
 4166TIP3   OH236692   1.993   2.832  16.349  0.2799 -0.2372 -0.6394
 4166TIP3    H136693   2.015   2.773  16.278  0.6262  0.1081 -0.8219
 4166TIP3    H236694   2.064   2.896  16.351 -0.3888  0.5393 -0.8482
 4167TIP3   OH236695   0.762   4.852  15.510 -0.1993 -0.2182  0.1982
 4167TIP3    H136696   0.787   4.889  15.595 -0.0442 -1.7271  0.8254
 4167TIP3    H236697   0.678   4.894  15.490 -0.2901  0.0767  1.1412
 4168TIP3   OH236698   5.280   5.113  15.341 -0.1029 -0.3155 -0.2270
 4168TIP3    H136699   5.337   5.038  15.327 -2.4025 -1.9154 -1.7401
 4168TIP3    H236700   5.310   5.179  15.280  0.1517 -1.1291 -0.9893
 4169TIP3   OH236701   2.175   5.821  15.853  0.2900  0.1446 -0.4403
 4169TIP3    H136702   2.229   5.778  15.787  0.0740 -2.7209  1.0562
 4169TIP3    H236703   2.180   5.763  15.929 -2.8748  1.0423  0.6301
 4170TIP3   OH236704   0.460   4.322  16.288  0.0316 -0.0487  0.2000
 4170TIP3    H136705   0.374   4.357  16.311  0.2677 -0.3607  1.6460
 4170TIP3    H236706   0.441   4.249  16.229 -0.6796  0.0187  0.3343
 4171TIP3   OH236707   5.484   3.945  14.287 -0.2817 -0.6425  0.1316
 4171TIP3    H136708   5.466   4.010  14.219  0.3871 -1.4697 -0.8690
 4171TIP3    H236709   5.580   3.943  14.293 -0.1498 -2.9536 -1.3422
 4172TIP3   OH236710   1.556   3.192  14.523  0.3496 -0.1374  0.1981
 4172TIP3    H136711   1.645   3.163  14.506  1.2509  0.8459  2.8125
 4172TIP3    H236712   1.540   3.259  14.457  1.4845 -0.4330 -0.4028
 4173TIP3   OH236713   6.582   5.086  15.533  0.4525 -0.0676  0.6373
 4173TIP3    H136714   6.575   5.140  15.454  0.9907  0.1565  0.7373
 4173TIP3    H236715   6.669   5.047  15.528  0.2659 -0.5114  0.8328
 4174TIP3   OH236716   2.497   2.632  15.233 -0.0447  0.2554  1.0806
 4174TIP3    H136717   2.418   2.601  15.276  0.2077  0.1317  1.4618
 4174TIP3    H236718   2.480   2.724  15.215 -0.0595  0.3760  1.6789
 4175TIP3   OH236719   2.914   2.947  16.469 -0.8274  0.3207 -0.1274
 4175TIP3    H136720   2.986   2.931  16.530 -0.3112 -0.1896 -0.8537
 4175TIP3    H236721   2.957   2.973  16.388 -1.5501  2.0422  0.0125
 4176TIP3   OH236722   4.555   3.345  16.833 -0.4728  0.0162 -0.1822
 4176TIP3    H136723   4.556   3.367  16.926 -1.1805 -2.6177  0.5322
 4176TIP3    H236724   4.576   3.252  16.830  1.1924  0.3620 -2.8290
 4177TIP3   OH236725   4.729   1.348  13.943 -0.1256  0.5967  0.2538
 4177TIP3    H136726   4.636   1.350  13.920 -0.1851 -1.8294  0.0123
 4177TIP3    H236727   4.768   1.419  13.892 -1.6991  1.0141 -0.4082
 4178TIP3   OH236728   0.103   5.008  14.976  0.3027 -0.1092  0.0755
 4178TIP3    H136729   0.081   5.005  14.882  0.7870 -0.4287 -0.0303
 4178TIP3    H236730   0.095   5.101  14.999  3.4503  0.6119 -1.1078
 4179TIP3   OH236731   4.828   3.362  14.270  0.2317  0.4745 -0.0711
 4179TIP3    H136732   4.924   3.361  14.266  0.4974 -0.9919  3.4943
 4179TIP3    H236733   4.805   3.287  14.324 -2.9194  1.3165 -0.0587
 4180TIP3   OH236734   4.072   3.484  16.427 -0.2475 -0.0656  0.2660
 4180TIP3    H136735   4.162   3.467  16.455  0.1867  0.2987 -0.8439
 4180TIP3    H236736   4.049   3.567  16.467 -0.2343 -0.3555  0.8768
 4181TIP3   OH236737   1.399   4.423  14.366  0.6364  0.4773 -0.1634
 4181TIP3    H136738   1.342   4.449  14.294 -1.9149 -0.4307  1.3715
 4181TIP3    H236739   1.448   4.502  14.388  2.0687  0.5734 -3.2729
 4182TIP3   OH236740   3.510   1.981  14.839  0.0163  0.4045 -0.4196
 4182TIP3    H136741   3.547   2.058  14.795  1.5352 -0.3750 -0.5599
 4182TIP3    H236742   3.508   1.914  14.772  0.4062 -0.1923  0.1495
 4183TIP3   OH236743   6.325   1.219  16.316 -0.1339  0.1109 -0.2164
 4183TIP3    H136744   6.267   1.200  16.390 -2.9914  0.5672 -2.2165
 4183TIP3    H236745   6.369   1.300  16.340 -2.8173  1.5797  0.0656
 4184TIP3   OH236746   1.040   5.798  15.476  0.1558 -0.2405 -0.5243
 4184TIP3    H136747   1.064   5.778  15.566  0.2785 -0.0509 -0.5134
 4184TIP3    H236748   1.065   5.720  15.427 -0.7035 -0.6819 -0.2699
 4185TIP3   OH236749   2.760   4.747  14.147 -0.0370 -0.1480  0.0832
 4185TIP3    H136750   2.795   4.697  14.221 -0.4766 -0.8641 -0.1834
 4185TIP3    H236751   2.669   4.765  14.171 -0.6036 -1.5884 -0.8680
 4186TIP3   OH236752   4.278   5.195  14.463 -0.0877  0.0827  0.6802
 4186TIP3    H136753   4.207   5.248  14.427  0.2990 -0.0184 -0.2563
 4186TIP3    H236754   4.323   5.160  14.386  1.7434  1.1418  1.2144
 4187TIP3   OH236755   2.249   0.618  16.644 -0.1412  0.6123 -0.3029
 4187TIP3    H136756   2.213   0.600  16.557 -0.5743  0.6132 -0.1212
 4187TIP3    H236757   2.203   0.696  16.674  0.8536  1.3200 -0.5656
 4188TIP3   OH236758   4.182   4.685  14.044 -0.4242 -0.0739  0.0901
 4188TIP3    H136759   4.152   4.619  14.107 -2.3543 -0.2885 -0.9675
 4188TIP3    H236760   4.207   4.634  13.967  1.0456  0.2538  0.3162
 4189TIP3   OH236761   1.336   3.782  15.447 -0.6753 -1.0416 -0.1783
 4189TIP3    H136762   1.314   3.873  15.427 -0.3529 -1.1621 -1.1438
 4189TIP3    H236763   1.295   3.732  15.376 -0.9714 -1.6661  0.4233
 4190TIP3   OH236764   4.002   0.033  15.045  0.4289  0.0941 -0.1554
 4190TIP3    H136765   4.059  -0.034  15.082 -0.2614 -0.8896 -0.8057
 4190TIP3    H236766   4.016   0.026  14.950 -0.5651 -0.0018 -0.3110
 4191TIP3   OH236767   4.941   1.821  16.208  0.4383  0.4716 -0.1393
 4191TIP3    H136768   4.971   1.912  16.211 -0.5345  0.9019 -2.0109
 4191TIP3    H236769   4.910   1.809  16.119 -0.5852 -1.3425  0.4145
 4192TIP3   OH236770   0.249   2.140  14.284  0.0639 -1.1447 -0.0375
 4192TIP3    H136771   0.321   2.174  14.232 -1.6045  0.1284 -1.6509
 4192TIP3    H236772   0.284   2.061  14.326  2.5907 -0.1495 -0.0950
 4193TIP3   OH236773   4.280   6.272  14.858  0.5582 -0.4797  0.5377
 4193TIP3    H136774   4.277   6.182  14.891  0.2136 -0.1602  1.3884
 4193TIP3    H236775   4.370   6.301  14.874  0.4986 -0.4597  0.8374
 4194TIP3   OH236776   3.700   3.107  17.012 -0.1578  0.2532 -0.2643
 4194TIP3    H136777   3.700   3.058  16.930  0.3728  0.7121 -0.5374
 4194TIP3    H236778   3.635   3.061  17.067 -1.4249  0.6730 -1.3560
 4195TIP3   OH236779   5.045   2.324  15.487 -0.2704 -0.8132  0.3101
 4195TIP3    H136780   5.004   2.346  15.571  0.8193 -0.0942  0.6694
 4195TIP3    H236781   4.971   2.318  15.425 -1.0031 -0.5091  1.1341
 4196TIP3   OH236782   5.866   0.641  15.002  0.3158 -0.2925 -0.4271
 4196TIP3    H136783   5.928   0.575  15.033 -0.5496 -1.8684 -1.8591
 4196TIP3    H236784   5.869   0.632  14.906  0.6210  2.2134 -0.7182
 4197TIP3   OH236785   1.089   1.757  15.990  0.2652 -0.3971 -0.3260
 4197TIP3    H136786   1.012   1.701  16.003  1.3209 -1.8248 -0.1152
 4197TIP3    H236787   1.052   1.840  15.960 -1.3148 -1.3184 -1.0691
 4198TIP3   OH236788   2.064   0.890  13.811 -0.8266  0.1508 -0.4688
 4198TIP3    H136789   2.087   0.820  13.750 -0.1520  1.2988 -1.5761
 4198TIP3    H236790   2.147   0.920  13.846 -1.1282  0.2588  0.1753
 4199TIP3   OH236791   3.333   5.242  13.949  0.3570  0.1176 -0.0286
 4199TIP3    H136792   3.348   5.223  14.042  2.0207 -1.1246 -0.4872
 4199TIP3    H236793   3.418   5.223  13.908 -0.9548 -1.6810 -2.1225
 4200TIP3   OH236794   0.759   0.406  16.405 -0.0570 -0.5240 -0.2603
 4200TIP3    H136795   0.704   0.469  16.451 -0.1228  0.5149 -1.7032
 4200TIP3    H236796   0.848   0.426  16.433 -0.2580 -1.3231  1.0374
 4201TIP3   OH236797   2.628   3.651  16.996  0.3777  0.1178 -0.3057
 4201TIP3    H136798   2.703   3.697  16.958 -0.0484  0.5484 -0.6445
 4201TIP3    H236799   2.659   3.562  17.011  1.3816  0.6384  0.8510
 4202TIP3   OH236800   2.288   4.689  17.015  0.0823 -0.8707 -0.3173
 4202TIP3    H136801   2.383   4.695  17.001  0.0074 -1.9493 -1.4640
 4202TIP3    H236802   2.274   4.600  17.046 -0.4804 -0.4349  0.7294
 4203TIP3   OH236803   1.738   5.541  14.603  0.0682  0.7352 -0.6035
 4203TIP3    H136804   1.783   5.625  14.602 -0.3522  0.9748 -2.5443
 4203TIP3    H236805   1.657   5.558  14.651  0.5556  1.0967  0.1133
 4204TIP3   OH236806   0.476   2.730  15.150  0.2845 -0.3444  0.1925
 4204TIP3    H136807   0.502   2.643  15.119  0.6699 -0.9097  1.9757
 4204TIP3    H236808   0.439   2.714  15.237 -1.6014  1.0394 -0.2910
 4205TIP3   OH236809   0.639   6.130  16.113 -0.1691  0.4720  0.9960
 4205TIP3    H136810   0.550   6.165  16.121 -1.1088 -1.1169 -1.3937
 4205TIP3    H236811   0.680   6.186  16.047  0.1125  0.2637  0.9963
 4206TIP3   OH236812   1.672   0.873  15.920 -0.7414 -0.6902 -0.3318
 4206TIP3    H136813   1.654   0.859  15.827  0.1822 -2.8767 -0.2489
 4206TIP3    H236814   1.667   0.786  15.959 -1.5852  0.2367  1.7875
 4207TIP3   OH236815   6.695   6.511  14.494 -0.0964  0.1770  0.4224
 4207TIP3    H136816   6.748   6.457  14.553 -0.4139  0.5862  1.0943
 4207TIP3    H236817   6.741   6.595  14.491  1.2566 -0.5457 -1.8333
 4208TIP3   OH236818   3.293   3.300  14.366  0.3040  0.1575  0.2260
 4208TIP3    H136819   3.314   3.213  14.331  1.4158  0.2750  0.5392
 4208TIP3    H236820   3.342   3.360  14.310 -1.7741  0.7500 -1.0546
 4209TIP3   OH236821   2.313   1.372  14.962  0.3388 -0.2536 -0.9404
 4209TIP3    H136822   2.375   1.423  15.014 -0.2509 -0.6037  0.1489
 4209TIP3    H236823   2.277   1.435  14.899 -0.0751  0.5887  0.1050
 4210TIP3   OH236824   3.577   4.628  15.269 -0.0988  0.0493  0.6486
 4210TIP3    H136825   3.620   4.714  15.269 -0.0006  0.0341 -1.0563
 4210TIP3    H236826   3.594   4.593  15.357 -0.1511  1.7634  1.3771
 4211TIP3   OH236827   0.134   3.883  14.729 -0.1087  0.1764 -0.1396
 4211TIP3    H136828   0.088   3.939  14.791  0.3202 -0.5137  0.8302
 4211TIP3    H236829   0.146   3.937  14.651 -0.5405  1.1047  0.4296
 4212TIP3   OH236830   5.128   5.794  14.345  0.4610 -0.8195  0.2833
 4212TIP3    H136831   5.175   5.854  14.404  0.3883 -0.6441  0.1638
 4212TIP3    H236832   5.177   5.712  14.350  1.2087 -0.4292 -0.3848
 4213TIP3   OH236833   2.597   3.413  14.712 -0.4807  0.1241  0.3876
 4213TIP3    H136834   2.526   3.349  14.711  0.2089 -0.6843  1.5903
 4213TIP3    H236835   2.676   3.362  14.729  0.3133  1.1034 -0.2010
 4214TIP3   OH236836   2.744   4.803  16.330 -0.0097 -0.1076  0.3997
 4214TIP3    H136837   2.659   4.766  16.353  0.1850 -0.4317  0.6144
 4214TIP3    H236838   2.788   4.816  16.415 -0.7157  2.2146  0.4705
 4215TIP3   OH236839   4.732   1.595  17.137 -0.1567  0.1344  0.1361
 4215TIP3    H136840   4.671   1.618  17.068  0.1169  0.1972 -0.0883
 4215TIP3    H236841   4.720   1.501  17.150  0.0435  0.0543 -0.2469
 4216TIP3   OH236842   0.902   0.136  13.594 -0.5917 -0.1025 -0.2098
 4216TIP3    H136843   0.809   0.116  13.603 -0.4399 -0.0196  2.0215
 4216TIP3    H236844   0.906   0.209  13.533 -1.8940 -0.6994 -1.0476
 4217TIP3   OH236845   6.496   3.090  14.567  0.2092  0.1754  0.5328
 4217TIP3    H136846   6.557   3.038  14.619 -0.1647  0.0604  0.8625
 4217TIP3    H236847   6.409   3.070  14.603  0.0556  1.0350  0.6815
 4218TIP3   OH236848   0.883   0.990  16.704  0.4000  0.1341  0.4877
 4218TIP3    H136849   0.907   0.917  16.760  1.4301 -0.0251 -0.1316
 4218TIP3    H236850   0.959   1.002  16.646  0.1117  1.4590  0.3485
 4219TIP3   OH236851   4.245   1.165  16.970 -0.2665  0.5480 -0.0097
 4219TIP3    H136852   4.257   1.259  16.981 -0.8654  0.3994  2.3651
 4219TIP3    H236853   4.327   1.127  16.998  0.3057  0.3378 -1.8136
 4220TIP3   OH236854   4.066   4.864  14.436 -0.1459 -0.4454 -0.3291
 4220TIP3    H136855   4.004   4.924  14.478  1.3189  0.5708  0.4513
 4220TIP3    H236856   4.091   4.804  14.506  0.1601 -0.5157 -0.5027
 4221TIP3   OH236857   6.683   0.995  16.837 -0.0266 -0.1201  0.1508
 4221TIP3    H136858   6.606   1.026  16.789  0.6136  0.6779 -0.4075
 4221TIP3    H236859   6.668   0.902  16.850 -2.1206  0.4165  2.0459
 4222TIP3   OH236860   4.494   1.967  15.559  0.2446  0.0804  0.2330
 4222TIP3    H136861   4.521   1.948  15.469 -0.5369  0.5802 -0.1262
 4222TIP3    H236862   4.398   1.966  15.555  0.2015 -0.5709  1.2177
 4223TIP3   OH236863   6.269   3.852  14.717 -0.0755 -0.4115 -0.2990
 4223TIP3    H136864   6.358   3.860  14.752 -0.2771 -0.7690  0.3093
 4223TIP3    H236865   6.279   3.868  14.623  0.5101  0.3316 -0.1212
 4224TIP3   OH236866   2.938   5.822  13.868 -0.1754  0.2728 -0.8111
 4224TIP3    H136867   2.915   5.821  13.775  0.3956 -0.9297 -0.9622
 4224TIP3    H236868   2.868   5.773  13.911  0.3876 -0.5720 -0.8363
 4225TIP3   OH236869   1.889   6.694  16.038  0.0224  0.2337 -0.0179
 4225TIP3    H136870   1.938   6.718  16.117  0.9513 -2.4997  0.3547
 4225TIP3    H236871   1.806   6.741  16.046 -0.2567 -0.5720  3.0688
 4226TIP3   OH236872   3.544   1.366  14.869  0.0626 -0.6631  0.1290
 4226TIP3    H136873   3.595   1.393  14.945  1.6573  1.4347 -1.5394
 4226TIP3    H236874   3.460   1.411  14.879  0.0293 -0.9064  0.9562
 4227TIP3   OH236875   2.611   5.578  15.526 -0.1781  0.2643  0.1254
 4227TIP3    H136876   2.612   5.496  15.478 -2.1220 -1.1453  2.2792
 4227TIP3    H236877   2.532   5.623  15.495 -0.8946 -0.2057  1.1969
 4228TIP3   OH236878   2.320   2.913  15.247  0.1822  0.0262 -0.3086
 4228TIP3    H136879   2.252   2.848  15.227 -0.3793  0.2281  0.8747
 4228TIP3    H236880   2.275   2.997  15.242  0.8424  0.3365 -1.5478
 4229TIP3   OH236881   6.235   3.066  14.660 -0.6838 -0.3363 -0.1700
 4229TIP3    H136882   6.179   3.053  14.737  0.0850 -0.6867  0.3373
 4229TIP3    H236883   6.195   3.012  14.592 -0.4236 -1.3673  0.4694
 4230TIP3   OH236884   4.546   4.013  16.108 -0.3471  1.0372 -0.4672
 4230TIP3    H136885   4.620   4.063  16.144 -0.4150  1.4831 -0.9471
 4230TIP3    H236886   4.513   4.066  16.037 -0.4710  0.3388 -0.9427
 4231TIP3   OH236887   1.055   4.439  15.620 -0.1660  0.4636  0.0726
 4231TIP3    H136888   1.112   4.501  15.665 -0.5161  2.2757 -1.8128
 4231TIP3    H236889   1.102   4.418  15.539 -0.6195 -0.7937  0.1210
 4232TIP3   OH236890   5.829   6.180  16.259 -0.2511  0.0092  0.7134
 4232TIP3    H136891   5.920   6.161  16.284  0.0726 -0.4459 -0.7323
 4232TIP3    H236892   5.813   6.267  16.294  0.6578 -0.0097  1.2139
 4233TIP3   OH236893   3.559   2.018  16.967 -0.0794  0.2313 -0.0430
 4233TIP3    H136894   3.640   2.046  17.009  0.6342 -2.2674  0.3976
 4233TIP3    H236895   3.508   1.977  17.038  0.4473 -2.5896 -1.1574
 4234TIP3   OH236896   0.996   3.450  15.017  0.3586 -0.0016 -0.2101
 4234TIP3    H136897   0.980   3.376  14.958  1.3376 -0.3840 -0.0218
 4234TIP3    H236898   1.090   3.468  15.007  0.5159  0.0185  1.1326
 4235TIP3   OH236899   3.647   1.803  15.548 -0.4985 -0.3894  0.9902
 4235TIP3    H136900   3.690   1.794  15.633 -0.9005 -2.8308  0.9920
 4235TIP3    H236901   3.694   1.743  15.491  0.5829  2.1157 -0.9426
 4236TIP3   OH236902   0.515   1.579  15.744  0.6625 -0.0960 -0.2650
 4236TIP3    H136903   0.474   1.495  15.729  0.1767  0.0367  0.2658
 4236TIP3    H236904   0.512   1.590  15.839 -0.9894  1.3473 -0.4312
 4237TIP3   OH236905   1.613   6.473  14.706 -0.1487  0.4750 -0.1733
 4237TIP3    H136906   1.683   6.425  14.752  0.0512  1.2845  0.3902
 4237TIP3    H236907   1.617   6.561  14.743 -1.9322  0.3567  0.3932
 4238TIP3   OH236908   3.557   0.825  14.718  0.6444 -0.0058 -0.3961
 4238TIP3    H136909   3.561   0.751  14.778 -0.2587 -0.3771 -0.7659
 4238TIP3    H236910   3.470   0.863  14.732  2.0149  2.6611  1.6879
 4239TIP3   OH236911   4.009   3.554  15.306  0.3248  0.2355 -0.0086
 4239TIP3    H136912   4.052   3.623  15.253  0.9001 -1.0995 -1.3746
 4239TIP3    H236913   4.082   3.498  15.335 -0.3415 -1.8116 -1.9731
 4240TIP3   OH236914   3.617   2.269  15.346  0.0574  0.6391 -0.0770
 4240TIP3    H136915   3.627   2.312  15.261 -1.5083  0.7966 -0.2018
 4240TIP3    H236916   3.643   2.178  15.329 -0.6746  0.5591 -0.8476
 4241TIP3   OH236917   2.575   3.768  15.980 -0.2054  0.3120  0.5145
 4241TIP3    H136918   2.627   3.843  16.006 -0.1913  1.2306 -1.9128
 4241TIP3    H236919   2.498   3.805  15.938 -0.6971 -1.0335  0.1606
 4242TIP3   OH236920   0.839   0.778  14.327 -0.0552 -0.2520 -0.2994
 4242TIP3    H136921   0.879   0.836  14.262  0.7536  0.3426  0.6996
 4242TIP3    H236922   0.859   0.690  14.295  1.8084  0.0236 -0.0169
 4243TIP3   OH236923   2.717   2.937  14.065  0.3789 -0.2732 -0.2979
 4243TIP3    H136924   2.673   2.991  13.999 -2.4655  0.1324  1.7648
 4243TIP3    H236925   2.790   2.897  14.018  1.1611  3.3464 -2.5659
 4244TIP3   OH236926   6.492   6.311  13.775 -0.1863 -0.1452  0.5980
 4244TIP3    H136927   6.464   6.372  13.707 -3.6218 -0.6959  1.3251
 4244TIP3    H236928   6.422   6.314  13.840 -0.5220 -4.6559  0.7565
 4245TIP3   OH236929   3.220   6.546  15.158 -0.1751  0.2554 -0.3059
 4245TIP3    H136930   3.210   6.508  15.245  1.0072 -0.9892 -0.6704
 4245TIP3    H236931   3.308   6.584  15.158 -0.3403  0.6501 -0.8065
 4246TIP3   OH236932   3.017   3.617  13.872  0.5274  0.2087 -0.3096
 4246TIP3    H136933   3.042   3.571  13.792  1.7952 -0.2553  0.3271
 4246TIP3    H236934   3.067   3.699  13.869  0.2290  0.3958 -0.2076
 4247TIP3   OH236935   4.985   2.674  15.719 -0.5706  0.3602  0.0058
 4247TIP3    H136936   5.061   2.671  15.778 -0.1957 -0.5683 -0.4940
 4247TIP3    H236937   4.923   2.612  15.756 -0.5303  0.1320 -0.2965
 4248TIP3   OH236938   3.565   4.934  14.633  0.3576  0.2021  0.3149
 4248TIP3    H136939   3.498   4.866  14.637 -0.7087  1.0620 -1.5465
 4248TIP3    H236940   3.576   4.963  14.724 -0.3511 -1.3025  0.9070
 4249TIP3   OH236941   2.816   1.728  14.833 -0.2518 -0.5202  0.6691
 4249TIP3    H136942   2.888   1.666  14.840  0.2467  0.1474  1.6742
 4249TIP3    H236943   2.738   1.673  14.822  0.3390 -1.2636  0.0906
 4250TIP3   OH236944   2.403   5.699  15.743 -0.3359 -0.1917  0.0249
 4250TIP3    H136945   2.458   5.755  15.799 -0.5632 -1.3558  1.4946
 4250TIP3    H236946   2.462   5.667  15.675  0.4684 -0.2969  0.7563
 4251TIP3   OH236947   1.443   0.099  15.828 -0.3926 -0.2426 -0.0416
 4251TIP3    H136948   1.380   0.109  15.899  0.8909 -0.6649  1.1877
 4251TIP3    H236949   1.426   0.011  15.793 -0.9019 -0.1050 -0.1441
 4252TIP3   OH236950   2.745   1.416  15.883 -0.4334 -0.1942 -0.1749
 4252TIP3    H136951   2.748   1.440  15.976 -1.5788  0.9467 -0.4093
 4252TIP3    H236952   2.660   1.449  15.853 -1.0977 -2.5402 -1.0962
 4253TIP3   OH236953   4.511   1.588  16.541 -0.2476  0.4762  0.4768
 4253TIP3    H136954   4.443   1.574  16.475 -1.3300 -1.2126  1.8399
 4253TIP3    H236955   4.592   1.594  16.491 -1.1728  0.7025 -1.0861
 4254TIP3   OH236956   4.146   1.553  14.364 -0.6582  0.0031 -0.6563
 4254TIP3    H136957   4.234   1.540  14.330 -0.4870  0.6291 -0.4675
 4254TIP3    H236958   4.108   1.465  14.366  1.1299 -0.8509  2.4917
 4255TIP3   OH236959   2.177   0.898  14.603  0.5531 -0.3614 -0.0876
 4255TIP3    H136960   2.226   0.919  14.682 -0.2516  0.8316  0.1115
 4255TIP3    H236961   2.244   0.871  14.540  1.4829  1.2852  0.1558
 4256TIP3   OH236962   2.771   2.148  14.591 -0.0291  0.0192  0.0292
 4256TIP3    H136963   2.803   2.085  14.655  0.2007  0.4965  0.3856
 4256TIP3    H236964   2.735   2.094  14.520 -0.8193 -0.5134  0.8183
 4257TIP3   OH236965   5.400   3.471  14.014  0.0909 -0.0430 -0.5881
 4257TIP3    H136966   5.418   3.559  14.047 -1.0339  0.3262 -0.9071
 4257TIP3    H236967   5.485   3.427  14.015  0.4668  0.6740  0.6419
 4258TIP3   OH236968   0.937   6.209  16.906 -0.1539 -0.2713 -0.6098
 4258TIP3    H136969   0.923   6.297  16.941  0.0962  0.2330 -1.7290
 4258TIP3    H236970   1.012   6.175  16.954 -0.9805 -0.3585  0.6683
 4259TIP3   OH236971   6.075   2.440  13.763  0.1178  0.0597 -0.4100
 4259TIP3    H136972   6.089   2.504  13.693 -1.6818  1.1068  0.0957
 4259TIP3    H236973   6.079   2.492  13.844  1.2583 -0.9645  0.2185
 4260TIP3   OH236974   2.759   6.518  16.303  0.5428  0.2369 -0.4091
 4260TIP3    H136975   2.724   6.567  16.228  0.8168  0.9952 -0.0527
 4260TIP3    H236976   2.843   6.560  16.321  1.2907 -1.0572 -0.7598
 4261TIP3   OH236977   6.644   0.133  14.354 -0.6786 -0.0678  0.0151
 4261TIP3    H136978   6.669   0.203  14.294 -1.9039 -0.2586 -0.7647
 4261TIP3    H236979   6.727   0.098  14.387 -0.0351  2.2676  1.0721
 4262TIP3   OH236980   6.091   4.040  13.794 -0.3633  0.5876  0.3994
 4262TIP3    H136981   6.152   4.107  13.825 -1.1633  0.8415  1.4877
 4262TIP3    H236982   6.009   4.058  13.841 -2.0588  1.7010 -2.6564
 4263TIP3   OH236983   3.839   5.890  14.913  0.0502 -0.6696  0.4273
 4263TIP3    H136984   3.860   5.890  14.819 -1.5307 -0.3385  0.0319
 4263TIP3    H236985   3.843   5.982  14.938  0.5005 -0.7611  0.6994
 4264TIP3   OH236986   6.642   5.214  15.310  0.8430 -0.4410  0.1559
 4264TIP3    H136987   6.631   5.302  15.275 -0.3346 -0.5101  0.2942
 4264TIP3    H236988   6.736   5.200  15.313  1.0602  1.0019  0.5860
 4265TIP3   OH236989   3.168   4.002  16.556  0.1558  0.0731 -0.9943
 4265TIP3    H136990   3.259   3.978  16.571  0.0653  0.4434  0.3199
 4265TIP3    H236991   3.118   3.934  16.601 -0.1841  0.5570 -0.6348
 4266TIP3   OH236992   2.895   2.114  14.249  0.4462  0.4307  0.1501
 4266TIP3    H136993   2.801   2.123  14.234  0.5329  2.0116  0.3228
 4266TIP3    H236994   2.928   2.067  14.173 -0.3183  0.8964 -0.4831
 4267TIP3   OH236995   5.891   6.398  14.060 -0.3047 -0.6046 -0.3065
 4267TIP3    H136996   5.883   6.371  13.968  2.0376  0.0833 -0.7898
 4267TIP3    H236997   5.864   6.490  14.060 -1.5755 -0.9653 -0.0253
 4268TIP3   OH236998   5.463   5.372  16.275  0.7447 -0.6415  0.3378
 4268TIP3    H136999   5.476   5.376  16.370 -1.7198 -2.7952  0.8866
 4268TIP3    H237000   5.421   5.455  16.252  2.3225  0.3512  0.8904
 4269TIP3   OH237001   6.326   5.240  16.953 -0.4489 -0.2865 -0.3363
 4269TIP3    H137002   6.382   5.245  17.030 -1.4193  0.4516  0.3436
 4269TIP3    H237003   6.348   5.155  16.913 -0.7338 -1.2145  1.3912
 4270TIP3   OH237004   2.152   0.810  16.091 -0.0212  0.2307  0.1469
 4270TIP3    H137005   2.063   0.843  16.097 -1.6132 -2.8977 -2.7684
 4270TIP3    H237006   2.192   0.861  16.020 -0.7926 -0.6879 -0.9897
 4271TIP3   OH237007   3.972   1.407  16.183 -0.0177 -0.7409 -0.1753
 4271TIP3    H137008   3.966   1.501  16.200  0.8070 -0.4736 -1.2659
 4271TIP3    H237009   3.963   1.367  16.269  0.5876  0.3792  0.4321
 4272TIP3   OH237010   3.990   2.915  16.875 -0.4794 -0.0922 -0.1853
 4272TIP3    H137011   3.996   2.883  16.965 -1.1914  0.1138 -0.0529
 4272TIP3    H237012   4.073   2.960  16.860 -0.8292  0.9676  0.8113
 4273TIP3   OH237013   0.622   0.809  17.021 -0.0874  0.1696  0.1606
 4273TIP3    H137014   0.663   0.770  16.944 -0.5601 -1.1288  0.5442
 4273TIP3    H237015   0.543   0.757  17.035  0.7016 -0.5726  2.3348
 4274TIP3   OH237016   0.790   5.304  16.345 -0.5332 -0.3673 -0.4624
 4274TIP3    H137017   0.821   5.395  16.339  1.0540 -0.8603  0.0219
 4274TIP3    H237018   0.742   5.301  16.428 -0.3738 -0.0361 -0.3541
 4275TIP3   OH237019   1.557   1.621  13.823 -0.4645 -0.0453 -0.3378
 4275TIP3    H137020   1.519   1.669  13.749 -0.0150  0.1048 -0.4769
 4275TIP3    H237021   1.651   1.617  13.803 -0.1157  1.2054  0.9024
 4276TIP3   OH237022   1.897   1.176  15.040  0.5105 -0.0879  0.1924
 4276TIP3    H137023   1.961   1.173  14.969 -0.4922 -1.5884 -0.7256
 4276TIP3    H237024   1.866   1.086  15.048 -0.7574  0.4035  1.2685
 4277TIP3   OH237025   5.715   6.227  13.517  0.0367  0.1926  0.0121
 4277TIP3    H137026   5.700   6.150  13.463 -0.8457  1.0073 -0.9685
 4277TIP3    H237027   5.627   6.260  13.536  0.4127  1.8147 -0.8958
 4278TIP3   OH237028   3.463   5.013  14.892 -0.0395 -0.6572  0.2792
 4278TIP3    H137029   3.460   4.957  14.970  0.4572 -0.5489  0.3759
 4278TIP3    H237030   3.439   5.100  14.923 -0.0271 -0.6523  0.2747
 4279TIP3   OH237031   4.544   4.462  16.564 -0.2620  0.6118 -0.3788
 4279TIP3    H137032   4.602   4.387  16.571  0.2943  1.1532  1.1389
 4279TIP3    H237033   4.494   4.446  16.484 -0.8085 -1.8036  0.3607
 4280TIP3   OH237034   1.712   5.575  16.147  0.2783 -0.3416  0.0320
 4280TIP3    H137035   1.674   5.650  16.193 -0.4843 -0.3518 -0.5764
 4280TIP3    H237036   1.788   5.611  16.101 -2.1947  0.9820 -3.4107
 4281TIP3   OH237037   5.420   6.072  16.743 -0.1842 -0.5179  0.1748
 4281TIP3    H137038   5.378   5.989  16.722  0.7752 -0.1552 -4.0699
 4281TIP3    H237039   5.384   6.134  16.679  1.0840  1.7112  1.4874
 4282TIP3   OH237040   2.581   4.062  15.882 -0.2925  0.1007 -0.3614
 4282TIP3    H137041   2.527   4.117  15.939 -1.8846 -1.8221  0.1025
 4282TIP3    H237042   2.655   4.036  15.936  1.2537  2.7437 -0.9955
 4283TIP3   OH237043   6.223   3.628  16.585 -0.2261 -0.3832 -0.3109
 4283TIP3    H137044   6.296   3.581  16.544  0.4156 -0.4374  0.8501
 4283TIP3    H237045   6.145   3.582  16.554  0.4004 -2.5620  1.1660
 4284TIP3   OH237046   6.584   0.193  17.196  0.6100  0.3895  0.2798
 4284TIP3    H137047   6.605   0.270  17.144 -1.1765  0.9798  0.3615
 4284TIP3    H237048   6.513   0.222  17.254 -0.0201 -1.2775  0.3952
 4285TIP3   OH237049   0.934   1.874  14.897  0.6849  0.2831  0.5441
 4285TIP3    H137050   0.982   1.851  14.977  1.5815  0.6910  0.1280
 4285TIP3    H237051   0.924   1.969  14.902  1.7331  0.4547 -0.3657
 4286TIP3   OH237052   0.684   5.325  13.567  0.4834  0.1452 -0.0554
 4286TIP3    H137053   0.630   5.403  13.554  0.2863  0.3846  1.9026
 4286TIP3    H237054   0.774   5.358  13.569  0.4168  0.3015  0.5251
 4287TIP3   OH237055   1.216   2.770  16.372 -0.0449 -0.4335  0.1097
 4287TIP3    H137056   1.219   2.724  16.288  0.7900 -0.0319 -0.0972
 4287TIP3    H237057   1.257   2.854  16.354 -1.1694  0.2333  0.5897
 4288TIP3   OH237058   3.368   0.136  16.976 -0.0857 -0.2418 -0.0512
 4288TIP3    H137059   3.361   0.145  16.881  0.6844 -1.0424 -0.1982
 4288TIP3    H237060   3.462   0.129  16.992 -0.2432 -0.6003  0.7208
 4289TIP3   OH237061   4.853   5.745  14.188  0.0146 -0.3944 -0.4983
 4289TIP3    H137062   4.787   5.804  14.152 -0.0297 -0.2012 -0.1105
 4289TIP3    H237063   4.825   5.730  14.278  0.6833 -0.0376 -0.2232
 4290TIP3   OH237064   2.496   0.088  15.390  0.0311  0.3726  0.2654
 4290TIP3    H137065   2.504   0.017  15.454 -0.2896  1.0254  1.0453
 4290TIP3    H237066   2.492   0.167  15.442  1.0323  1.0381 -0.6255
 4291TIP3   OH237067   2.819   6.216  14.423  0.4548 -0.3814  0.0027
 4291TIP3    H137068   2.834   6.144  14.484 -0.1010  0.1135  0.7503
 4291TIP3    H237069   2.784   6.287  14.478 -0.8956 -0.2104 -1.0205
 4292TIP3   OH237070   0.882   6.344  14.402  0.5725 -0.0848  0.0594
 4292TIP3    H137071   0.934   6.418  14.434  0.3931 -0.2227  0.6905
 4292TIP3    H237072   0.906   6.271  14.459 -0.5455 -0.0673  0.5803
 4293TIP3   OH237073   5.769   2.257  16.961 -0.0013  0.6747  0.6862
 4293TIP3    H137074   5.754   2.166  16.932 -0.4364  1.4171 -1.6875
 4293TIP3    H237075   5.707   2.270  17.032 -0.3659 -0.7132  0.6591
 4294TIP3   OH237076   1.925   2.910  15.953  0.0267 -0.1430  0.3418
 4294TIP3    H137077   1.966   2.936  15.870  0.7720 -0.2031  0.6852
 4294TIP3    H237078   1.915   2.992  16.001 -2.0187  0.1449 -0.4962
 4295TIP3   OH237079   5.954   1.502  16.090  0.1506 -0.7632  0.7424
 4295TIP3    H137080   5.940   1.568  16.157  2.0833 -1.3544  1.8120
 4295TIP3    H237081   5.885   1.517  16.026  0.8521  2.7097  0.6082
 4296TIP3   OH237082   5.466   6.412  16.703 -1.0951 -0.0675 -0.2872
 4296TIP3    H137083   5.526   6.448  16.768 -1.7482 -0.1908  0.3993
 4296TIP3    H237084   5.521   6.358  16.647 -0.2229  1.3358 -0.8603
 4297TIP3   OH237085   5.207   2.928  14.274 -0.2866 -0.1349 -0.3062
 4297TIP3    H137086   5.180   2.871  14.345  0.3551 -1.2730 -0.9352
 4297TIP3    H237087   5.302   2.914  14.266 -0.4315 -0.4681 -1.7304
 4298TIP3   OH237088   5.549   5.140  13.525 -0.0199 -0.8463 -0.0289
 4298TIP3    H137089   5.539   5.153  13.431  2.3755 -0.3276 -0.2672
 4298TIP3    H237090   5.528   5.225  13.563  2.4596  0.0459 -0.4630
 4299TIP3   OH237091   5.665   1.312  16.875 -0.0743 -0.2146 -0.3074
 4299TIP3    H137092   5.603   1.328  16.946 -0.1072 -0.5011 -0.2704
 4299TIP3    H237093   5.625   1.243  16.823 -0.7209  0.9520 -1.4236
 4300TIP3   OH237094   4.227   5.833  14.437  0.1673  0.1290 -0.1507
 4300TIP3    H137095   4.285   5.810  14.364  0.6020 -0.9862  0.5328
 4300TIP3    H237096   4.194   5.920  14.413  1.9609  0.7279 -0.6553
 4301TIP3   OH237097   2.996   6.098  14.994  0.0865 -0.3238 -0.3982
 4301TIP3    H137098   3.018   6.188  15.018  0.0982 -0.7573  1.3540
 4301TIP3    H237099   3.014   6.093  14.900  2.0665  0.9154 -0.1353
 4302TIP3   OH237100   0.605   2.500  16.159 -0.3181 -0.0432  0.0843
 4302TIP3    H137101   0.666   2.471  16.092  0.2393 -1.4217  1.1549
 4302TIP3    H237102   0.613   2.596  16.159  0.5615 -0.0994 -0.9575
 4303TIP3   OH237103   5.179   3.746  14.586 -0.0916  0.5011  0.0310
 4303TIP3    H137104   5.106   3.753  14.647 -0.7038 -0.2454 -0.5946
 4303TIP3    H237105   5.255   3.725  14.642 -1.3390 -4.4244  0.3652
 4304TIP3   OH237106   2.782   4.620  15.124 -0.2529  0.0586  0.0404
 4304TIP3    H137107   2.852   4.557  15.109 -0.9019 -0.9384  1.0768
 4304TIP3    H237108   2.827   4.700  15.150  0.5010 -0.8951  1.8468
 4305TIP3   OH237109   6.119   5.250  16.043  0.4686 -0.0809 -0.1837
 4305TIP3    H137110   6.145   5.271  15.953  0.5114  0.6776  0.0045
 4305TIP3    H237111   6.196   5.210  16.082  0.8554  0.7329 -0.1045
 4306TIP3   OH237112   3.684   0.735  16.033 -0.1310  0.7799 -0.1700
 4306TIP3    H137113   3.677   0.789  15.954  0.5446  1.3585  0.1643
 4306TIP3    H237114   3.735   0.659  16.006 -1.4994  0.0283 -0.7696
 4307TIP3   OH237115   0.916   1.324  16.586 -0.4787 -0.1245  0.0700
 4307TIP3    H137116   0.892   1.303  16.676 -0.5629 -0.8680 -0.1205
 4307TIP3    H237117   0.887   1.414  16.573  1.7242  0.8935  1.5677
 4308TIP3   OH237118   2.766   4.885  16.822  0.2933 -0.5015  0.1483
 4308TIP3    H137119   2.840   4.920  16.871  0.6934  0.7147 -1.2474
 4308TIP3    H237120   2.804   4.859  16.738 -1.2130  2.5649 -1.6307
 4309TIP3   OH237121   6.095   6.285  15.393  0.5571 -0.0836 -0.1604
 4309TIP3    H137122   6.181   6.313  15.361  1.0260 -1.2374  0.0442
 4309TIP3    H237123   6.084   6.332  15.475  0.7503  0.4857 -0.4516
 4310TIP3   OH237124   2.230   2.521  16.787 -0.3172  0.7577  0.3070
 4310TIP3    H137125   2.196   2.589  16.729 -0.3474 -0.4501 -1.1471
 4310TIP3    H237126   2.155   2.467  16.808 -0.1163  0.6266  0.6967
 4311TIP3   OH237127   2.200   5.905  15.145 -0.0007 -0.6326 -0.0011
 4311TIP3    H137128   2.253   5.852  15.205 -0.8865 -0.1230  1.2828
 4311TIP3    H237129   2.256   5.979  15.122 -0.1704 -0.0034  1.4897
 4312TIP3   OH237130   2.706   2.861  16.621  0.1551  0.0138  0.1053
 4312TIP3    H137131   2.682   2.909  16.700 -2.0746 -0.1401 -0.4235
 4312TIP3    H237132   2.766   2.920  16.575 -0.6237  1.2689  0.6310
 4313TIP3   OH237133   5.225   6.156  14.428  0.7934  0.7628 -0.2921
 4313TIP3    H137134   5.154   6.147  14.492  1.3594  0.2790  0.2800
 4313TIP3    H237135   5.217   6.245  14.395 -0.5422  0.4909 -0.7867
 4314TIP3   OH237136   0.376   3.198  16.302 -0.1139 -0.1026 -0.0061
 4314TIP3    H137137   0.422   3.140  16.364  0.8819  0.1209 -0.5137
 4314TIP3    H237138   0.409   3.285  16.322 -1.2383  0.2406  0.4210
 4315TIP3   OH237139   2.742   3.398  17.012 -0.3173  0.1804 -0.2366
 4315TIP3    H137140   2.675   3.342  17.051  1.5911 -0.9997  1.5350
 4315TIP3    H237141   2.763   3.355  16.929 -1.9498  0.7697 -0.9916
 4316TIP3   OH237142   6.295   3.268  16.513  0.0581 -0.5977  0.8298
 4316TIP3    H137143   6.390   3.276  16.506  0.1534 -1.4713  0.9637
 4316TIP3    H237144   6.270   3.336  16.574  0.8157 -1.4332  2.1255
 4317TIP3   OH237145   2.956   4.562  16.197  0.2924 -0.0529  0.1343
 4317TIP3    H137146   2.907   4.634  16.237  1.0799  0.9823 -0.6910
 4317TIP3    H237147   3.048   4.584  16.213  0.5555 -0.7466 -0.3608
 4318TIP3   OH237148   4.800   0.874  16.677 -0.1109  0.5572 -0.5312
 4318TIP3    H137149   4.777   0.954  16.629  0.9246  0.8903 -0.4993
 4318TIP3    H237150   4.862   0.828  16.619  0.1185  0.3076 -0.0943
 4319TIP3   OH237151   6.023   0.940  16.821  0.0329 -0.3491  0.9955
 4319TIP3    H137152   5.964   0.976  16.755 -0.8060 -1.7783  0.9208
 4319TIP3    H237153   6.010   0.996  16.898 -1.9046 -0.9597  1.1747
 4320TIP3   OH237154   1.228   0.352  14.365  0.3220  0.5544  0.1842
 4320TIP3    H137155   1.313   0.336  14.405  0.1678  0.6233  0.5409
 4320TIP3    H237156   1.249   0.385  14.277  0.6563  0.1826  0.1225
 4321TIP3   OH237157   2.409   6.509  14.642 -0.4066  0.4261 -0.2409
 4321TIP3    H137158   2.338   6.570  14.629 -1.1205 -0.5534 -1.0845
 4321TIP3    H237159   2.459   6.545  14.715 -1.0860  1.7346 -0.4049
 4322TIP3   OH237160   1.383   4.451  15.666  0.5152  0.1005 -1.1127
 4322TIP3    H137161   1.390   4.385  15.735 -1.3745  1.8754  0.9281
 4322TIP3    H237162   1.312   4.420  15.610 -0.8071  0.6077  0.2035
 4323TIP3   OH237163   5.456   4.402  16.996  0.5986 -0.1072  1.1218
 4323TIP3    H137164   5.361   4.391  17.004  0.6784 -0.5472  1.4903
 4323TIP3    H237165   5.470   4.496  17.010  0.2074 -0.0163  0.9255
 4324TIP3   OH237166   1.723   2.760  15.872  0.3254 -0.4021 -0.1442
 4324TIP3    H137167   1.772   2.695  15.822  1.4139  0.0971  0.2399
 4324TIP3    H237168   1.781   2.836  15.876 -0.4336  0.1638  0.4341
 4325TIP3   OH237169   4.619   3.064  16.744  0.0284  0.1331  0.2597
 4325TIP3    H137170   4.665   3.072  16.661 -2.3373 -3.6470 -1.7406
 4325TIP3    H237171   4.680   3.017  16.801  0.2460 -1.0922 -0.9187
 4326TIP3   OH237172   5.922   4.175  14.280  0.0979 -0.5601  0.2931
 4326TIP3    H137173   5.898   4.197  14.370  2.2692 -1.5444  1.1764
 4326TIP3    H237174   6.011   4.206  14.270  1.0224 -3.1756 -0.4478
 4327TIP3   OH237175   0.204   3.727  16.417 -0.6635  0.0334 -0.8866
 4327TIP3    H137176   0.248   3.755  16.337  1.3198  0.0138  0.1437
 4327TIP3    H237177   0.213   3.802  16.476 -1.0635 -0.3974 -0.2726
 4328TIP3   OH237178   3.142   4.323  15.702  0.3472  0.6373 -0.5631
 4328TIP3    H137179   3.148   4.342  15.609  0.5815  1.0886 -0.4598
 4328TIP3    H237180   3.052   4.343  15.726  0.1862  0.1700 -0.7656
 4329TIP3   OH237181   1.655   1.545  15.445 -0.3212 -0.3369  0.0825
 4329TIP3    H137182   1.723   1.521  15.508 -0.1881 -2.4592 -0.7803
 4329TIP3    H237183   1.594   1.471  15.446 -0.6859 -0.1140 -1.7682
 4330TIP3   OH237184   2.779   3.571  15.974 -0.4226  0.3865  0.5037
 4330TIP3    H137185   2.684   3.579  15.984 -0.2175  1.0953  2.0963
 4330TIP3    H237186   2.790   3.491  15.922 -1.9173  1.1580 -1.1395
 4331TIP3   OH237187   4.832   2.853  16.035  0.3600  0.3299  0.0184
 4331TIP3    H137188   4.917   2.849  15.990  0.4269 -1.1467  0.2249
 4331TIP3    H237189   4.855   2.867  16.127  0.3603  0.2495  0.0291
 4332TIP3   OH237190   0.680   4.742  15.955  0.0293 -0.2384 -0.0665
 4332TIP3    H137191   0.626   4.703  16.023  1.0762  0.5634  1.2739
 4332TIP3    H237192   0.762   4.693  15.958  1.2988  1.8080  1.5262
 4333TIP3   OH237193   6.241   5.117  15.190  0.1750  0.6593  0.6814
 4333TIP3    H137194   6.330   5.143  15.165  0.0256  1.0972  0.6000
 4333TIP3    H237195   6.188   5.194  15.172 -0.2278  0.3849  0.7013
 4334TIP3   OH237196   1.011   2.735  16.120 -0.1210 -0.8288  0.1286
 4334TIP3    H137197   1.036   2.643  16.112  0.4626 -0.7099  0.4703
 4334TIP3    H237198   1.094   2.783  16.114 -0.3392 -0.3716  0.6678
 4335TIP3   OH237199   4.295   0.527  15.712  0.0182 -0.8084  0.3023
 4335TIP3    H137200   4.276   0.466  15.783 -1.2597  0.6182  1.2578
 4335TIP3    H237201   4.373   0.574  15.743 -1.0168  0.3841  1.2073
 4336TIP3   OH237202   0.221   1.078  16.869  0.0447 -0.4748  0.0241
 4336TIP3    H137203   0.134   1.066  16.833  0.6501  2.2157 -2.7854
 4336TIP3    H237204   0.273   1.007  16.832 -0.9410 -2.4578  2.1970
 4337TIP3   OH237205   1.812   4.366  15.941 -0.8564  0.5039  0.1457
 4337TIP3    H137206   1.817   4.368  15.846  2.9921  1.9252  0.1803
 4337TIP3    H237207   1.758   4.290  15.961  0.4235 -1.5127 -3.1976
 4338TIP3   OH237208   0.552   0.710  14.929  0.1404  0.3044 -0.0917
 4338TIP3    H137209   0.580   0.624  14.962 -0.2218  0.0444 -0.4515
 4338TIP3    H237210   0.458   0.700  14.913  0.5676 -0.1333 -2.8155
 4339TIP3   OH237211   1.564   3.916  14.369 -0.1322  0.2581 -0.5875
 4339TIP3    H137212   1.644   3.934  14.418 -1.4379  0.1334  1.7162
 4339TIP3    H237213   1.536   4.001  14.336  0.7232  0.3508 -1.1309
 4340TIP3   OH237214   0.209   4.748  15.005  0.0418 -0.2878  0.4035
 4340TIP3    H137215   0.192   4.836  14.973  1.6360 -0.3360 -0.6656
 4340TIP3    H237216   0.135   4.696  14.973  0.7941 -0.0156 -1.9450
 4341TIP3   OH237217   2.975   1.950  14.450 -0.1161  0.1441  0.2855
 4341TIP3    H137218   2.916   1.874  14.448 -0.1070  0.0891  1.4203
 4341TIP3    H237219   2.929   2.017  14.400 -0.1541 -0.5852 -0.6824
 4342TIP3   OH237220   2.990   0.075  13.993  0.1900 -0.0713  0.1410
 4342TIP3    H137221   3.054   0.145  13.981 -0.1595  0.4217  1.0481
 4342TIP3    H237222   2.984   0.032  13.907  1.7359 -0.1416  0.0555
 4343TIP3   OH237223   4.424   5.465  13.374  0.0901 -0.1820  0.9678
 4343TIP3    H137224   4.518   5.468  13.391  0.0078  2.9555  1.4341
 4343TIP3    H237225   4.394   5.386  13.419  2.4826 -1.3273  0.7011
 4344TIP3   OH237226   6.628   5.928  14.706  0.1259  0.0778  0.0413
 4344TIP3    H137227   6.595   5.840  14.689 -0.5978  0.0685  1.3563
 4344TIP3    H237228   6.663   5.957  14.622  0.4638 -1.4881 -0.4015
 4345TIP3   OH237229   1.538   3.898  17.036  0.3660 -0.0479 -0.1331
 4345TIP3    H137230   1.602   3.890  16.965 -0.2497  1.7788 -0.9454
 4345TIP3    H237231   1.525   3.992  17.047  0.9230 -0.2052  2.9016
 4346TIP3   OH237232   3.297   0.937  14.744 -0.5462 -0.3858 -0.1693
 4346TIP3    H137233   3.202   0.949  14.734 -0.4950  0.1140 -0.1060
 4346TIP3    H237234   3.318   0.982  14.826 -0.7182 -3.0826  1.4371
 4347TIP3   OH237235   2.201   5.599  17.004  0.1865  0.2249 -0.0366
 4347TIP3    H137236   2.277   5.656  16.992  0.2380  0.1383 -0.1296
 4347TIP3    H237237   2.205   5.573  17.095  0.6829 -0.3604 -0.2185
 4348TIP3   OH237238   4.016   5.432  16.491  0.1952  0.2369  0.3438
 4348TIP3    H137239   4.045   5.468  16.407  0.0107  1.1541  0.6610
 4348TIP3    H237240   4.072   5.356  16.506  0.8891  0.6402 -0.1435
 4349TIP3   OH237241   4.176   5.381  16.026 -0.0569  0.0026 -0.6953
 4349TIP3    H137242   4.163   5.306  16.084  0.5500  0.3573 -0.0881
 4349TIP3    H237243   4.260   5.364  15.983 -1.4128 -1.2468 -3.0163
 4350TIP3   OH237244   4.936   0.280  15.785 -0.5828  0.2294  0.5046
 4350TIP3    H137245   4.878   0.208  15.809 -0.0304 -0.4837 -0.2143
 4350TIP3    H237246   4.891   0.324  15.713  0.2248 -0.9949 -0.7987
 4351TIP3   OH237247   1.930   5.146  14.465  0.0860  0.2415 -0.2909
 4351TIP3    H137248   1.913   5.184  14.552  0.3052  0.4159 -0.3239
 4351TIP3    H237249   1.848   5.159  14.417 -0.5808 -1.2193  0.3711
 4352TIP3   OH237250   5.258   0.805  14.708  0.3461 -0.0072 -0.2620
 4352TIP3    H137251   5.229   0.721  14.743  0.6190 -0.2017 -0.4953
 4352TIP3    H237252   5.240   0.800  14.614 -1.4077  0.9386 -0.0088
 4353TIP3   OH237253   0.891   4.950  14.746  0.0780  0.1316 -0.4998
 4353TIP3    H137254   0.804   4.959  14.787  0.4591  0.6182  0.2174
 4353TIP3    H237255   0.874   4.957  14.652 -0.5093  1.4985 -0.3068
 4354TIP3   OH237256   2.261   5.237  14.393 -0.0963  0.3650 -0.3473
 4354TIP3    H137257   2.333   5.204  14.446 -0.3203 -0.2753 -0.4315
 4354TIP3    H237258   2.186   5.236  14.452 -0.1669  0.4366 -0.4364
 4355TIP3   OH237259   2.356   3.909  14.600  0.1160  0.0505 -0.0845
 4355TIP3    H137260   2.435   3.960  14.579  0.2532  0.6479  1.6821
 4355TIP3    H237261   2.386   3.847  14.667 -0.2021 -1.9731 -1.7466
 4356TIP3   OH237262   1.260   5.682  14.519  0.0455 -0.7210 -0.3142
 4356TIP3    H137263   1.257   5.602  14.571 -0.7845 -0.6558 -0.2433
 4356TIP3    H237264   1.273   5.653  14.429  0.1720 -0.9066 -0.2368
 4357TIP3   OH237265   2.344   0.663  13.823 -0.1307 -0.4819  0.1250
 4357TIP3    H137266   2.366   0.575  13.795 -0.1964 -0.4084 -0.1587
 4357TIP3    H237267   2.305   0.704  13.746  0.2558 -0.0803  0.1416
 4358TIP3   OH237268   0.451   1.466  14.539  0.1280  0.3743  0.7139
 4358TIP3    H137269   0.516   1.479  14.607 -0.4962  1.5022  1.1219
 4358TIP3    H237270   0.382   1.414  14.581  0.2175  0.1888  0.6327
 4359TIP3   OH237271   4.024   1.736  15.401  0.0190 -0.3973  0.3702
 4359TIP3    H137272   3.937   1.695  15.403  0.0397 -0.4760 -0.3269
 4359TIP3    H237273   4.010   1.822  15.361  0.5659 -1.2001 -1.6761
 4360TIP3   OH237274   4.783   4.510  14.241 -0.1919  0.0224  0.4033
 4360TIP3    H137275   4.862   4.485  14.193 -1.0974 -1.9014 -0.1799
 4360TIP3    H237276   4.815   4.534  14.328  1.1082  0.0289 -0.0616
 4361TIP3   OH237277   0.598   4.139  14.983 -0.1341  0.4443  0.3235
 4361TIP3    H137278   0.638   4.222  14.959  0.3118 -0.0364 -0.6385
 4361TIP3    H237279   0.663   4.097  15.040  0.5568 -0.1258 -0.8491
 4362TIP3   OH237280   0.095   6.544  13.192  0.5510 -0.1979  0.1150
 4362TIP3    H137281   0.110   6.606  13.263 -0.2073  0.4913 -0.3163
 4362TIP3    H237282   0.019   6.494  13.220  1.1709 -0.9713  0.4705
 4363TIP3   OH237283   1.541   6.420  16.625 -0.9787  0.0437  1.0208
 4363TIP3    H137284   1.597   6.497  16.611  0.5118 -0.7134  2.4336
 4363TIP3    H237285   1.600   6.353  16.660 -2.4415 -1.4123  0.8533
 4364TIP3   OH237286   2.274   4.985  13.653  0.1852  0.2159 -0.7165
 4364TIP3    H137287   2.316   5.007  13.570  1.6079  0.7204  0.1025
 4364TIP3    H237288   2.227   5.065  13.677  0.5792  0.4054 -0.5669
 4365TIP3   OH237289   5.708   0.202  16.700 -0.0537  0.4476  0.0541
 4365TIP3    H137290   5.630   0.248  16.671 -1.4489 -1.5954  0.3580
 4365TIP3    H237291   5.693   0.111  16.675  1.8960 -0.1321  0.8095
 4366TIP3   OH237292   0.150   0.168  14.093  0.2320 -0.1983  1.0566
 4366TIP3    H137293   0.117   0.097  14.038  0.8033 -0.6046  1.2235
 4366TIP3    H237294   0.078   0.231  14.097  0.8403  0.8282 -1.8372
 4367TIP3   OH237295   2.391   2.106  14.818  0.3112 -0.2189 -0.0814
 4367TIP3    H137296   2.341   2.170  14.868 -1.5663 -2.5089  1.2029
 4367TIP3    H237297   2.482   2.137  14.823 -0.1712  1.0722  2.5702
 4368TIP3   OH237298   2.301   6.117  16.831  0.2154 -0.2949  0.2688
 4368TIP3    H137299   2.217   6.096  16.872 -0.1437  0.0599 -0.2798
 4368TIP3    H237300   2.278   6.160  16.749  0.9252  1.1487  0.7847
 4369TIP3   OH237301   2.443   0.140  16.950 -0.1751  0.7289 -0.5053
 4369TIP3    H137302   2.503   0.144  17.025 -1.6438  0.2668  0.7440
 4369TIP3    H237303   2.415   0.230  16.936  2.3065  1.3089 -2.4411
 4370TIP3   OH237304   2.012   0.374  15.101 -0.0223  0.7382 -0.2279
 4370TIP3    H137305   1.933   0.425  15.116 -1.0794 -0.3887 -1.6806
 4370TIP3    H237306   2.081   0.439  15.092 -1.0450  1.8279 -0.4772
 4371TIP3   OH237307   6.042   0.466  15.139  0.0406 -0.1654 -0.3011
 4371TIP3    H137308   6.127   0.480  15.181  0.4908 -1.3473 -0.7898
 4371TIP3    H237309   6.015   0.379  15.168 -1.9906  0.9435  1.4823
 4372TIP3   OH237310   4.319   0.263  13.495  0.0612  0.6962  0.0586
 4372TIP3    H137311   4.360   0.193  13.547 -1.1620  0.4385  0.7054
 4372TIP3    H237312   4.226   0.258  13.517 -0.1880  1.8969 -0.6509
 4373TIP3   OH237313   5.854   1.497  14.690 -0.0806 -0.0173 -0.1408
 4373TIP3    H137314   5.840   1.551  14.612  0.2715 -0.2770 -0.3844
 4373TIP3    H237315   5.801   1.419  14.675  1.6483 -1.0695 -1.1297
 4374TIP3   OH237316   4.122   3.488  17.235  0.6929  0.2604 -0.4523
 4374TIP3    H137317   4.192   3.437  17.193  0.4029  0.2414 -0.9206
 4374TIP3    H237318   4.164   3.528  17.311  0.5918 -1.8394  0.7871
 4375TIP3   OH237319   0.184   0.921  16.432 -0.1052  0.6423 -0.5777
 4375TIP3    H137320   0.125   0.848  16.452  1.3988 -0.3181  0.5477
 4375TIP3    H237321   0.219   0.901  16.345 -1.0580  0.9899 -1.0571
 4376TIP3   OH237322   3.884   1.465  16.488  0.1252 -0.0194  0.1308
 4376TIP3    H137323   3.869   1.410  16.565  0.9128  0.3206  0.5350
 4376TIP3    H237324   3.955   1.524  16.514  2.1396 -1.5015 -1.6497
 4377TIP3   OH237325   5.415   0.434  14.254  0.5615 -0.4517  0.2536
 4377TIP3    H137326   5.439   0.400  14.168  0.2457  0.5047 -0.2230
 4377TIP3    H237327   5.400   0.355  14.307 -0.4432 -1.0601 -0.8940
 4378TIP3   OH237328   2.917   0.110  17.278 -1.1443  0.2428 -0.3484
 4378TIP3    H137329   2.889   0.128  17.368  1.2334  2.3211  0.0678
 4378TIP3    H237330   2.963   0.026  17.284 -0.9938  0.3711  0.3713
 4379TIP3   OH237331   0.761   5.994  14.153 -0.2675 -0.0039 -0.5838
 4379TIP3    H137332   0.809   5.983  14.070  2.2299  1.7579  0.5242
 4379TIP3    H237333   0.811   5.941  14.216 -1.2759 -0.1314  0.1229
 4380TIP3   OH237334   5.085   5.698  16.712 -0.4922  0.5816 -0.1336
 4380TIP3    H137335   5.127   5.626  16.760  1.5640  2.2223  0.7040
 4380TIP3    H237336   5.051   5.657  16.632 -1.3029 -1.6725  1.2561
 4381TIP3   OH237337   4.513   4.680  17.116  0.1266  0.5206  0.8694
 4381TIP3    H137338   4.456   4.647  17.186 -0.6818 -0.7059 -0.3099
 4381TIP3    H237339   4.453   4.700  17.044  1.0457  0.7086  0.1349
 4382TIP3   OH237340   1.237   6.036  15.455  0.1643  0.3669 -0.5569
 4382TIP3    H137341   1.158   5.983  15.464  0.0622  0.5518 -0.3400
 4382TIP3    H237342   1.307   5.982  15.491 -0.1229  0.8126  0.7600
 4383TIP3   OH237343   4.718   5.310  16.636  0.0976 -0.3956 -0.2630
 4383TIP3    H137344   4.724   5.219  16.607 -1.0891 -0.9701  1.1518
 4383TIP3    H237345   4.625   5.329  16.636  0.2083  0.2607  1.0301
 4384TIP3   OH237346   3.490   3.685  17.256  0.3563  0.3622 -0.1668
 4384TIP3    H137347   3.538   3.603  17.245 -1.9810 -1.0747 -0.3265
 4384TIP3    H237348   3.552   3.743  17.302  1.7724 -1.7748  0.7711
 4385TIP3   OH237349   4.189   2.128  15.307 -0.0356 -0.5749  0.0939
 4385TIP3    H137350   4.223   2.060  15.365  0.7072 -0.6750 -0.4391
 4385TIP3    H237351   4.103   2.095  15.280 -0.3358 -0.5862  1.0222
 4386TIP3   OH237352   4.580   5.554  15.083  0.0799  1.0143  0.6792
 4386TIP3    H137353   4.600   5.623  15.146  1.0507  0.9087  0.4926
 4386TIP3    H237354   4.561   5.600  15.002 -0.9531  1.1390  0.9719
 4387TIP3   OH237355   2.378   4.995  15.363 -0.0883 -0.1947 -0.0788
 4387TIP3    H137356   2.366   4.928  15.431  0.6111  0.0637  0.3053
 4387TIP3    H237357   2.347   5.076  15.403  1.9075  0.3022  0.5901
 4388TIP3   OH237358   3.597   3.665  15.021 -0.3986  0.1831  0.3197
 4388TIP3    H137359   3.691   3.670  15.001 -0.3631 -2.8432 -0.6654
 4388TIP3    H237360   3.554   3.694  14.940 -0.2978  0.0666  0.2231
 4389TIP3   OH237361   2.474   6.546  16.282 -0.3194  0.6803  0.2033
 4389TIP3    H137362   2.560   6.584  16.299  0.6922 -0.0061 -2.7381
 4389TIP3    H237363   2.476   6.460  16.324  0.7000  0.4266 -0.3299
 4390TIP3   OH237364   2.556   4.380  16.027  0.3316 -0.4441 -0.7851
 4390TIP3    H137365   2.577   4.378  15.933  2.0811  0.3725 -0.4502
 4390TIP3    H237366   2.514   4.465  16.040  2.6675  0.7349 -0.3949
 4391TIP3   OH237367   5.658   3.327  14.150 -0.0006  0.4613 -0.5393
 4391TIP3    H137368   5.652   3.297  14.059  1.5211  0.3388 -0.6214
 4391TIP3    H237369   5.576   3.297  14.190 -0.0183 -0.8702 -1.4830
 4392TIP3   OH237370   1.389   4.161  14.486 -0.7430  0.1227  0.0469
 4392TIP3    H137371   1.438   4.174  14.568 -2.8401  0.8955  1.2615
 4392TIP3    H237372   1.412   4.236  14.432  3.2403 -2.0000 -1.6018
 4393TIP3   OH237373   3.213   3.172  16.921  0.0967 -0.6091 -0.0517
 4393TIP3    H137374   3.134   3.117  16.916 -1.1334  0.8943  1.5018
 4393TIP3    H237375   3.203   3.220  17.003  1.5359  1.2931 -0.9138
 4394TIP3   OH237376   3.662   1.895  15.076 -0.3975  0.4529  0.2133
 4394TIP3    H137377   3.579   1.932  15.048 -1.4113 -0.8382  1.3547
 4394TIP3    H237378   3.709   1.968  15.115 -2.0482  0.7379  1.7863
 4395TIP3   OH237379   4.296   5.545  15.365 -0.0348  0.0144 -0.2433
 4395TIP3    H137380   4.257   5.526  15.280 -2.2174  1.0838  0.4451
 4395TIP3    H237381   4.245   5.492  15.427  1.0863 -0.2521  0.4822
 4396TIP3   OH237382   0.011   5.439  15.795  0.1516  0.4141 -0.0494
 4396TIP3    H137383   0.091   5.434  15.743  1.2811 -4.1410  1.6416
 4396TIP3    H237384   0.038   5.479  15.877  0.6897 -0.7690  0.3735
 4397TIP3   OH237385   4.726   2.356  15.499 -0.1098 -0.0054 -0.1132
 4397TIP3    H137386   4.740   2.387  15.589 -1.6131  2.3440 -0.6240
 4397TIP3    H237387   4.783   2.410  15.445 -2.4143  1.7298 -0.9681
 4398TIP3   OH237388   1.275   6.122  15.198 -0.2730 -0.5995 -0.5290
 4398TIP3    H137389   1.306   6.213  15.206  0.6314 -0.9509  0.0808
 4398TIP3    H237390   1.269   6.091  15.289 -2.8069 -0.4400 -0.5712
 4399TIP3   OH237391   1.444   1.753  13.618  0.0367  0.2941  0.6026
 4399TIP3    H137392   1.425   1.687  13.552  1.5505  0.2979  0.1199
 4399TIP3    H237393   1.380   1.822  13.603 -1.3552 -0.8912  0.9097
 4400TIP3   OH237394   5.521   6.471  14.367  0.5226 -0.3824  0.2773
 4400TIP3    H137395   5.601   6.437  14.327  0.3315  0.0666 -0.5124
 4400TIP3    H237396   5.549   6.501  14.454  1.1293 -0.5798  0.1575
 4401TIP3   OH237397   0.113   2.761  15.568  0.3101 -0.3852  0.0379
 4401TIP3    H137398   0.051   2.743  15.498 -0.4138  1.3288  0.1898
 4401TIP3    H237399   0.199   2.752  15.527 -0.0829 -0.3679 -0.8074
 4402TIP3   OH237400   5.114   6.224  16.880 -0.2718  0.3757  0.5537
 4402TIP3    H137401   5.112   6.135  16.846  0.4968  0.8197 -0.7105
 4402TIP3    H237402   5.195   6.229  16.931  0.4688  0.7650 -0.6237
 4403TIP3   OH237403   5.227   5.819  16.063 -0.6811 -0.1881 -0.0129
 4403TIP3    H137404   5.315   5.789  16.086 -0.0421 -0.8954 -2.9642
 4403TIP3    H237405   5.233   5.840  15.970 -3.5736  0.1075 -0.2085
 4404TIP3   OH237406   2.600   0.869  15.069 -0.0337 -0.5796  0.3210
 4404TIP3    H137407   2.506   0.847  15.067  0.0177 -0.7912  0.1423
 4404TIP3    H237408   2.603   0.955  15.110 -0.3695 -0.2706 -0.2789
 4405TIP3   OH237409   4.164   2.610  17.008  0.2380 -0.0087  0.3542
 4405TIP3    H137410   4.118   2.667  17.070  0.7424  0.1292  0.6043
 4405TIP3    H237411   4.096   2.551  16.975  0.2345 -1.1299  2.2025
 4406TIP3   OH237412   0.099   6.487  16.915  0.3065  0.2951  0.1484
 4406TIP3    H137413   0.023   6.545  16.921  0.7824  1.2085 -1.7793
 4406TIP3    H237414   0.061   6.399  16.919 -0.6286  0.7117  1.2033
 4407TIP3   OH237415   3.219   3.009  14.378  0.3428 -0.4275  0.3392
 4407TIP3    H137416   3.232   2.927  14.331 -0.9571 -1.2703  1.3722
 4407TIP3    H237417   3.231   2.986  14.470 -0.4806  0.4462  0.6786
 4408TIP3   OH237418   4.033   1.669  14.593 -0.6285  0.2259  0.5072
 4408TIP3    H137419   4.066   1.614  14.522 -0.7943 -1.9511  2.0476
 4408TIP3    H237420   4.100   1.737  14.603  0.4538 -0.6791 -0.3110
 4409TIP3   OH237421   1.099   1.757  14.428 -0.8260  0.4776  0.4926
 4409TIP3    H137422   1.062   1.740  14.514 -1.3265  0.6906  0.3207
 4409TIP3    H237423   1.032   1.727  14.366  1.1235 -3.7390  0.0324
 4410TIP3   OH237424   3.205   4.332  14.668 -0.5588  0.4267  0.2946
 4410TIP3    H137425   3.179   4.357  14.579  0.2192  0.8396  0.1795
 4410TIP3    H237426   3.227   4.414  14.710  3.4951 -0.0369 -0.5406
 4411TIP3   OH237427   6.124   4.402  16.168  0.0689  0.0398  0.2009
 4411TIP3    H137428   6.213   4.430  16.149  0.0966 -0.3294 -0.2184
 4411TIP3    H237429   6.133   4.348  16.247  0.4954 -1.5099 -0.8547
 4412TIP3   OH237430   4.986   5.444  14.589  0.8808 -0.0510 -0.3814
 4412TIP3    H137431   5.010   5.359  14.551  0.6304  0.4065 -1.5990
 4412TIP3    H237432   5.051   5.505  14.553  1.0964  0.2759  0.5417
 4413TIP3   OH237433   0.707   5.520  15.985 -0.0702 -0.2748 -0.4631
 4413TIP3    H137434   0.675   5.489  16.070 -0.6114 -2.4059 -1.3685
 4413TIP3    H237435   0.749   5.603  16.004 -2.6268  0.7042  1.4278
 4414TIP3   OH237436   5.373   4.187  15.477  0.0535  0.3127  0.3381
 4414TIP3    H137437   5.446   4.242  15.506  1.2404 -0.4048 -1.1448
 4414TIP3    H237438   5.358   4.214  15.387 -0.0383 -1.0401 -0.0739
 4415TIP3   OH237439   2.279   4.364  15.491 -0.9769  0.0327 -0.0371
 4415TIP3    H137440   2.371   4.340  15.490 -1.1513 -0.7000  0.5608
 4415TIP3    H237441   2.251   4.351  15.582 -1.5582  0.6873 -0.1087
 4416TIP3   OH237442   3.651   5.054  14.195  0.7819 -0.1546 -0.3562
 4416TIP3    H137443   3.685   5.000  14.267  2.0781 -0.2191 -0.9810
 4416TIP3    H237444   3.698   5.137  14.204  1.7740 -0.5297 -1.7249
 4417TIP3   OH237445   5.797   1.689  16.555  0.5174  0.1075  0.0496
 4417TIP3    H137446   5.764   1.652  16.637  2.7995 -0.8864  0.6012
 4417TIP3    H237447   5.814   1.781  16.575  1.1063 -0.1414  0.7092
 4418TIP3   OH237448   0.517   1.089  14.440 -0.0335  0.1140 -0.5641
 4418TIP3    H137449   0.432   1.073  14.480 -0.3691 -0.7854 -1.6027
 4418TIP3    H237450   0.534   1.012  14.386  0.9864  0.7174 -1.1462
 4419TIP3   OH237451   6.364   3.167  14.334  0.0206 -0.0752  0.5911
 4419TIP3    H137452   6.440   3.193  14.281 -0.2173  3.6166  1.7356
 4419TIP3    H237453   6.399   3.163  14.423 -0.2137 -3.2606  0.6417
 4420TIP3   OH237454   4.797   5.702  16.825 -0.4020  0.3045 -0.8307
 4420TIP3    H137455   4.711   5.698  16.784 -0.8814  0.1569  0.1812
 4420TIP3    H237456   4.856   5.664  16.760 -0.8975  1.4722 -2.0156
 4421TIP3   OH237457   4.051   5.314  14.864  0.4391  0.2944 -0.1299
 4421TIP3    H137458   3.996   5.384  14.830 -0.8864 -0.0544  1.2067
 4421TIP3    H237459   4.140   5.349  14.861 -0.0240  1.4354 -0.9167
 4422TIP3   OH237460   2.315   5.686  14.937 -0.2388 -0.0609 -0.0308
 4422TIP3    H137461   2.223   5.670  14.957 -0.1220  0.7299  1.2661
 4422TIP3    H237462   2.351   5.600  14.918 -0.9892 -0.5429  0.6681
 4423TIP3   OH237463   2.226   6.596  15.553 -0.1914 -0.0404 -0.4389
 4423TIP3    H137464   2.321   6.591  15.564 -0.2987  1.0156  1.2475
 4423TIP3    H237465   2.213   6.605  15.458  1.4654  1.1800 -0.5797
 4424TIP3   OH237466   3.297   4.950  14.041 -0.2165 -0.0718  0.4608
 4424TIP3    H137467   3.307   4.991  13.955 -2.1599  1.1027  0.7223
 4424TIP3    H237468   3.209   4.913  14.039  0.0903 -0.8968  1.6025
 4425TIP3   OH237469   4.988   2.078  14.520  0.2450  0.0884  0.0365
 4425TIP3    H137470   4.929   2.117  14.584 -1.1385 -0.6038 -0.7744
 4425TIP3    H237471   5.011   1.993  14.558  1.3887  0.6770  0.7166
 4426TIP3   OH237472   3.318   2.789  15.696 -0.0840 -0.4520 -0.2561
 4426TIP3    H137473   3.365   2.712  15.728 -2.0532 -2.0659 -1.0169
 4426TIP3    H237474   3.256   2.811  15.767 -1.2117 -1.1415 -0.9874
 4427TIP3   OH237475   2.314   0.941  13.897  0.1642  0.1442 -0.4724
 4427TIP3    H137476   2.337   0.981  13.813  0.6879 -3.0659 -2.0292
 4427TIP3    H237477   2.346   0.850  13.890  0.8921 -0.1084  3.4975
 4428TIP3   OH237478   1.023   4.000  15.772 -0.7949 -0.4864  0.5808
 4428TIP3    H137479   1.036   4.094  15.774  1.1042 -0.6293 -1.2737
 4428TIP3    H237480   1.033   3.972  15.863  3.4939  0.6390  0.6953
 4429TIP3   OH237481   5.609   0.479  15.912 -0.0982 -0.3629 -0.1623
 4429TIP3    H137482   5.535   0.418  15.921 -0.2902 -0.0664  0.2768
 4429TIP3    H237483   5.673   0.448  15.976 -0.2017 -0.0953  0.0702
 4430TIP3   OH237484   3.384   2.921  14.592 -0.4508 -0.2084 -0.2051
 4430TIP3    H137485   3.433   2.997  14.622 -0.5490  0.4959 -1.7321
 4430TIP3    H237486   3.442   2.846  14.608 -0.4753  0.1258  1.5947
 4431TIP3   OH237487   2.894   3.586  15.615  0.1102 -0.2514 -0.4618
 4431TIP3    H137488   2.820   3.644  15.636 -0.6552 -1.5484  0.6574
 4431TIP3    H237489   2.948   3.636  15.554 -0.5240  1.6118  0.4253
 4432TIP3   OH237490   3.531   3.878  14.618 -0.2197  0.1872 -0.3319
 4432TIP3    H137491   3.583   3.911  14.546  0.9742  0.7753  0.7747
 4432TIP3    H237492   3.459   3.941  14.628  0.3889  0.8581 -0.1333
 4433TIP3   OH237493   2.410   2.918  13.614  0.3533  0.2213  0.0085
 4433TIP3    H137494   2.493   2.956  13.584 -0.0751  1.6968  0.5958
 4433TIP3    H237495   2.353   2.994  13.628 -0.5647 -0.6471  1.1881
 4434TIP3   OH237496   4.789   4.765  17.019  0.2413 -0.0745 -0.0233
 4434TIP3    H137497   4.827   4.844  17.058 -0.6982  0.7407 -0.7065
 4434TIP3    H237498   4.719   4.740  17.080 -1.2056  1.1814 -1.0918
 4435TIP3   OH237499   0.791   2.528  15.226  0.2980 -0.1118  0.4709
 4435TIP3    H137500   0.749   2.526  15.141 -0.4575 -0.8142  0.8512
 4435TIP3    H237501   0.750   2.602  15.272  0.6528  0.2201  0.2649
 4436TIP3   OH237502   4.252   5.843  14.713  0.0174  0.1760 -0.6191
 4436TIP3    H137503   4.209   5.852  14.628 -1.3039 -1.4861 -0.1894
 4436TIP3    H237504   4.338   5.806  14.693 -0.3426 -0.3375 -1.2433
 4437TIP3   OH237505   0.490   0.895  15.471  0.0378 -0.3808  0.4224
 4437TIP3    H137506   0.550   0.957  15.429 -1.1523  1.2282  1.0419
 4437TIP3    H237507   0.449   0.849  15.398  0.1672  0.3004 -0.0902
 4438TIP3   OH237508   1.483   3.344  14.110 -0.1819  0.0086  0.1261
 4438TIP3    H137509   1.430   3.276  14.068  0.7305 -1.2684  0.9780
 4438TIP3    H237510   1.493   3.411  14.043  1.7800 -2.2394 -2.0313
 4439TIP3   OH237511   0.421   2.528  14.310 -0.3333  0.5526 -0.4475
 4439TIP3    H137512   0.503   2.575  14.325 -0.1590 -0.0986  0.6860
 4439TIP3    H237513   0.375   2.583  14.246  0.7406  1.2032 -0.7072
 4440TIP3   OH237514   4.076   0.574  14.148  0.7542  0.4306  0.0322
 4440TIP3    H137515   4.015   0.647  14.137  1.4134  0.7535 -1.9358
 4440TIP3    H237516   4.035   0.501  14.102  1.8427  0.6869 -1.4288
 4441TIP3   OH237517   4.389   2.992  16.293  0.2698 -0.2335 -0.3949
 4441TIP3    H137518   4.339   2.913  16.317  0.3250 -0.3210 -0.5666
 4441TIP3    H237519   4.352   3.020  16.210 -0.2255  0.3322  0.0119
 4442TIP3   OH237520   5.145   3.974  17.069  0.1412  0.5095 -0.0196
 4442TIP3    H137521   5.191   3.994  17.151 -0.2912  2.5975 -0.2252
 4442TIP3    H237522   5.143   4.058  17.023 -1.3380 -0.1962 -1.3019
 4443TIP3   OH237523   1.653   1.535  16.101  0.2558  0.0959  0.0822
 4443TIP3    H137524   1.669   1.454  16.150  1.3597 -0.6192 -1.3947
 4443TIP3    H237525   1.701   1.523  16.019  0.0904  2.0872 -0.3401
 4444TIP3   OH237526   5.970   6.576  15.211 -1.0904 -0.3655 -0.0678
 4444TIP3    H137527   6.061   6.556  15.187 -0.8121  0.1789  0.5133
 4444TIP3    H237528   5.971   6.582  15.306 -0.9436  3.1413 -0.1606
 4445TIP3   OH237529   0.266   5.448  14.625  0.2210  0.2151 -0.1521
 4445TIP3    H137530   0.306   5.440  14.711 -1.4409 -0.4112  0.6119
 4445TIP3    H237531   0.316   5.388  14.569 -0.1980 -1.2330  0.9819
 4446TIP3   OH237532   0.085   4.331  16.381  0.2575  0.3467 -0.5770
 4446TIP3    H137533   0.114   4.362  16.467  1.9773 -0.4974 -0.8186
 4446TIP3    H237534   0.048   4.409  16.340  1.0833  1.2073  0.2376
 4447TIP3   OH237535   3.540   1.421  13.596  0.3614  0.5532 -0.1465
 4447TIP3    H137536   3.613   1.361  13.612 -0.0984  0.3123  1.1850
 4447TIP3    H237537   3.464   1.364  13.586  0.5187  0.7133 -2.9478
 4448TIP3   OH237538   2.136   2.468  16.231  0.8195  0.6449 -0.3507
 4448TIP3    H137539   2.094   2.543  16.189  0.0035  0.6486  0.4545
 4448TIP3    H237540   2.084   2.392  16.205  1.3506  0.4108 -0.7617
 4449TIP3   OH237541   2.072   6.063  14.318  0.0440 -0.6717 -0.4788
 4449TIP3    H137542   2.098   6.154  14.328 -3.1600  0.1625  1.3830
 4449TIP3    H237543   2.132   6.015  14.375  0.0327  0.6467  0.6875
 4450TIP3   OH237544   2.561   5.398  13.195  0.2617  0.0963  0.0274
 4450TIP3    H137545   2.512   5.325  13.160  0.4920  0.3644 -0.8916
 4450TIP3    H237546   2.559   5.386  13.290 -1.4842  0.0567  0.0161
 4451TIP3   OH237547   5.705   3.124  14.962 -0.2895  0.1935  0.1052
 4451TIP3    H137548   5.756   3.127  14.881 -1.0044 -2.5016 -0.5649
 4451TIP3    H237549   5.698   3.215  14.990  0.8009  1.1150 -2.3348
 4452TIP3   OH237550   4.139   3.766  15.207  0.0464 -0.1506  0.2851
 4452TIP3    H137551   4.228   3.788  15.178 -0.3382 -0.4353 -1.2299
 4452TIP3    H237552   4.095   3.850  15.213  0.3637 -0.0207  0.8833
 4453TIP3   OH237553   3.700   0.069  13.840  0.1117 -0.1489  0.1404
 4453TIP3    H137554   3.698   0.108  13.752 -1.8061  0.8754  0.5933
 4453TIP3    H237555   3.779   0.105  13.881  0.0628  0.7724 -0.5485
 4454TIP3   OH237556   4.965   0.577  16.511 -0.2566  0.0559 -0.4414
 4454TIP3    H137557   5.034   0.624  16.558 -1.3214  1.8574 -0.5987
 4454TIP3    H237558   5.000   0.564  16.424  1.3764 -2.5129  0.4888
 4455TIP3   OH237559   3.486   5.291  15.048 -0.4458  0.2353  0.8752
 4455TIP3    H137560   3.480   5.292  14.953 -1.8331 -0.5873  0.9272
 4455TIP3    H237561   3.579   5.299  15.066 -0.1243  0.0263 -0.5573
 4456TIP3   OH237562   1.721   3.622  13.960 -0.4542 -0.3013 -0.8338
 4456TIP3    H137563   1.635   3.593  13.929 -0.0316 -1.0593 -1.3466
 4456TIP3    H237564   1.701   3.687  14.027 -1.4288 -0.4206 -0.9799
 4457TIP3   OH237565   3.714   4.913  15.683 -0.4850  0.2523 -0.6033
 4457TIP3    H137566   3.780   4.963  15.731  0.1312 -0.7321 -0.3814
 4457TIP3    H237567   3.699   4.963  15.603  1.5956 -0.1709 -1.3269
 4458TIP3   OH237568   2.818   0.361  14.818 -0.6201 -0.5242 -0.2897
 4458TIP3    H137569   2.757   0.293  14.790  0.9227 -1.3201 -1.9644
 4458TIP3    H237570   2.880   0.314  14.876 -0.8512 -0.0125  0.3832
 4459TIP3   OH237571   5.912   6.196  15.912 -0.3228  0.2625  0.0299
 4459TIP3    H137572   5.959   6.219  15.832  0.5613 -0.4145  0.3355
 4459TIP3    H237573   5.924   6.272  15.969  0.9875 -0.1643  0.3462
 4460TIP3   OH237574   1.888   3.682  15.209 -0.3603  0.4857 -0.6661
 4460TIP3    H137575   1.842   3.602  15.183  0.4328  0.0746 -0.8192
 4460TIP3    H237576   1.885   3.737  15.130  2.0101 -0.7482 -1.7044
 4461TIP3   OH237577   2.916   4.885  13.537 -0.0669 -0.1523  0.0828
 4461TIP3    H137578   2.989   4.886  13.599  0.9326 -0.6037 -1.0443
 4461TIP3    H237579   2.880   4.974  13.542  0.4460  0.0305  0.7725
 4462TIP3   OH237580   3.456   0.382  16.085 -0.0257 -0.3272 -0.1895
 4462TIP3    H137581   3.485   0.469  16.112  2.6879 -1.1806 -0.1035
 4462TIP3    H237582   3.508   0.361  16.008  0.0738 -2.2203  0.3257
 4463TIP3   OH237583   1.638   0.619  16.010 -0.0299  0.4423 -0.4484
 4463TIP3    H137584   1.577   0.587  15.945 -1.6885 -1.8420  2.0362
 4463TIP3    H237585   1.724   0.589  15.980 -0.7807 -0.7531 -1.4517
 4464TIP3   OH237586   3.408   4.548  15.075  0.3603  0.7929  0.1994
 4464TIP3    H137587   3.383   4.458  15.099 -1.3828  1.2243  0.1059
 4464TIP3    H237588   3.471   4.574  15.142 -0.9783  0.3539  1.6951
 4465TIP3   OH237589   2.608   2.081  14.210  0.0611  0.2100 -0.0768
 4465TIP3    H137590   2.592   2.025  14.134 -0.9042 -0.8449  0.8705
 4465TIP3    H237591   2.550   2.156  14.198  0.8192  0.6695 -0.9834
 4466TIP3   OH237592   0.963   2.745  16.450 -0.1071 -0.5669 -0.1784
 4466TIP3    H137593   0.954   2.840  16.443  0.6698 -0.3579  1.2759
 4466TIP3    H237594   1.051   2.727  16.416 -0.3820 -0.8100 -0.7639
 4467TIP3   OH237595   4.721   0.947  14.738 -0.5603 -0.0896 -0.3364
 4467TIP3    H137596   4.681   1.021  14.783  0.0659  0.6003 -0.8893
 4467TIP3    H237597   4.795   0.985  14.690 -0.3897 -1.0276 -0.8408
 4468TIP3   OH237598   3.149   1.896  16.939 -0.1191  0.1285  0.6115
 4468TIP3    H137599   3.124   1.983  16.909 -0.0103 -0.1835 -0.4161
 4468TIP3    H237600   3.238   1.907  16.973 -0.1054  0.4179  0.4868
 4469TIP3   OH237601   2.367   6.054  15.331 -0.9158  0.3335  0.2086
 4469TIP3    H137602   2.372   6.133  15.385 -0.9296  1.4624 -1.3797
 4469TIP3    H237603   2.456   6.041  15.298 -1.1241  0.2707 -0.3378
 4470TIP3   OH237604   0.191   1.039  15.234  0.1824  0.3279 -0.4871
 4470TIP3    H137605   0.231   1.062  15.150  2.4666  0.4990  0.5801
 4470TIP3    H237606   0.223   1.104  15.296 -0.2303 -0.6719  0.8430
 4471TIP3   OH237607   4.416   4.263  15.642  0.6601  0.1283 -0.0752
 4471TIP3    H137608   4.478   4.284  15.573 -1.7027  2.0804 -1.7880
 4471TIP3    H237609   4.348   4.210  15.599  0.0487 -0.1758  1.1973
 4472TIP3   OH237610   0.711   5.824  13.540 -0.6565 -0.4399 -0.0025
 4472TIP3    H137611   0.757   5.853  13.461  1.5875 -0.5137  1.1917
 4472TIP3    H237612   0.640   5.887  13.551 -0.6080 -0.0341 -1.6728
 4473TIP3   OH237613   4.907   0.546  13.358 -0.5962  0.6397 -0.1302
 4473TIP3    H137614   4.999   0.520  13.365 -0.4738  0.9785 -0.4523
 4473TIP3    H237615   4.881   0.519  13.270 -1.1257 -0.4598  0.3527
 4474TIP3   OH237616   0.121   5.007  14.445  0.5542  0.0785  0.0888
 4474TIP3    H137617   0.172   4.945  14.393  2.1578  0.4268  1.1937
 4474TIP3    H237618   0.127   5.089  14.396  1.2083  0.1556  0.2851
 4475TIP3   OH237619   1.060   4.694  13.642 -0.4077 -0.1945 -0.4822
 4475TIP3    H137620   1.125   4.629  13.617 -1.1007 -0.6908 -1.0435
 4475TIP3    H237621   0.993   4.690  13.574 -0.6621  0.8419 -0.3234
 4476TIP3   OH237622   5.470   2.500  15.086  0.1817  0.0912 -0.3144
 4476TIP3    H137623   5.455   2.502  15.181 -1.3551 -1.2420 -0.4890
 4476TIP3    H237624   5.522   2.421  15.072 -0.6810 -0.4171 -0.6997
 4477TIP3   OH237625   4.372   4.640  15.183  0.1780 -0.1689 -0.0975
 4477TIP3    H137626   4.372   4.544  15.180 -0.2908 -0.2512  1.4535
 4477TIP3    H237627   4.390   4.667  15.093 -0.8666 -1.6987 -0.8045
 4478TIP3   OH237628   1.501   2.607  14.487 -0.4457 -0.3846  0.1575
 4478TIP3    H137629   1.430   2.552  14.521  1.2762 -2.0464  1.2425
 4478TIP3    H237630   1.512   2.578  14.397 -1.4871  0.2815 -0.2040
 4479TIP3   OH237631   1.413   0.113  16.638  0.4102 -0.3414  0.2198
 4479TIP3    H137632   1.404   0.040  16.698 -0.6965  0.2985  0.8758
 4479TIP3    H237633   1.458   0.077  16.562 -1.4354 -2.0798 -0.1150
 4480TIP3   OH237634   1.740   3.302  14.813  0.4241  0.1323 -0.1692
 4480TIP3    H137635   1.792   3.278  14.736  0.6767  0.2093 -0.0214
 4480TIP3    H237636   1.795   3.279  14.888  0.0526 -0.2399 -0.0017
 4481TIP3   OH237637   2.555   4.614  13.633 -0.3045  0.2991 -0.5668
 4481TIP3    H137638   2.486   4.661  13.679  0.2866  1.4590 -0.8370
 4481TIP3    H237639   2.518   4.526  13.618 -1.3423  0.5977  0.1232
 4482TIP3   OH237640   1.387   0.860  16.153 -0.2495 -0.0947  0.3237
 4482TIP3    H137641   1.325   0.838  16.222  2.1853 -1.7180  2.1853
 4482TIP3    H237642   1.398   0.778  16.104  1.4019 -0.2672  0.9198
 4483TIP3   OH237643   3.948   2.568  15.188 -0.0773 -0.5447  0.8803
 4483TIP3    H137644   3.950   2.539  15.279 -0.1419 -1.4895  0.5877
 4483TIP3    H237645   3.856   2.569  15.164 -0.2046  1.3484  1.3217
 4484TIP3   OH237646   2.182   5.625  15.311  0.0108  0.1267  0.3162
 4484TIP3    H137647   2.182   5.535  15.345  0.7447 -0.3698 -0.9526
 4484TIP3    H237648   2.093   5.657  15.330 -0.5735 -1.1938 -0.0311
 4485TIP3   OH237649   5.508   0.325  14.018  0.4377 -0.4682  0.1525
 4485TIP3    H137650   5.457   0.284  13.948 -0.1394  0.3256  0.0952
 4485TIP3    H237651   5.579   0.263  14.035  0.5443 -0.7140 -1.0758
 4486TIP3   OH237652   6.165   2.263  14.313 -0.1212 -0.4549  0.5327
 4486TIP3    H137653   6.112   2.280  14.235  0.1354  2.3404  0.8789
 4486TIP3    H237654   6.216   2.185  14.291 -0.2695  0.0890 -2.0059
 4487TIP3   OH237655   5.505   6.345  15.877  0.0272  0.3280 -0.3460
 4487TIP3    H137656   5.550   6.375  15.956 -0.1058  0.0817 -0.1748
 4487TIP3    H237657   5.450   6.272  15.907 -1.2779  1.2648 -0.3493
 4488TIP3   OH237658   1.989   1.150  14.549  0.2804 -1.0144 -0.2509
 4488TIP3    H137659   1.904   1.131  14.588 -0.0143 -1.9910 -1.3328
 4488TIP3    H237660   2.048   1.085  14.587  0.4512 -0.6173  0.1661
 4489TIP3   OH237661   4.765   3.636  14.481  0.0285  0.0491 -0.0558
 4489TIP3    H137662   4.696   3.667  14.540  0.6788  0.0767  0.7164
 4489TIP3    H237663   4.719   3.590  14.411 -0.8812  1.5092 -0.4692
 4490TIP3   OH237664   3.919   3.364  16.233 -0.6389 -0.1424 -0.3033
 4490TIP3    H137665   3.984   3.321  16.178 -0.3859  2.7634 -2.4724
 4490TIP3    H237666   3.969   3.428  16.283 -1.5281  0.5879 -0.3275
 4491TIP3   OH237667   4.295   2.252  14.432 -0.5415 -0.1786 -0.4242
 4491TIP3    H137668   4.367   2.228  14.373 -0.1675  2.6486 -1.2723
 4491TIP3    H237669   4.338   2.277  14.513 -0.6145  0.5743 -0.6072
 4492TIP3   OH237670   5.132   5.173  14.532  0.0423  0.2706  0.2467
 4492TIP3    H137671   5.213   5.210  14.496 -0.6528 -0.2644 -2.0561
 4492TIP3    H237672   5.147   5.079  14.532 -0.7215  0.1335 -0.6745
 4493TIP3   OH237673   4.773   1.297  15.392 -0.5876  0.2100 -0.6359
 4493TIP3    H137674   4.850   1.240  15.397  0.2272  1.3534  0.5454
 4493TIP3    H237675   4.742   1.288  15.302 -1.2370 -3.0137 -0.2306
 4494TIP3   OH237676   4.660   3.536  14.148 -0.1536  0.1686 -0.2186
 4494TIP3    H137677   4.643   3.511  14.057 -0.6938 -1.7595  0.3654
 4494TIP3    H237678   4.737   3.484  14.172 -0.7167 -0.2415  0.7581
 4495TIP3   OH237679   6.105   2.240  15.510 -0.6709  0.3320  0.3071
 4495TIP3    H137680   6.174   2.181  15.481 -0.2773  1.5565 -1.4181
 4495TIP3    H237681   6.148   2.296  15.575 -0.1817  0.6994 -0.3199
 4496TIP3   OH237682   0.265   1.916  14.988 -0.3214 -0.0411  0.2104
 4496TIP3    H137683   0.309   1.922  15.072  0.2351  0.2009 -0.0956
 4496TIP3    H237684   0.336   1.911  14.924 -0.7396  0.0204 -0.2624
 4497TIP3   OH237685   4.919   3.983  16.423 -0.1742 -0.6879  0.4691
 4497TIP3    H137686   4.858   3.909  16.430 -1.2279  0.0401 -0.6096
 4497TIP3    H237687   4.966   3.982  16.506 -1.2407 -1.6378  1.1076
 4498TIP3   OH237688   3.361   5.077  16.966  0.3294 -0.1344 -0.7463
 4498TIP3    H137689   3.437   5.023  16.943  1.0403  0.8448 -0.7212
 4498TIP3    H237690   3.379   5.107  17.055  0.2997  0.7557 -1.0349
 4499TIP3   OH237691   5.116   3.477  15.243 -0.6865 -0.3088  0.0240
 4499TIP3    H137692   5.073   3.560  15.223 -3.7442 -1.6873  0.2252
 4499TIP3    H237693   5.150   3.488  15.332 -0.8585  0.7652 -0.0278
 4500TIP3   OH237694   4.010   0.958  16.239 -0.2667 -0.7453  0.1087
 4500TIP3    H137695   4.068   0.973  16.165  0.4590 -1.6048  0.4871
 4500TIP3    H237696   4.059   0.992  16.315 -0.6727 -0.5851  0.3020
 4501TIP3   OH237697   0.576   1.393  16.563  0.0830  0.0087 -0.4105
 4501TIP3    H137698   0.484   1.388  16.539  0.0159 -0.3651 -0.0867
 4501TIP3    H237699   0.580   1.351  16.649  0.6384 -0.4147 -0.6394
 4502TIP3   OH237700   0.711   2.633  16.459 -0.0655  0.4403 -0.0325
 4502TIP3    H137701   0.723   2.628  16.364  0.9172 -0.9064  0.1417
 4502TIP3    H237702   0.779   2.693  16.489 -0.4378  0.9418 -0.1776
 4503TIP3   OH237703   5.709   6.197  15.412 -0.2049 -0.2540 -0.3905
 4503TIP3    H137704   5.756   6.255  15.352  0.8936 -0.5968  0.1011
 4503TIP3    H237705   5.696   6.249  15.491  0.5785 -0.5804 -0.0330
 4504TIP3   OH237706   0.139   4.497  16.616  0.0235 -0.0941  0.2134
 4504TIP3    H137707   0.048   4.496  16.644 -0.3715  1.5061 -0.8946
 4504TIP3    H237708   0.144   4.567  16.551  1.3377 -2.2651 -2.1872
 4505TIP3   OH237709   4.402   6.119  17.084  0.4376 -0.4848  0.1655
 4505TIP3    H137710   4.420   6.103  17.177 -0.5331 -0.6811  0.3349
 4505TIP3    H237711   4.382   6.032  17.049  2.0814 -0.6083 -0.5405
 4506TIP3   OH237712   4.164   6.066  14.607 -0.6600  0.6002 -0.0697
 4506TIP3    H137713   4.099   6.122  14.565 -0.9526  0.7097  0.5246
 4506TIP3    H237714   4.140   6.066  14.699  0.8142  1.4883  0.3422
 4507TIP3   OH237715   0.819   4.855  16.224 -0.6403 -0.5540 -0.1418
 4507TIP3    H137716   0.747   4.819  16.276 -0.7917  0.0596  0.0806
 4507TIP3    H237717   0.856   4.779  16.179 -2.2467 -0.7327 -1.2981
 4508TIP3   OH237718   1.741   3.602  16.176 -0.1477  0.4111  0.5171
 4508TIP3    H137719   1.712   3.647  16.097  1.8382 -0.3901 -0.7607
 4508TIP3    H237720   1.709   3.513  16.166  0.7084  0.1229  0.2323
 4509TIP3   OH237721   3.481   6.419  15.624 -0.1670 -0.1020  0.3836
 4509TIP3    H137722   3.572   6.391  15.624 -0.0806 -0.0612 -2.3266
 4509TIP3    H237723   3.456   6.419  15.717  1.4976 -3.6070  1.0007
 4510TIP3   OH237724   5.286   5.063  16.561  0.1897  0.2334 -0.0745
 4510TIP3    H137725   5.238   4.985  16.531 -0.5929  1.0137 -0.9153
 4510TIP3    H237726   5.378   5.038  16.554 -0.0563 -1.0405  0.8569
 4511TIP3   OH237727   0.018   6.673  15.841  0.4632  0.2811  0.1186
 4511TIP3    H137728   0.025   6.610  15.769 -0.4334 -1.6675  1.6367
 4511TIP3    H237729  -0.015   6.753  15.800  1.3974 -0.2819 -1.8523
 4512TIP3   OH237730   0.328   1.491  14.850  0.3183  0.3070  0.1296
 4512TIP3    H137731   0.297   1.427  14.786  0.8628 -0.6637  0.8135
 4512TIP3    H237732   0.264   1.562  14.846 -2.2799 -1.7616  1.7144
 4513TIP3   OH237733   5.648   5.503  16.791 -0.3317 -0.0850 -0.2385
 4513TIP3    H137734   5.625   5.452  16.869  1.4804 -1.2046 -0.3966
 4513TIP3    H237735   5.567   5.549  16.768 -1.8188 -2.2303  0.4240
 4514TIP3   OH237736   2.926   3.647  14.774 -0.2743 -0.6905  0.2152
 4514TIP3    H137737   2.897   3.733  14.746  1.3544  0.1257  0.9159
 4514TIP3    H237738   2.879   3.630  14.856  1.1323  0.6174  1.3459
 4515TIP3   OH237739   1.825   4.930  14.837  0.2874 -0.3258 -0.2119
 4515TIP3    H137740   1.836   4.843  14.874 -0.9495 -0.4786 -0.1522
 4515TIP3    H237741   1.819   4.988  14.912 -2.1290 -0.6240 -0.0860
 4516TIP3   OH237742   2.965   1.686  17.389 -0.1659 -0.3639 -0.1944
 4516TIP3    H137743   2.976   1.591  17.381 -3.4654 -0.7602 -2.5733
 4516TIP3    H237744   2.894   1.696  17.452 -1.4265  0.2783 -1.6510
 4517TIP3   OH237745   2.378   5.300  16.554 -0.1533  0.7495 -0.0194
 4517TIP3    H137746   2.410   5.377  16.600  1.6531  0.6360 -0.9864
 4517TIP3    H237747   2.340   5.335  16.473  1.4315  0.6014 -0.8548
 4518TIP3   OH237748   1.611   0.717  14.379 -0.3216  0.1810  0.2030
 4518TIP3    H137749   1.682   0.762  14.334 -0.3738  1.6452  1.5265
 4518TIP3    H237750   1.566   0.669  14.310  0.7981  0.7474 -0.9629
 4519TIP3   OH237751   1.562   2.425  15.315 -0.5750  0.2028  0.0453
 4519TIP3    H137752   1.466   2.434  15.319 -0.3500  3.6900  1.6539
 4519TIP3    H237753   1.587   2.399  15.404  0.0318 -0.1242 -0.2185
 4520TIP3   OH237754   2.897   5.332  17.062  0.3589 -0.1839 -0.0624
 4520TIP3    H137755   2.855   5.300  16.983  0.1092 -2.6430  0.9739
 4520TIP3    H237756   2.827   5.337  17.127  0.7082  1.0006  0.2594
 4521TIP3   OH237757   2.349   2.307  16.345 -0.6526  0.7037 -0.7862
 4521TIP3    H137758   2.408   2.235  16.323 -0.7741  0.7203 -1.1717
 4521TIP3    H237759   2.293   2.317  16.268 -1.0604  0.7892 -0.4862
 4522TIP3   OH237760   4.462   1.352  14.081 -0.2069 -0.4473  0.6827
 4522TIP3    H137761   4.446   1.290  14.153 -1.7460 -1.8120 -0.7403
 4522TIP3    H237762   4.413   1.316  14.007  1.0852  1.0518 -1.0005
 4523TIP3   OH237763   4.446   1.124  16.281  0.2230 -1.2640 -0.3691
 4523TIP3    H137764   4.490   1.192  16.332 -1.1969 -0.1674 -0.5419
 4523TIP3    H237765   4.416   1.169  16.202 -0.4303 -2.1731 -0.6522
 4524TIP3   OH237766   3.324   5.122  15.276  0.8271 -0.2205 -0.0861
 4524TIP3    H137767   3.242   5.152  15.316 -0.5248  0.3074 -2.9886
 4524TIP3    H237768   3.347   5.190  15.213  2.6512 -1.0997 -0.4455
 4525TIP3   OH237769   3.505   2.403  15.535 -0.2549  0.0011 -0.2736
 4525TIP3    H137770   3.499   2.350  15.614 -1.2735  0.8204  0.2109
 4525TIP3    H237771   3.561   2.352  15.476  1.2822 -0.2112  1.2898
 4526TIP3   OH237772   2.835   5.164  14.231  0.0702  0.2206 -0.4256
 4526TIP3    H137773   2.880   5.081  14.215  0.6998  0.1991  1.2185
 4526TIP3    H237774   2.742   5.142  14.235  0.2442 -0.4496  0.1196
 4527TIP3   OH237775   6.355   0.840  16.425 -0.1037  0.3835  0.0285
 4527TIP3    H137776   6.281   0.896  16.447  0.5059  0.4601  2.1432
 4527TIP3    H237777   6.429   0.878  16.472  0.7271 -1.1190  0.0057
 4528TIP3   OH237778   0.901   0.981  14.123 -0.2317 -0.8372  0.1785
 4528TIP3    H137779   0.981   1.033  14.115 -0.6919 -0.2700 -1.1535
 4528TIP3    H237780   0.887   0.946  14.034 -1.7889 -0.4010  0.2248
 4529TIP3   OH237781   5.733   2.787  14.819  0.0859  0.0141 -0.0501
 4529TIP3    H137782   5.685   2.715  14.777 -2.3604  1.5632 -0.1357
 4529TIP3    H237783   5.775   2.832  14.746  0.0270 -0.2240 -0.2349
 4530TIP3   OH237784   3.121   2.341  16.063  0.2239  0.2937 -0.6466
 4530TIP3    H137785   3.067   2.397  16.008  0.0791  1.6894  0.8244
 4530TIP3    H237786   3.156   2.401  16.129  0.5386 -1.2624  0.6374
 4531TIP3   OH237787   0.829   1.089  15.928  0.0284 -0.4377 -0.0938
 4531TIP3    H137788   0.911   1.131  15.900  0.0984 -0.0586  0.6553
 4531TIP3    H237789   0.826   1.103  16.023 -2.0128  1.5865 -0.3742
 4532TIP3   OH237790   1.971   6.294  16.467 -0.1490 -0.0796 -1.1406
 4532TIP3    H137791   1.904   6.318  16.402  1.3218  3.6424 -1.5566
 4532TIP3    H237792   2.004   6.378  16.498  2.7416 -1.7698  0.7623
 4533TIP3   OH237793   1.203   1.563  16.706 -0.0978 -0.1789 -0.0626
 4533TIP3    H137794   1.119   1.576  16.750 -0.1017 -0.7167  0.0939
 4533TIP3    H237795   1.254   1.511  16.767  1.1694  1.9819  0.8208
 4534TIP3   OH237796   4.362   6.253  16.239  0.6109  0.4740  0.0755
 4534TIP3    H137797   4.356   6.158  16.233 -1.2276  0.5217  0.7022
 4534TIP3    H237798   4.421   6.269  16.313 -1.3498 -0.2283  1.8766
 4535TIP3   OH237799   4.553   2.094  13.728  0.0008 -0.2869  0.6926
 4535TIP3    H137800   4.579   2.076  13.638 -1.7533  0.1212  0.0692
 4535TIP3    H237801   4.481   2.156  13.720 -0.7670 -0.9093  2.3269
 4536TIP3   OH237802   2.088   0.467  15.712  0.2521  0.0526 -0.1564
 4536TIP3    H137803   2.095   0.376  15.741 -2.5133 -0.5560 -1.0511
 4536TIP3    H237804   2.147   0.516  15.770  2.8958 -2.4256 -0.5699
 4537TIP3   OH237805   3.659   1.049  14.086 -0.1685 -0.0671  0.2164
 4537TIP3    H137806   3.707   1.113  14.033 -0.7285  0.1770 -0.0088
 4537TIP3    H237807   3.567   1.072  14.074 -0.5104 -1.9364 -1.2191
 4538TIP3   OH237808   6.133   0.282  16.160  0.2168 -0.5788 -0.0648
 4538TIP3    H137809   6.056   0.274  16.216  0.1138 -1.0886 -0.2769
 4538TIP3    H237810   6.193   0.214  16.190  1.1061  0.5846  0.8905
 4539TIP3   OH237811   5.893   2.657  16.037 -0.1630  0.4801  0.1892
 4539TIP3    H137812   5.971   2.703  16.069  0.9362 -2.1514  1.5717
 4539TIP3    H237813   5.820   2.711  16.067  1.0678  2.4102 -0.1206
 4540TIP3   OH237814   2.325   4.264  16.665  0.8349 -0.1928  0.3840
 4540TIP3    H137815   2.342   4.200  16.734 -0.7488  0.4920  1.4493
 4540TIP3    H237816   2.271   4.331  16.706  0.6572  0.7362 -1.2705
 4541TIP3   OH237817   6.446   3.216  15.194 -0.7550  0.0420 -0.0409
 4541TIP3    H137818   6.414   3.296  15.152  0.1438  1.5154  1.9381
 4541TIP3    H237819   6.370   3.159  15.200 -1.7074  1.2479 -0.3742
 4542TIP3   OH237820   6.577   4.380  15.865  0.0599 -0.4850  0.2069
 4542TIP3    H137821   6.587   4.452  15.927  2.0285 -0.0082 -0.5894
 4542TIP3    H237822   6.622   4.306  15.906  2.5445  0.1841 -1.0982
 4543TIP3   OH237823   5.455   0.427  14.901  0.0344  0.4092 -0.0363
 4543TIP3    H137824   5.522   0.380  14.950  1.2203 -0.6107 -2.4784
 4543TIP3    H237825   5.483   0.518  14.903 -0.0463  0.4245  1.2828
 4544TIP3   OH237826   1.311   0.730  14.936 -0.1682 -0.3112  0.7523
 4544TIP3    H137827   1.285   0.647  14.975 -0.4437 -0.8954 -0.6138
 4544TIP3    H237828   1.306   0.715  14.841 -0.2892  1.2760  0.4726
 4545TIP3   OH237829   4.697   6.589  14.492 -0.1662  0.4059 -0.3304
 4545TIP3    H137830   4.736   6.633  14.567  0.6421 -0.9027  0.0608
 4545TIP3    H237831   4.683   6.499  14.522 -2.4897  0.5457 -0.8396
 4546TIP3   OH237832   4.458   6.352  16.732  0.8072 -0.0923 -0.1441
 4546TIP3    H137833   4.392   6.335  16.799 -2.2536  2.6268 -2.1362
 4546TIP3    H237834   4.507   6.427  16.765  0.3358  0.2705 -0.2590
 4547TIP3   OH237835   2.706   1.322  16.991  0.4100  0.7988  0.3428
 4547TIP3    H137836   2.782   1.286  16.944  0.9547  1.7228  0.4827
 4547TIP3    H237837   2.660   1.245  17.024  0.7694  0.1860 -0.5465
 4548TIP3   OH237838   0.382   6.184  16.167 -0.5428  0.4141 -0.2890
 4548TIP3    H137839   0.348   6.095  16.170  0.1505  0.1611  1.8258
 4548TIP3    H237840   0.305   6.240  16.170 -0.9478 -0.1207 -0.6303
 4549TIP3   OH237841   3.436   6.097  16.732  0.5077 -0.4377  0.0581
 4549TIP3    H137842   3.361   6.037  16.730 -0.7844  1.1145 -1.0466
 4549TIP3    H237843   3.492   6.066  16.661  0.8886 -1.5371  0.8095
 4550TIP3   OH237844   6.572   3.696  15.265 -0.0806 -0.5327  0.0807
 4550TIP3    H137845   6.566   3.648  15.183 -0.9286 -0.9658  0.3846
 4550TIP3    H237846   6.521   3.775  15.251  0.7610 -0.0306 -0.1973
 4551TIP3   OH237847   0.527   1.548  15.108  0.0098  0.6574 -0.0242
 4551TIP3    H137848   0.516   1.602  15.030 -0.1684  0.7744  0.0827
 4551TIP3    H237849   0.591   1.596  15.161  1.2031 -0.1032 -0.7164
 4552TIP3   OH237850   3.988   2.916  14.734 -0.2505  0.8560  0.5174
 4552TIP3    H137851   3.954   2.988  14.788 -1.2752 -0.2742  1.4264
 4552TIP3    H237852   4.081   2.912  14.756 -0.7487  0.0353  2.7365
 4553TIP3   OH237853   1.233   1.463  15.162  0.2641  0.1563 -0.6166
 4553TIP3    H137854   1.280   1.380  15.150  0.0347  0.0197 -0.5731
 4553TIP3    H237855   1.282   1.508  15.231 -0.2650 -0.4321  0.1483
 4554TIP3   OH237856   1.710   2.477  15.069 -0.4122 -0.2835 -0.3020
 4554TIP3    H137857   1.672   2.460  15.156 -0.3468 -0.7282 -0.3566
 4554TIP3    H237858   1.634   2.479  15.011 -0.3681 -1.1690 -0.4105
 4555TIP3   OH237859   5.662   5.851  15.039 -0.2869  0.1763 -0.0381
 4555TIP3    H137860   5.579   5.845  15.086 -0.8204 -1.9251 -1.1060
 4555TIP3    H237861   5.728   5.825  15.104 -0.9324 -1.9219 -0.1236
 4556TIP3   OH237862   0.945   1.498  16.024 -0.4682  0.2663 -0.6375
 4556TIP3    H137863   0.888   1.424  16.042 -0.0093  0.2259  0.7551
 4556TIP3    H237864   0.940   1.553  16.103  0.2689  1.0065 -1.0809
 4557TIP3   OH237865   5.863   5.472  15.035  0.2305 -0.7252  0.2272
 4557TIP3    H137866   5.796   5.497  14.972  0.5506 -0.4729 -0.0165
 4557TIP3    H237867   5.910   5.553  15.055  0.6098 -0.9364  0.2236
 4558TIP3   OH237868   0.430   5.126  17.023  0.2636  0.4044 -0.4080
 4558TIP3    H137869   0.353   5.179  17.048 -0.7101 -0.3540 -1.6612
 4558TIP3    H237870   0.500   5.190  17.011  0.0413  1.0567  1.4224
 4559TIP3   OH237871   4.696   3.061  16.319  0.6168 -0.0363  0.2526
 4559TIP3    H137872   4.747   2.981  16.333 -0.2393 -0.7940 -0.8294
 4559TIP3    H237873   4.605   3.033  16.332  0.1941  0.3996 -1.6221
 4560TIP3   OH237874   6.689   0.490  13.518  0.1275  0.1027 -0.2156
 4560TIP3    H137875   6.662   0.492  13.610 -1.2738  2.2092 -0.5967
 4560TIP3    H237876   6.615   0.449  13.473 -0.4747  1.6620 -0.7052
 4561TIP3   OH237877   6.256   5.844  16.367  0.8197 -0.4230 -0.0360
 4561TIP3    H137878   6.234   5.867  16.277  2.0208  0.4940 -0.1188
 4561TIP3    H237879   6.331   5.899  16.389  0.9933 -1.1312  1.2951
 4562TIP3   OH237880   5.306   0.410  16.646  0.0436  0.2935 -0.1632
 4562TIP3    H137881   5.348   0.335  16.604 -1.1632 -0.3667 -0.2281
 4562TIP3    H237882   5.241   0.372  16.704 -0.8830  1.2868 -0.5180
 4563TIP3   OH237883   4.034   5.789  13.773  0.3642 -0.3612 -0.3310
 4563TIP3    H137884   4.071   5.763  13.689  0.2798 -3.8070  0.5682
 4563TIP3    H237885   3.987   5.712  13.804 -1.9881  1.6855  1.6634
 4564TIP3   OH237886   4.807   2.129  14.186  0.2954 -0.3814  0.0789
 4564TIP3    H137887   4.741   2.090  14.130  1.4315 -0.8465 -0.9811
 4564TIP3    H237888   4.782   2.102  14.275  0.7268 -3.1888 -0.5399
 4565TIP3   OH237889   6.211   0.583  15.804  0.1043 -0.0265 -0.1982
 4565TIP3    H137890   6.259   0.514  15.848 -0.9341 -0.8785 -0.3576
 4565TIP3    H237891   6.135   0.599  15.860  0.5633  1.3429  0.0885
 4566TIP3   OH237892   5.365   4.579  14.276  0.4190  0.5725 -0.0779
 4566TIP3    H137893   5.331   4.509  14.331  1.0904  0.8520  0.7222
 4566TIP3    H237894   5.323   4.658  14.309 -1.0089  0.4853 -1.5384
 4567TIP3   OH237895   1.287   6.646  16.305 -0.2878 -0.5687  0.0160
 4567TIP3    H137896   1.254   6.616  16.390  1.0630  0.6404  1.0171
 4567TIP3    H237897   1.230   6.719  16.283 -1.4457 -1.6671 -0.7814
 4568TIP3   OH237898   2.424   6.018  15.676 -0.6485  0.3887  0.5015
 4568TIP3    H137899   2.519   6.020  15.668 -0.3523 -3.2827  1.2800
 4568TIP3    H237900   2.393   5.976  15.596 -1.4370  0.0789  0.9479
 4569TIP3   OH237901   2.878   4.447  14.095  0.1827  0.3091 -0.5955
 4569TIP3    H137902   2.955   4.503  14.100 -0.3755  1.1498 -1.2212
 4569TIP3    H237903   2.851   4.451  14.003  1.4086 -2.7573 -1.2175
 4570TIP3   OH237904   3.057   2.761  14.500 -0.0984 -0.3548 -0.3555
 4570TIP3    H137905   3.068   2.809  14.583 -0.3705 -0.1639 -0.4291
 4570TIP3    H237906   2.979   2.708  14.514  0.2248 -0.8158 -0.2600
 4571TIP3   OH237907   3.393   4.260  14.359  0.0007  0.2971  0.4569
 4571TIP3    H137908   3.367   4.319  14.288  1.8035 -1.5999 -1.9601
 4571TIP3    H237909   3.488   4.257  14.354  0.0577 -1.2875  1.7751
 4572TIP3   OH237910   4.276   0.962  16.419 -0.3180  0.4775 -0.1439
 4572TIP3    H137911   4.336   1.027  16.382  0.2023  0.9927  1.5307
 4572TIP3    H237912   4.310   0.878  16.387  1.7607  0.6965  1.2542
 4573TIP3   OH237913   5.332   1.308  15.313 -0.5368 -0.4466  0.0419
 4573TIP3    H137914   5.408   1.288  15.259 -0.7491  1.6480 -1.1228
 4573TIP3    H237915   5.269   1.239  15.291 -0.1322 -0.3922 -1.3957
 4574TIP3   OH237916   3.641   4.587  14.882  0.3818 -0.2624  0.9467
 4574TIP3    H137917   3.697   4.662  14.866  1.0462 -0.7948  0.7211
 4574TIP3    H237918   3.597   4.607  14.965 -1.2464  1.4218 -0.2494
 4575TIP3   OH237919   2.549   2.316  15.489 -0.0593 -0.6012 -0.3555
 4575TIP3    H137920   2.584   2.383  15.431 -1.6076 -0.1519 -0.8105
 4575TIP3    H237921   2.619   2.251  15.496  1.4252  0.9694 -0.0199
 4576TIP3   OH237922   2.996   1.557  15.870 -0.1482  0.0566  0.3666
 4576TIP3    H137923   2.916   1.510  15.849  0.3184 -1.1752  1.2638
 4576TIP3    H237924   2.982   1.589  15.960  0.9076 -1.4290  1.0980
 4577TIP3   OH237925   4.872   0.792  15.049 -0.1524  0.1461 -0.2388
 4577TIP3    H137926   4.813   0.860  15.018 -0.0348  0.8815  1.0506
 4577TIP3    H237927   4.952   0.839  15.073  0.8107 -0.7682 -1.5114
 4578TIP3   OH237928   3.971   0.732  16.760 -0.0090  0.0731  0.6549
 4578TIP3    H137929   4.022   0.794  16.812 -0.2415 -1.2463  2.5387
 4578TIP3    H237930   4.015   0.730  16.675  1.8447  0.4980  1.5618
 4579TIP3   OH237931   2.276   1.914  15.254 -0.2893 -0.1463 -0.1376
 4579TIP3    H137932   2.301   1.834  15.300 -0.5557 -0.4362 -0.4949
 4579TIP3    H237933   2.205   1.888  15.196 -1.5394  0.6969  0.9635
 4580TIP3   OH237934   5.423   5.813  14.899  0.4375 -0.1393  0.3890
 4580TIP3    H137935   5.478   5.802  14.822 -2.3668 -0.4812 -1.7470
 4580TIP3    H237936   5.413   5.908  14.908 -0.6129 -0.1090 -0.8210
 4581TIP3   OH237937   2.635   0.518  14.930 -0.2245  0.0744 -0.4843
 4581TIP3    H137938   2.570   0.527  14.861  0.5990  0.4187 -1.2274
 4581TIP3    H237939   2.714   0.489  14.886  0.0350 -0.7102  0.4625
 4582TIP3   OH237940   2.230   3.582  14.683 -0.1115  0.0639 -0.1875
 4582TIP3    H137941   2.295   3.615  14.745  1.3547  0.0857 -1.6803
 4582TIP3    H237942   2.273   3.588  14.598 -2.5862  1.4468 -1.4515
 4583TIP3   OH237943   6.450   6.629  15.964 -0.0255  0.1392  0.1509
 4583TIP3    H137944   6.539   6.609  15.992 -0.3163  0.2154  1.1404
 4583TIP3    H237945   6.461   6.679  15.883  0.8387  0.6599  0.5871
 4584TIP3   OH237946   1.332   0.645  15.261 -0.1247 -0.4585 -0.2649
 4584TIP3    H137947   1.311   0.586  15.333 -0.5265 -0.1266 -0.1062
 4584TIP3    H237948   1.360   0.588  15.190 -0.4694 -0.8357 -0.0982
 4585TIP3   OH237949   1.451   4.283  16.277  0.3483  0.1705 -0.4284
 4585TIP3    H137950   1.422   4.311  16.190  2.4666  1.3119 -0.8260
 4585TIP3    H237951   1.465   4.364  16.325  1.6470 -0.3579  0.1197
 4586TIP3   OH237952   2.182   4.506  14.751  0.6717 -1.0344 -0.3893
 4586TIP3    H137953   2.235   4.428  14.736 -1.2470 -2.5180  0.0451
 4586TIP3    H237954   2.102   4.473  14.792  0.1124  1.2832  0.5393
 4587TIP3   OH237955   2.920   6.644  15.115  0.4276 -0.2581 -0.0919
 4587TIP3    H137956   3.012   6.621  15.103  0.3725  0.3721 -2.2524
 4587TIP3    H237957   2.876   6.602  15.041 -0.5862  1.5745 -0.5734
 4588TIP3   OH237958   4.446   5.451  16.597  0.0728  0.6734  0.5101
 4588TIP3    H137959   4.385   5.506  16.546 -1.2134 -1.1347 -0.0017
 4588TIP3    H237960   4.405   5.444  16.683  0.8753  1.4866  0.9820
 4589TIP3   OH237961   6.115   5.073  17.092  0.2347  0.1252  0.1557
 4589TIP3    H137962   6.181   5.008  17.070 -0.2629  0.4167 -2.4657
 4589TIP3    H237963   6.165   5.152  17.114  0.7695 -0.3584  0.7251
 4590TIP3   OH237964   5.998   1.932  16.378  0.0477  0.0437 -0.4996
 4590TIP3    H137965   6.025   2.014  16.336  1.0282 -0.1112 -0.1952
 4590TIP3    H237966   6.073   1.873  16.365  0.9821  0.3710  2.5174
 4591TIP3   OH237967   6.635   1.422  14.162  0.2878 -0.7774  0.3794
 4591TIP3    H137968   6.677   1.338  14.144  2.2245  0.3218 -0.6874
 4591TIP3    H237969   6.616   1.421  14.256  2.3529 -1.5713  0.8391
 4592TIP3   OH237970   2.539   4.806  15.237 -0.4468  0.9646  0.4655
 4592TIP3    H137971   2.594   4.821  15.313  1.4815  2.8662 -1.2041
 4592TIP3    H237972   2.453   4.839  15.263 -0.4153 -0.3714  2.4896
 4593TIP3   OH237973   3.862   1.470  14.035 -0.4910  0.0355  0.3833
 4593TIP3    H137974   3.872   1.531  13.961  0.0666  0.3524  0.7119
 4593TIP3    H237975   3.808   1.519  14.098 -2.0994 -0.7244 -0.3365
 4594TIP3   OH237976   0.156   2.049  15.214  0.0589 -0.1245  0.6161
 4594TIP3    H137977   0.106   1.969  15.228 -0.0255 -0.5383 -1.6612
 4594TIP3    H237978   0.246   2.019  15.203  0.2036  0.2097  0.8679
 4595TIP3   OH237979   2.660   5.933  16.144  0.7013 -0.2927 -0.0235
 4595TIP3    H137980   2.709   6.009  16.111  0.0290  0.0355 -0.2886
 4595TIP3    H237981   2.639   5.882  16.066 -1.4543  0.8148 -0.2692
 4596TIP3   OH237982   4.434   2.642  16.968  0.0779  0.0244 -0.5107
 4596TIP3    H137983   4.338   2.642  16.973  0.0378  1.3194 -0.9845
 4596TIP3    H237984   4.459   2.734  16.974  1.3651 -0.3548  0.5643
 4597TIP3   OH237985   5.739   4.561  15.573  0.3623 -0.2125 -0.3529
 4597TIP3    H137986   5.798   4.507  15.521  1.7764  0.4570  0.4775
 4597TIP3    H237987   5.792   4.637  15.599 -1.4677  1.4957 -1.2845
 4598TIP3   OH237988   6.410   4.820  15.921 -0.2868 -0.1334 -0.6780
 4598TIP3    H137989   6.468   4.800  15.847 -0.4580 -0.2577 -0.7805
 4598TIP3    H237990   6.322   4.806  15.886 -0.3268 -1.4547 -0.0915
 4599TIP3   OH237991   2.261   0.029  16.582 -0.4301 -0.5661  0.2575
 4599TIP3    H137992   2.296   0.033  16.493  2.4354  1.2174  1.3478
 4599TIP3    H237993   2.195   0.099  16.584 -2.9941 -2.7424 -1.2754
 4600TIP3   OH237994   6.030   3.132  15.397  1.6059 -0.1801  0.3748
 4600TIP3    H137995   6.007   3.070  15.466  4.8243  0.5773  2.3211
 4600TIP3    H237996   5.956   3.193  15.394 -0.0225 -2.0408  0.8721
 4601TIP3   OH237997   0.670   3.416  14.212  0.3561 -0.0769 -0.1185
 4601TIP3    H137998   0.629   3.462  14.139 -1.0687  1.1684  1.3689
 4601TIP3    H237999   0.615   3.437  14.288  0.5673 -2.9800  0.9760
 4602TIP3   OH238000   3.117   6.633  16.832  0.8880 -0.7547  0.2464
 4602TIP3    H138001   3.116   6.727  16.848  1.1432 -0.8461  0.7988
 4602TIP3    H238002   3.119   6.594  16.919 -1.8336 -1.3160  0.1549
 4603TIP3   OH238003   5.242   2.826  15.385 -0.0430  0.3041 -0.1250
 4603TIP3    H138004   5.200   2.892  15.441  0.3324  0.5922 -0.1744
 4603TIP3    H238005   5.211   2.742  15.418  0.0169  0.4833  0.3915
 4604TIP3   OH238006   0.854   1.954  16.944  0.3919  0.1254 -0.0951
 4604TIP3    H138007   0.812   2.002  17.015 -0.7781 -1.3063  0.2232
 4604TIP3    H238008   0.864   2.018  16.873  1.9958  1.7017  1.4661
 4605TIP3   OH238009   4.427   6.100  15.069 -0.1960  0.6167  0.5648
 4605TIP3    H138010   4.367   6.050  15.124  0.4710 -0.5750  0.2515
 4605TIP3    H238011   4.490   6.035  15.037 -0.5580  1.2725 -1.5975
 4606TIP3   OH238012   1.575   6.206  13.872 -0.0362 -0.2792 -0.0515
 4606TIP3    H138013   1.626   6.150  13.813  0.1130 -1.6620  1.3026
 4606TIP3    H238014   1.485   6.177  13.860 -0.1605  0.2397 -0.4173
 4607TIP3   OH238015   2.863   6.616  16.705 -0.2856  0.1810  0.2279
 4607TIP3    H138016   2.853   6.521  16.699  1.0917  0.1074 -2.1576
 4607TIP3    H238017   2.934   6.628  16.768 -1.2269 -0.2746  1.4107
 4608TIP3   OH238018   4.815   5.913  17.040  0.0880 -0.0523 -0.6405
 4608TIP3    H138019   4.831   5.839  16.981  0.7867  0.6744 -1.4010
 4608TIP3    H238020   4.892   5.916  17.096 -0.4310 -0.5443  0.1172
 4609TIP3   OH238021   4.668   2.195  16.927 -0.0973  0.5584 -0.1195
 4609TIP3    H138022   4.589   2.193  16.873  0.8666 -1.0528 -1.5858
 4609TIP3    H238023   4.677   2.106  16.960  1.7666  0.3168 -1.0980
 4610TIP3   OH238024   0.461   6.197  13.254 -0.2700 -0.1215 -0.0501
 4610TIP3    H138025   0.419   6.112  13.269  1.5529 -1.5134 -2.2413
 4610TIP3    H238026   0.403   6.242  13.193 -1.0541  0.0961  0.8284
 4611TIP3   OH238027   3.187   3.603  15.678 -0.0673  0.1913 -0.1369
 4611TIP3    H138028   3.176   3.660  15.603 -0.6143 -0.9645 -0.9700
 4611TIP3    H238029   3.138   3.523  15.656  0.7635 -0.6577  0.9169
 4612TIP3   OH238030   2.774   3.942  16.036 -0.2316  0.3388 -0.2699
 4612TIP3    H138031   2.852   3.987  16.004 -0.5064  0.8540 -0.2291
 4612TIP3    H238032   2.794   3.922  16.128  1.0143 -2.1576 -0.9906
 4613TIP3   OH238033   1.476   1.019  15.579 -0.0999 -0.0912 -0.4404
 4613TIP3    H138034   1.569   1.036  15.595 -0.5016 -0.7616  3.8415
 4613TIP3    H238035   1.471   0.924  15.564 -0.0339  0.0954 -1.7225
 4614TIP3   OH238036   6.557   0.095  16.175 -0.0644 -0.2579  0.0589
 4614TIP3    H138037   6.493   0.104  16.105 -0.1780  2.5096  0.4042
 4614TIP3    H238038   6.642   0.096  16.131 -0.1121  1.9966 -0.1089
 4615TIP3   OH238039   2.215   2.987  16.400 -0.7992 -0.3433 -0.7319
 4615TIP3    H138040   2.248   3.065  16.357 -2.6917  0.2219 -1.2901
 4615TIP3    H238041   2.276   2.971  16.472 -0.6536  1.9720 -0.2631
 4616TIP3   OH238042   5.555   6.134  16.157  0.2390  0.7030  0.1828
 4616TIP3    H138043   5.577   6.054  16.204 -1.2389 -0.9658 -1.7685
 4616TIP3    H238044   5.638   6.181  16.149  1.3038 -0.9959  0.7399
 4617TIP3   OH238045   4.542   4.361  14.705  0.3166 -0.3092  0.6002
 4617TIP3    H138046   4.508   4.354  14.616 -0.9951 -2.1836  1.1806
 4617TIP3    H238047   4.625   4.314  14.703 -0.8171 -2.4312  0.8330
 4618TIP3   OH238048   4.031   4.761  14.829  0.0107 -0.3217 -0.2959
 4618TIP3    H138049   4.126   4.756  14.813  0.1827 -0.1756  0.6155
 4618TIP3    H238050   3.995   4.790  14.746  0.7330 -0.6745 -0.7511
 4619TIP3   OH238051   1.282   1.385  16.489  0.3854 -0.0805  0.0372
 4619TIP3    H138052   1.247   1.445  16.555  2.5615  1.1655  0.1589
 4619TIP3    H238053   1.224   1.395  16.414  0.1572  1.5180  0.3880
 4620TIP3   OH238054   0.958   4.838  15.241  0.2283 -0.3016  0.6125
 4620TIP3    H138055   0.931   4.928  15.225 -0.4040 -0.5547  0.2431
 4620TIP3    H238056   0.880   4.795  15.275  0.7464 -0.5152  1.5759
 4621TIP3   OH238057   0.896   0.684  15.009  0.0134  0.8167  0.5580
 4621TIP3    H138058   0.939   0.745  14.948 -0.6703 -0.9952 -1.8868
 4621TIP3    H238059   0.811   0.725  15.028 -0.1859  0.9575 -0.5612
 4622TIP3   OH238060   0.737   3.966  14.120 -0.1403  0.0805  0.5428
 4622TIP3    H138061   0.786   3.891  14.153 -0.1068 -0.7160 -1.2518
 4622TIP3    H238062   0.653   3.930  14.093 -0.8638  1.0458  1.4270
 4623TIP3   OH238063   0.181   1.085  16.048  0.0120  0.0396 -0.3350
 4623TIP3    H138064   0.136   1.072  15.965 -0.8320  1.3295 -0.1031
 4623TIP3    H238065   0.112   1.077  16.114  0.0773  2.0431  0.0284
 4624TIP3   OH238066   6.406   3.004  15.868 -0.0456  0.8324 -0.0130
 4624TIP3    H138067   6.337   3.068  15.848  0.7813  2.4159  1.8712
 4624TIP3    H238068   6.451   2.990  15.784  0.0911  3.1785 -0.3956
 4625TIP3   OH238069   6.378   1.233  16.921  0.1425  0.1006 -0.2461
 4625TIP3    H138070   6.327   1.158  16.889  2.0496 -0.7377 -1.5090
 4625TIP3    H238071   6.320   1.277  16.983 -1.7633 -1.2884 -0.9532
 4626TIP3   OH238072   5.476   4.615  16.641 -0.3280  0.4915  0.2122
 4626TIP3    H138073   5.542   4.641  16.576  0.1003  1.5232  1.0243
 4626TIP3    H238074   5.494   4.522  16.658 -0.6225  0.1363 -1.3250
 4627TIP3   OH238075   0.314   1.391  16.024  0.2935 -0.3397 -0.1836
 4627TIP3    H138076   0.302   1.304  16.063 -0.9626  0.0939  0.4228
 4627TIP3    H238077   0.234   1.405  15.973  0.5142  0.4490 -0.3185
 4628TIP3   OH238078   0.535   1.543  16.034  0.0378  0.4043 -0.0196
 4628TIP3    H138079   0.452   1.498  16.022 -0.1287  0.6138  0.3335
 4628TIP3    H238080   0.598   1.473  16.053 -0.3486  0.3575  1.2099
 4629TIP3   OH238081   2.817   3.297  14.370 -0.1354 -0.1169 -0.2516
 4629TIP3    H138082   2.853   3.228  14.426  0.0670  1.2396  1.3655
 4629TIP3    H238083   2.886   3.363  14.364 -1.9161  2.2171  2.3411
 4630TIP3   OH238084   4.429   5.330  15.122  0.3004  0.0146  0.2070
 4630TIP3    H138085   4.475   5.254  15.158 -0.6896  0.3359  2.2871
 4630TIP3    H238086   4.498   5.396  15.110  0.5862  0.1716  2.3779
 4631TIP3   OH238087   1.519   1.034  14.414  0.0076 -0.0454  0.8778
 4631TIP3    H138088   1.476   1.055  14.331  0.0630  0.0045  0.8615
 4631TIP3    H238089   1.467   0.962  14.450  1.4148 -1.7917 -0.3940
 4632TIP3   OH238090   3.078   6.274  15.278  0.7350 -0.0323  0.1403
 4632TIP3    H138091   3.112   6.346  15.331 -0.7961 -1.0089  2.6535
 4632TIP3    H238092   3.155   6.231  15.242  1.7535  1.6540  0.2116
 4633TIP3   OH238093   1.954   0.538  13.972 -0.4331 -0.1260  0.2446
 4633TIP3    H138094   2.011   0.511  13.900  1.6840  0.3587  1.6300
 4633TIP3    H238095   1.926   0.627  13.949 -0.7006 -0.3924 -0.4800
 4634TIP3   OH238096   0.127   4.831  13.735  0.5964 -0.1127  0.3103
 4634TIP3    H138097   0.073   4.899  13.696 -0.7702 -0.6673  1.1384
 4634TIP3    H238098   0.190   4.807  13.667 -1.7211 -1.1048 -1.6364
 4635TIP3   OH238099   4.510   0.241  14.511  0.2106  0.4974 -0.0467
 4635TIP3    H138100   4.507   0.146  14.495 -0.5318  0.4427  0.3946
 4635TIP3    H238101   4.597   0.255  14.550  0.4854  0.0655 -0.4816
 4636TIP3   OH238102   6.279   5.382  14.841  0.0285  0.0945  0.6104
 4636TIP3    H138103   6.233   5.451  14.888 -0.2836  0.7394 -0.6021
 4636TIP3    H238104   6.212   5.339  14.788  0.6059  0.3165 -0.3267
 4637TIP3   OH238105   2.919   2.179  16.150  0.6344 -0.0317 -0.2221
 4637TIP3    H138106   2.852   2.165  16.083  0.5149  2.2602 -0.6772
 4637TIP3    H238107   2.993   2.217  16.102  1.2362 -0.0236  0.6826
 4638TIP3   OH238108   5.680   1.960  16.923  0.0701 -0.3755  0.2804
 4638TIP3    H138109   5.766   1.923  16.902 -0.5247 -1.9225  0.4573
 4638TIP3    H238110   5.657   1.922  17.007 -0.1527  1.2188  0.9725
 4639TIP3   OH238111   3.600   3.313  15.593  0.1379  0.0062  0.5181
 4639TIP3    H138112   3.582   3.281  15.682 -0.4635  0.4438  0.5534
 4639TIP3    H238113   3.678   3.368  15.604 -0.3661  0.6626  0.9145
 4640TIP3   OH238114   1.454   6.668  13.516 -0.0828 -0.2466 -0.1599
 4640TIP3    H138115   1.415   6.752  13.490  1.5545  0.8168  0.6437
 4640TIP3    H238116   1.384   6.622  13.562 -1.0844  0.5842 -0.8217
 4641TIP3   OH238117   0.374   6.238  14.758 -0.5394 -0.4721 -0.3549
 4641TIP3    H138118   0.406   6.267  14.843  1.2789 -0.4959 -0.9816
 4641TIP3    H238119   0.332   6.154  14.775  2.7478 -2.1881  0.1422
 4642TIP3   OH238120   1.594   6.095  13.611 -0.2461  0.1028 -0.4602
 4642TIP3    H138121   1.514   6.148  13.619  0.4798  1.0444  1.1744
 4642TIP3    H238122   1.651   6.147  13.554  0.7218  1.5615  1.6649
 4643TIP3   OH238123   5.321   4.674  15.760 -0.0312 -0.2073 -0.5698
 4643TIP3    H138124   5.365   4.726  15.694  1.0257 -0.4391 -0.0754
 4643TIP3    H238125   5.260   4.618  15.711  0.3353  0.0123 -1.2827
 4644TIP3   OH238126   3.877   1.750  13.547  0.2834  0.7338 -0.4313
 4644TIP3    H138127   3.822   1.798  13.608 -1.9368 -2.2061  0.1290
 4644TIP3    H238128   3.843   1.773  13.461 -1.3694 -0.3807 -0.1277
 4645TIP3   OH238129   2.844   5.422  15.282  0.7550  0.0145  0.3032
 4645TIP3    H138130   2.768   5.392  15.331  0.8839 -0.8524 -0.0017
 4645TIP3    H238131   2.823   5.402  15.191  0.7857  1.0179  0.0616
 4646TIP3   OH238132   4.063   0.105  13.505  0.4350  0.2998  0.2879
 4646TIP3    H138133   4.040   0.198  13.501  0.7093  0.4086  1.1528
 4646TIP3    H238134   3.984   0.060  13.475  0.9080  0.8471 -2.0190
 4647TIP3   OH238135   5.902   4.618  16.461 -0.4511  0.4841 -0.2419
 4647TIP3    H138136   5.901   4.699  16.411 -0.5947  0.4546 -0.2867
 4647TIP3    H238137   5.907   4.645  16.552  1.2212  0.5364 -0.3048
 4648TIP3   OH238138   1.785   3.269  16.371  0.1249  0.1010  0.6381
 4648TIP3    H138139   1.858   3.239  16.424 -0.1509  0.9892  1.5455
 4648TIP3    H238140   1.723   3.307  16.434 -1.3327 -1.0203 -0.0474
 4649TIP3   OH238141   6.101   2.598  16.438  0.1099 -0.1200 -0.0676
 4649TIP3    H138142   6.158   2.657  16.391 -1.0807 -1.4792 -3.5333
 4649TIP3    H238143   6.023   2.650  16.457  0.3467  0.2792 -0.1828
 4650TIP3   OH238144   3.713   4.248  14.426  0.3408 -0.2629  0.1812
 4650TIP3    H138145   3.742   4.254  14.335  0.9549 -0.2125  0.3749
 4650TIP3    H238146   3.765   4.314  14.472  0.6818 -0.9092  0.7309
 4651TIP3   OH238147   2.195   6.698  14.623 -0.1638 -0.3912 -0.2173
 4651TIP3    H138148   2.147   6.780  14.620 -1.2854 -1.0115  0.0874
 4651TIP3    H238149   2.151   6.647  14.691 -1.3174 -2.3118 -2.2607
 4652TIP3   OH238150   0.619   0.338  16.150  0.4273 -0.4444  0.4228
 4652TIP3    H138151   0.604   0.413  16.091  0.1804 -0.7575  0.0841
 4652TIP3    H238152   0.635   0.378  16.236 -1.3806 -0.0508  0.6053
 4653TIP3   OH238153   5.443   0.812  15.055 -0.3744 -0.3974 -0.5737
 4653TIP3    H138154   5.493   0.877  15.006 -0.8301 -0.6102 -1.3369
 4653TIP3    H238155   5.509   0.752  15.090  0.0364  0.3663 -0.0036
 4654TIP3   OH238156   0.746   1.290  14.563  0.5531  0.1205  0.4048
 4654TIP3    H138157   0.741   1.239  14.482  0.9554  0.6045  0.0744
 4654TIP3    H238158   0.665   1.340  14.565 -0.0021 -0.7766  0.9005
 4655TIP3   OH238159   1.188   1.767  16.258  0.0972  0.1239  0.5373
 4655TIP3    H138160   1.104   1.754  16.214  0.9176 -0.5954 -0.8554
 4655TIP3    H238161   1.171   1.741  16.349 -1.0354 -0.5913  0.1425
 4656TIP3   OH238162   3.508   1.972  14.236 -0.5535 -0.3138 -0.8741
 4656TIP3    H138163   3.505   1.906  14.167  0.2818  0.1764 -1.3923
 4656TIP3    H238164   3.599   1.972  14.266 -0.6800  0.1901 -0.4686
 4657TIP3   OH238165   2.359   2.164  14.544 -0.4748  0.3391 -0.0211
 4657TIP3    H138166   2.426   2.231  14.536  0.0868 -0.2020  0.0868
 4657TIP3    H238167   2.372   2.127  14.632  0.4799 -1.2187 -0.7707
 4658TIP3   OH238168   6.637   1.483  16.927 -0.5574 -0.1285 -0.6595
 4658TIP3    H138169   6.652   1.546  16.997  0.0421  0.1119 -0.9967
 4658TIP3    H238170   6.621   1.400  16.972 -0.9798  0.1878 -0.2264
 4659TIP3   OH238171   3.342   1.462  16.952  0.2463  0.0956 -0.5563
 4659TIP3    H138172   3.358   1.497  16.864  0.9202 -0.0868 -0.5106
 4659TIP3    H238173   3.391   1.380  16.955 -0.3482 -0.2582 -0.2455
 4660TIP3   OH238174   6.188   1.828  15.636  0.9389  0.1608  0.3431
 4660TIP3    H138175   6.278   1.836  15.666  1.6925  2.3802 -2.1871
 4660TIP3    H238176   6.135   1.854  15.711  2.4176 -0.1505  1.5325
 4661TIP3   OH238177   0.205   1.352  14.621 -0.2402 -0.1392 -0.4371
 4661TIP3    H138178   0.133   1.406  14.591 -0.6594 -0.7283 -0.5041
 4661TIP3    H238179   0.182   1.263  14.594  0.2525 -0.4123  0.0136
 4662TIP3   OH238180   3.077   3.408  13.705  0.2528 -0.0279 -0.8755
 4662TIP3    H138181   3.164   3.393  13.743 -0.0591 -0.4323 -0.2976
 4662TIP3    H238182   3.079   3.363  13.621 -0.4768 -3.0382  0.5790
 4663TIP3   OH238183   3.870   0.471  16.765  0.0434 -0.0911  0.7067
 4663TIP3    H138184   3.941   0.415  16.797  0.6507 -0.5800 -1.3260
 4663TIP3    H238185   3.908   0.559  16.765  0.5947 -0.3091 -0.0911
 4664TIP3   OH238186   3.500   6.176  14.956  0.0830 -0.0886  0.1323
 4664TIP3    H138187   3.439   6.194  15.028 -0.1446 -0.5732  0.0666
 4664TIP3    H238188   3.576   6.137  14.999 -0.2827 -0.9134  0.0689
 4665TIP3   OH238189   2.707   2.914  14.794 -0.7053  0.0974 -0.0489
 4665TIP3    H138190   2.649   2.923  14.719  0.7240  0.1855 -1.1789
 4665TIP3    H238191   2.673   2.838  14.842 -2.3476  0.7758 -0.1094
 4666TIP3   OH238192   4.539   4.998  15.412 -0.7050 -0.5344  0.5661
 4666TIP3    H138193   4.477   4.984  15.340 -0.6670 -0.8139  0.5865
 4666TIP3    H238194   4.559   4.910  15.444  1.6275 -0.6938 -1.0693
 4667TIP3   OH238195   5.350   4.843  15.524 -0.3014  0.2634 -0.3970
 4667TIP3    H138196   5.402   4.894  15.586 -1.0665 -0.6460  1.0305
 4667TIP3    H238197   5.412   4.822  15.453  1.1174 -0.2456  0.9360
 4668TIP3   OH238198   2.327   4.291  14.650  0.6705 -0.0529 -0.0922
 4668TIP3    H138199   2.285   4.275  14.566 -1.6287  0.8701  0.8060
 4668TIP3    H238200   2.304   4.215  14.703 -1.3894  1.1869  0.9152
 4669TIP3   OH238201   1.289   2.146  15.234 -0.1917 -0.0130  0.0875
 4669TIP3    H138202   1.205   2.099  15.230 -2.0351  3.0802 -2.5624
 4669TIP3    H238203   1.288   2.189  15.319 -1.1502 -0.2723  0.2221
 4670TIP3   OH238204   3.665   3.983  14.886 -0.4121  0.3508  0.7327
 4670TIP3    H138205   3.652   3.958  14.795 -0.4683  1.7919  0.3114
 4670TIP3    H238206   3.746   3.939  14.912  1.2871  2.2389 -1.0010
 4671TIP3   OH238207   0.260   3.096  13.935  0.5453 -0.2173 -0.2173
 4671TIP3    H138208   0.349   3.063  13.924  0.8702  0.8121 -0.8682
 4671TIP3    H238209   0.204   3.027  13.900  0.9514 -1.6164  1.7199
 4672TIP3   OH238210   1.840   4.249  15.270  0.4295 -0.5232  0.0010
 4672TIP3    H138211   1.883   4.274  15.352 -2.3162  1.8005  0.9304
 4672TIP3    H238212   1.860   4.321  15.210 -1.4271  0.2872  0.2618
 4673TIP3   OH238213   1.182   0.912  13.933  0.5849  0.0021  0.0517
 4673TIP3    H138214   1.214   0.933  14.020 -0.8869 -2.9383  1.4405
 4673TIP3    H238215   1.251   0.859  13.893  1.2638  1.3573 -0.6402
 4674TIP3   OH238216   2.368   4.094  16.886  0.2453 -0.0202  0.1207
 4674TIP3    H138217   2.315   4.100  16.966  0.6800 -0.2307  0.4291
 4674TIP3    H238218   2.417   4.012  16.896 -2.2771 -1.9336 -1.9739
 4675TIP3   OH238219   2.588   5.327  14.754 -0.2188  0.0060 -0.6338
 4675TIP3    H138220   2.680   5.339  14.730 -0.4875  4.3563 -0.3141
 4675TIP3    H238221   2.539   5.345  14.673 -0.8392 -0.6804 -0.4227
 4676TIP3   OH238222   2.822   3.789  15.012  0.1433 -0.1465  0.2679
 4676TIP3    H138223   2.809   3.800  15.106 -0.1271 -1.0596  0.3425
 4676TIP3    H238224   2.769   3.858  14.972 -0.5488 -0.3945  0.7523
 4677TIP3   OH238225   2.592   2.564  14.707 -0.0416 -0.2079  0.2960
 4677TIP3    H138226   2.596   2.598  14.796 -1.3291 -1.0509  0.6962
 4677TIP3    H238227   2.546   2.631  14.657  3.6391  1.9106 -0.6124
 4678TIP3   OH238228   5.262   3.983  15.686  0.3522 -0.3758  0.4144
 4678TIP3    H138229   5.173   4.009  15.709  0.1557 -0.4886 -0.1984
 4678TIP3    H238230   5.303   4.062  15.650  0.1416 -0.6001 -0.3283
 4679TIP3   OH238231   3.723   5.373  17.047 -0.0385 -0.2976 -0.8060
 4679TIP3    H138232   3.631   5.399  17.046 -0.2106 -0.9105 -1.2964
 4679TIP3    H238233   3.724   5.292  17.097  0.0597 -0.9174 -1.7910
 4680TIP3   OH238234   0.992   3.468  16.389  0.3953 -0.1939  0.4917
 4680TIP3    H138235   1.076   3.512  16.401  0.1282  1.1509 -2.1317
 4680TIP3    H238236   0.936   3.503  16.459  1.3089  0.6644  0.8085
 4681TIP3   OH238237   1.056   5.358  16.441 -0.0241  0.2877  0.6848
 4681TIP3    H138238   1.140   5.343  16.483  0.6792 -0.3859 -0.8810
 4681TIP3    H238239   1.017   5.271  16.433 -0.0771  0.3792 -0.1411
 4682TIP3   OH238240   5.919   2.801  16.505 -0.1592 -0.4170  0.3879
 4682TIP3    H138241   5.944   2.845  16.587  1.1318 -1.2469  0.4618
 4682TIP3    H238242   5.947   2.861  16.436 -1.6655  0.5024  0.5175
 4683TIP3   OH238243   3.786   6.486  14.892 -0.0773 -0.3730  0.3015
 4683TIP3    H138244   3.809   6.467  14.982  1.6421 -0.8492 -0.2146
 4683TIP3    H238245   3.736   6.409  14.863  1.1540 -1.1728  0.2360
 4684TIP3   OH238246   0.195   1.539  16.606  0.4677  0.1079 -0.3848
 4684TIP3    H138247   0.176   1.588  16.687 -0.7052 -0.2168 -0.4507
 4684TIP3    H238248   0.172   1.449  16.627  2.3713 -0.4047 -0.3526
 4685TIP3   OH238249   2.965   2.294  15.809 -0.2578 -0.3473  0.3236
 4685TIP3    H138250   3.046   2.305  15.760 -0.5444  0.4090 -0.0030
 4685TIP3    H238251   2.897   2.328  15.750 -0.6812 -0.0113  0.9920
 4686TIP3   OH238252   0.802   4.912  16.541  0.0871 -0.0251 -0.5227
 4686TIP3    H138253   0.736   4.906  16.472  1.0575  1.5279 -1.6250
 4686TIP3    H238254   0.818   4.821  16.566 -2.1492 -0.4698 -0.4961
 4687TIP3   OH238255   4.274   0.251  15.092 -0.3447 -0.2519  0.3689
 4687TIP3    H138256   4.188   0.269  15.054  0.0747  0.1237 -0.4290
 4687TIP3    H238257   4.333   0.246  15.016  0.4121 -0.0494  0.9338
 4688TIP3   OH238258   0.769   3.582  15.692 -0.4816 -0.5498  0.5806
 4688TIP3    H138259   0.718   3.596  15.613 -1.1852  1.6840  1.3667
 4688TIP3    H238260   0.708   3.539  15.752 -0.4725 -0.6902  0.4910
 4689TIP3   OH238261   1.229   3.313  15.668 -0.2167  0.5467  0.3156
 4689TIP3    H138262   1.133   3.306  15.667 -0.3046  1.2892  1.7658
 4689TIP3    H238263   1.247   3.403  15.641  0.1480  0.1070 -0.9983
 4690TIP3   OH238264   5.660   3.788  15.373  0.1841 -0.0266 -0.1304
 4690TIP3    H138265   5.580   3.840  15.365 -1.7694 -2.6118  1.1040
 4690TIP3    H238266   5.706   3.827  15.447 -0.8546  0.4266  0.3010
 4691TIP3   OH238267   0.019   3.306  15.091 -0.5194  0.8595 -0.0722
 4691TIP3    H138268  -0.045   3.291  15.161  0.0139 -0.2175  0.2113
 4691TIP3    H238269   0.060   3.390  15.114 -2.1416  1.8295 -0.5381
 4692TIP3   OH238270   6.403   5.410  16.410 -0.3068 -0.0315 -0.3880
 4692TIP3    H138271   6.310   5.400  16.390 -0.5677 -0.9451  1.1126
 4692TIP3    H238272   6.443   5.330  16.375 -0.7671 -1.6406  2.4716
 4693TIP3   OH238273   1.969   6.597  14.274 -0.1819 -0.3819 -0.5439
 4693TIP3    H138274   1.914   6.641  14.210  1.0580  0.1867 -1.2607
 4693TIP3    H238275   2.045   6.655  14.284 -0.6008 -0.1189  1.9103
 4694TIP3   OH238276   5.101   1.048  17.009 -0.0527 -0.2056 -0.2808
 4694TIP3    H138277   5.082   1.052  16.915 -1.1417  3.0737 -0.0212
 4694TIP3    H238278   5.171   1.112  17.022 -1.3794  0.9966  1.3801
 4695TIP3   OH238279   1.209   2.991  14.928  0.0366 -0.3874  0.1872
 4695TIP3    H138280   1.190   3.034  14.844  2.1841  1.6105  0.6159
 4695TIP3    H238281   1.150   3.034  14.990  0.4917  0.2480  0.1901
 4696TIP3   OH238282   0.949   3.173  15.816 -0.0370  0.6093  0.2095
 4696TIP3    H138283   0.996   3.154  15.735  2.1100 -0.2510  1.5516
 4696TIP3    H238284   0.935   3.087  15.857 -0.3862  1.0740  1.1096
 4697TIP3   OH238285   2.571   6.650  15.176  0.0632 -0.0290  0.2753
 4697TIP3    H138286   2.666   6.639  15.187  0.1885  0.0560 -0.6712
 4697TIP3    H238287   2.546   6.711  15.246  0.4587 -1.1152  1.4120
 4698TIP3   OH238288   0.631   3.978  16.213 -0.3116  0.5552 -0.5343
 4698TIP3    H138289   0.723   3.953  16.219 -0.4791  0.1403  0.5756
 4698TIP3    H238290   0.586   3.914  16.267 -1.0207  1.9669  0.6080
 4699TIP3   OH238291   3.318   2.796  16.646  0.4040  0.1880  0.4646
 4699TIP3    H138292   3.375   2.871  16.630 -0.4543  0.6283 -0.6408
 4699TIP3    H238293   3.341   2.733  16.577  0.2623 -0.0525  0.6332
 4700TIP3   OH238294   4.298   1.746  13.298  0.0498  0.3447  0.3427
 4700TIP3    H138295   4.271   1.675  13.356  0.8783  0.5061  0.9520
 4700TIP3    H238296   4.392   1.732  13.285  0.0246  0.7595 -0.3343
 4701TIP3   OH238297   2.660   0.529  13.763 -0.0726  0.6272  0.0063
 4701TIP3    H138298   2.720   0.499  13.695 -0.4011 -0.1643  0.0620
 4701TIP3    H238299   2.577   0.486  13.742 -0.0218 -0.1018  1.2578
 4702TIP3   OH238300   2.498   0.454  16.489  0.0151  0.0931 -0.3062
 4702TIP3    H138301   2.512   0.530  16.432 -0.2479 -0.0769 -0.5960
 4702TIP3    H238302   2.430   0.483  16.550  0.9103  0.5789  0.4856
 4703TIP3   OH238303   3.396   0.746  14.028 -0.1764 -0.3597  0.1739
 4703TIP3    H138304   3.481   0.715  13.995 -0.4461  0.1730 -1.0452
 4703TIP3    H238305   3.387   0.702  14.113  0.8959 -1.1429 -0.0884
 4704TIP3   OH238306   1.557   1.351  14.399 -0.6681 -0.1918 -0.1471
 4704TIP3    H138307   1.632   1.296  14.377 -0.8078  0.2102 -1.7107
 4704TIP3    H238308   1.517   1.307  14.474  0.6094 -0.8929  0.1520
 4705TIP3   OH238309   3.313   1.216  14.157  0.0126 -0.1677  0.0781
 4705TIP3    H138310   3.269   1.298  14.135  0.9493 -0.1140 -1.7870
 4705TIP3    H238311   3.242   1.154  14.174 -0.7724  0.3086 -1.3257
 4706TIP3   OH238312   1.024   2.432  14.483  0.1075  0.0501  0.0226
 4706TIP3    H138313   0.973   2.512  14.494  0.3416  0.1436  0.4308
 4706TIP3    H238314   1.006   2.381  14.562  0.3144 -0.0998 -0.0270
 4707TIP3   OH238315   5.253   3.526  15.468  0.4954 -0.2600 -0.8184
 4707TIP3    H138316   5.225   3.616  15.486 -0.5481 -0.7542  0.1539
 4707TIP3    H238317   5.338   3.519  15.512 -0.5480 -0.4542  1.2904
 4708TIP3   OH238318   1.305   5.200  16.544  0.1336  0.2138  0.0200
 4708TIP3    H138319   1.367   5.153  16.599  0.4867  2.3004  1.5210
 4708TIP3    H238320   1.360   5.252  16.486 -0.2494 -0.3240 -0.8417
 4709TIP3   OH238321   1.559   5.502  13.928 -0.0060  0.1554 -0.3239
 4709TIP3    H138322   1.531   5.536  14.013  0.8925 -0.3352  0.1839
 4709TIP3    H238323   1.488   5.525  13.868 -1.0773 -0.3029  0.7431
 4710TIP3   OH238324   3.255   2.244  17.285  0.5122 -0.2953 -0.9050
 4710TIP3    H138325   3.340   2.283  17.266 -0.2986  1.0449 -1.8764
 4710TIP3    H238326   3.266   2.151  17.262  1.8602 -0.2680 -0.4724
 4711TIP3   OH238327   6.290   2.046  14.220 -0.4948 -0.3370 -0.1879
 4711TIP3    H138328   6.341   1.998  14.285  0.4683  0.5998 -0.2239
 4711TIP3    H238329   6.329   2.022  14.136 -0.6178 -0.2224 -0.2776
 4712TIP3   OH238330   5.155   1.501  15.011 -0.2550 -0.0368 -0.0187
 4712TIP3    H138331   5.210   1.541  15.078 -0.9494  0.7579  0.1055
 4712TIP3    H238332   5.196   1.417  14.992  0.2879 -0.0083  0.9704
 4713TIP3   OH238333   2.794   5.242  16.838 -0.1577 -0.6761  0.2698
 4713TIP3    H138334   2.781   5.304  16.766 -0.4776 -1.3166 -0.2263
 4713TIP3    H238335   2.851   5.174  16.801  1.6942  0.2115  1.3344
 4714TIP3   OH238336   5.129   3.580  16.616  1.0146 -0.6317 -0.3478
 4714TIP3    H138337   5.105   3.620  16.531  0.2011 -1.2975 -0.4404
 4714TIP3    H238338   5.157   3.492  16.594 -0.6678 -1.3446  0.2097
 4715TIP3   OH238339   4.597   4.435  16.892  0.0903 -0.1190  0.4936
 4715TIP3    H138340   4.601   4.496  16.819  0.2343 -0.5548  0.1321
 4715TIP3    H238341   4.583   4.490  16.969  1.1400  0.4560  0.2908
 4716TIP3   OH238342   0.022   5.844  16.358  0.0981  0.1014  0.2485
 4716TIP3    H138343  -0.012   5.765  16.399 -0.6681  0.4283  0.2504
 4716TIP3    H238344   0.113   5.849  16.388  0.9577 -2.0941 -1.6744
 4717TIP3   OH238345   0.217   3.311  15.623 -0.3745  0.5859 -0.6329
 4717TIP3    H138346   0.196   3.280  15.535  0.6343 -0.6402 -0.4832
 4717TIP3    H238347   0.187   3.240  15.680  1.0379  0.2925 -0.1928
 4718TIP3   OH238348   5.066   3.399  14.468 -0.2360 -0.2228 -0.0308
 4718TIP3    H138349   5.152   3.389  14.427 -0.3722 -0.8713 -0.1610
 4718TIP3    H238350   5.027   3.475  14.424  0.5379  0.5012  0.5018
 4719TIP3   OH238351   3.447   0.450  16.412  0.7825  0.3320 -0.1116
 4719TIP3    H138352   3.460   0.505  16.334  0.0587 -0.5640 -0.8996
 4719TIP3    H238353   3.532   0.450  16.456  0.9458  1.6217 -0.3853
 4720TIP3   OH238354   4.060   5.879  16.905  0.4576  0.6195 -0.8252
 4720TIP3    H138355   3.973   5.915  16.923  0.1659 -1.0796  1.6057
 4720TIP3    H238356   4.054   5.847  16.815 -1.3587  0.7015 -0.7693
 4721TIP3   OH238357   4.650   4.704  14.912 -0.2254  0.5544 -0.4762
 4721TIP3    H138358   4.646   4.794  14.880 -1.1318  0.8930  0.5591
 4721TIP3    H238359   4.580   4.659  14.864 -0.7537  0.7634  0.0890
 4722TIP3   OH238360   5.480   5.722  16.116  0.2322  0.1296  0.0965
 4722TIP3    H138361   5.463   5.652  16.054 -1.6565  0.8113 -0.2364
 4722TIP3    H238362   5.575   5.728  16.121  0.4306 -1.9047 -0.4581
 4723TIP3   OH238363   6.065   6.346  15.716 -0.2774  0.0946  0.6463
 4723TIP3    H138364   6.016   6.428  15.721  1.2434  1.1152 -0.2242
 4723TIP3    H238365   6.142   6.361  15.772  0.7866 -0.1164 -0.7036
 4724TIP3   OH238366   0.036   2.107  16.284 -0.1714  0.0819 -0.5247
 4724TIP3    H138367   0.096   2.077  16.216  0.5044 -0.6064  0.3430
 4724TIP3    H238368   0.026   2.032  16.342 -0.6884  0.6629  0.1639
 4725TIP3   OH238369   5.572   3.477  15.610 -0.4558  0.2143 -0.1213
 4725TIP3    H138370   5.510   3.536  15.653  0.6829  1.4896 -0.1661
 4725TIP3    H238371   5.656   3.499  15.649  0.1041 -0.9013 -0.6684
 4726TIP3   OH238372   3.756   3.762  15.671  0.1254  0.3674  0.1280
 4726TIP3    H138373   3.808   3.712  15.734  0.3094  1.2218  0.6703
 4726TIP3    H238374   3.761   3.852  15.702 -2.6457  0.3489  0.8944
 4727TIP3   OH238375   0.833   6.260  14.106  0.1436  0.2614 -0.6158
 4727TIP3    H138376   0.849   6.296  14.193  1.0498  0.9886 -1.0629
 4727TIP3    H238377   0.837   6.165  14.117  0.6615  0.3574  0.0607
 4728TIP3   OH238378   5.672   6.403  16.091 -0.1923  0.5627  0.1076
 4728TIP3    H138379   5.660   6.417  16.185 -0.6984  1.0161 -0.0194
 4728TIP3    H238380   5.766   6.412  16.077 -0.0807  0.1882  0.6174
 4729TIP3   OH238381   4.161   3.207  14.817  0.0056 -0.2158 -0.8908
 4729TIP3    H138382   4.185   3.201  14.909 -0.3814  0.2178 -0.7562
 4729TIP3    H238383   4.103   3.282  14.812  0.8236  0.3857 -1.6705
 4730TIP3   OH238384   1.257   3.547  16.443  0.0736  0.1968  0.0683
 4730TIP3    H138385   1.318   3.497  16.388 -0.5140 -0.9210  0.3990
 4730TIP3    H238386   1.253   3.496  16.524 -1.4604  0.1359 -0.0290
 4731TIP3   OH238387   5.055   0.991  16.710  0.6263 -0.0223 -0.5096
 4731TIP3    H138388   5.050   0.917  16.771  2.9482 -0.1909 -0.4544
 4731TIP3    H238389   5.061   0.951  16.623  2.0750  0.0742 -0.4666
 4732TIP3   OH238390   4.168   4.177  15.518  0.0990 -0.1432  0.3692
 4732TIP3    H138391   4.113   4.148  15.591  1.0459 -0.0781  1.1285
 4732TIP3    H238392   4.110   4.231  15.464 -1.2461 -2.0861 -0.2018
 4733TIP3   OH238393   2.585   0.837  14.542  0.4090  0.3278 -0.6767
 4733TIP3    H138394   2.622   0.913  14.588  0.0662  0.0174  0.1233
 4733TIP3    H238395   2.588   0.767  14.607  0.2164 -0.2042 -1.2419
 4734TIP3   OH238396   2.228   6.704  15.911 -0.0382 -0.6653 -0.1757
 4734TIP3    H138397   2.221   6.692  16.006  0.7606  1.6410  0.2422
 4734TIP3    H238398   2.317   6.736  15.898 -0.8186  1.1446 -1.4230
 4735TIP3   OH238399   3.117   3.378  14.971 -0.6721  0.2963 -0.0342
 4735TIP3    H138400   3.134   3.383  15.066 -0.9613 -0.9179  0.1043
 4735TIP3    H238401   3.040   3.322  14.964 -0.2619 -0.1692 -1.0229
 4736TIP3   OH238402   2.019   4.259  13.915  0.1357  0.1111  0.1024
 4736TIP3    H138403   2.077   4.233  13.844 -1.2488 -0.9646 -0.7052
 4736TIP3    H238404   2.025   4.354  13.918  1.0133  0.0939 -0.7592
 4737TIP3   OH238405   2.321   4.885  14.008 -0.2848  0.6466 -0.7024
 4737TIP3    H138406   2.326   4.981  13.999  0.2946  1.0689  2.7467
 4737TIP3    H238407   2.230   4.869  14.034  0.0042  0.4914  0.2603
 4738TIP3   OH238408   1.462   3.098  15.616 -0.0359 -0.2101  0.0687
 4738TIP3    H138409   1.504   3.121  15.699 -0.1692  0.3743 -0.0273
 4738TIP3    H238410   1.499   3.012  15.595 -0.4187 -0.6290  1.0150
 4739TIP3   OH238411   2.029   2.242  15.489  0.5172 -0.2708 -0.3041
 4739TIP3    H138412   2.054   2.195  15.569  0.6351  1.4428  0.7210
 4739TIP3    H238413   1.940   2.212  15.471  0.3353 -0.3888  0.7190
 4740TIP3   OH238414   1.831   5.211  13.417 -0.5183 -0.1057  0.2731
 4740TIP3    H138415   1.860   5.276  13.352 -0.4259  0.1585  0.5777
 4740TIP3    H238416   1.908   5.159  13.435 -0.6435 -0.4394 -0.1284
 4741TIP3   OH238417   6.156   0.320  14.225  0.3780  0.4206  0.1818
 4741TIP3    H138418   6.083   0.383  14.231  1.2924  1.6309 -0.8932
 4741TIP3    H238419   6.173   0.295  14.316 -0.9399  0.6192  0.5080
 4742TIP3   OH238420   2.694   6.700  16.106 -0.2587  0.1109  0.0247
 4742TIP3    H138421   2.632   6.683  16.035  0.3366  0.4888 -0.6021
 4742TIP3    H238422   2.688   6.795  16.120  0.6024  0.2548 -0.4669
 4743TIP3   OH238423   6.467   0.510  15.041  0.2227  0.4717  0.9349
 4743TIP3    H138424   6.398   0.555  14.992  0.9420  1.5559  0.8959
 4743TIP3    H238425   6.545   0.564  15.028  0.9495 -0.4272  1.4534
 4744TIP3   OH238426   5.573   6.186  16.534 -0.2498  0.0512  0.3723
 4744TIP3    H138427   5.485   6.188  16.497 -0.0910  0.0827 -0.0045
 4744TIP3    H238428   5.621   6.255  16.487  0.2704 -0.6620 -0.1736
 4745TIP3   OH238429   4.281   5.860  17.057  0.0581 -0.1424  0.3145
 4745TIP3    H138430   4.189   5.882  17.047  0.6053  1.5797 -1.4795
 4745TIP3    H238431   4.289   5.772  17.019 -0.7453 -0.1022  0.0270
 4746TIP3   OH238432   2.332   1.769  16.292  0.0658  0.0671  0.1583
 4746TIP3    H138433   2.273   1.792  16.220 -0.3861  0.3625  0.6196
 4746TIP3    H238434   2.324   1.842  16.353  0.2582 -0.3073  0.6315
 4747TIP3   OH238435   3.781   3.623  14.595 -0.1429 -0.6683  0.8982
 4747TIP3    H138436   3.826   3.625  14.510  0.3786 -3.3431  1.0241
 4747TIP3    H238437   3.806   3.705  14.637  1.7249 -0.4531 -0.4773
 4748TIP3   OH238438   2.340   1.997  13.839  0.4040 -0.2051 -0.3520
 4748TIP3    H138439   2.297   1.982  13.755  0.8152 -3.0108 -0.1616
 4748TIP3    H238440   2.408   1.930  13.843  0.6511  0.1062  2.0492
 4749TIP3   OH238441   1.819   3.434  15.086  0.1298 -0.1419  0.2399
 4749TIP3    H138442   1.870   3.359  15.055 -0.2274 -0.2974  0.0240
 4749TIP3    H238443   1.797   3.412  15.176  1.1069  0.2766  0.5907
 4750TIP3   OH238444   6.442   0.590  16.484  0.1201 -0.3402  0.2464
 4750TIP3    H138445   6.380   0.519  16.468 -0.3704 -0.1163  1.1136
 4750TIP3    H238446   6.402   0.666  16.442  1.5874 -0.9191 -2.4893
 4751TIP3   OH238447   2.717   2.067  15.070 -0.3770 -0.0093  0.0342
 4751TIP3    H138448   2.714   2.162  15.080 -0.8842  0.5772 -3.9208
 4751TIP3    H238449   2.778   2.053  14.997 -2.5584 -2.4226 -1.4779
 4752TIP3   OH238450   0.270   3.312  14.416  0.4090 -0.0548  0.4014
 4752TIP3    H138451   0.196   3.270  14.460 -0.5038 -0.3648 -1.3345
 4752TIP3    H238452   0.232   3.349  14.337  1.8228  1.2920  0.3202
 4753TIP3   OH238453   5.032   1.152  14.725 -0.0005 -0.6327 -0.0187
 4753TIP3    H138454   5.031   1.247  14.714 -0.1362 -0.5913  0.3410
 4753TIP3    H238455   4.993   1.118  14.645 -0.8445 -0.3425  0.2606
 4754TIP3   OH238456   5.204   4.672  16.715 -0.0742 -0.4446  0.1300
 4754TIP3    H138457   5.291   4.689  16.680  0.1754 -1.1947  0.3599
 4754TIP3    H238458   5.158   4.626  16.645 -0.3012 -0.0230 -0.0031
 4755TIP3   OH238459   0.872   3.741  15.020 -0.0478 -0.0902 -0.6981
 4755TIP3    H138460   0.926   3.765  15.096 -0.3121 -2.0829  0.1668
 4755TIP3    H238461   0.902   3.653  14.996 -0.6564  0.1091 -2.3056
 4756TIP3   OH238462   1.821   4.091  14.067  0.1037 -0.4982 -0.7785
 4756TIP3    H138463   1.728   4.110  14.080 -0.0041 -0.2837 -1.7752
 4756TIP3    H238464   1.848   4.152  13.999  0.9272 -0.6980 -0.6335
 4757TIP3   OH238465   3.000   5.614  13.217  0.2694  0.2268 -0.4004
 4757TIP3    H138466   2.986   5.696  13.170  0.4005 -0.3005 -1.3701
 4757TIP3    H238467   2.959   5.548  13.162  1.7293 -0.6082 -0.5262
 4758TIP3   OH238468   4.650   2.043  13.973 -0.6655 -0.8602  0.3941
 4758TIP3    H138469   4.686   1.967  13.928 -0.2852 -0.5070  0.0966
 4758TIP3    H238470   4.614   2.098  13.903 -0.4911 -0.5308  0.5617
 4759TIP3   OH238471   2.751   3.012  15.772  0.3109 -0.1807 -0.4320
 4759TIP3    H138472   2.802   3.008  15.692  0.7762 -0.1289 -0.1411
 4759TIP3    H238473   2.784   2.940  15.826  2.0028  1.4637  0.8755
 4760TIP3   OH238474   3.706   6.100  15.811 -0.2185 -0.0908 -0.4750
 4760TIP3    H138475   3.610   6.096  15.812 -0.2049 -1.0350 -0.8809
 4760TIP3    H238476   3.726   6.148  15.731 -0.3597 -0.1440 -0.5450
 4761TIP3   OH238477   3.290   1.672  14.980 -0.5887  0.0798  0.0589
 4761TIP3    H138478   3.303   1.590  14.933 -0.1346  0.9504 -1.4050
 4761TIP3    H238479   3.286   1.739  14.911 -1.2431  1.2552  1.1904
 4762TIP3   OH238480   3.940   5.205  13.519  0.5265  0.5190 -0.3922
 4762TIP3    H138481   3.931   5.137  13.586  2.0757  1.2265  0.5914
 4762TIP3    H238482   3.879   5.274  13.547  0.7632  0.5760 -0.0098
 4763TIP3   OH238483   1.985   2.458  14.482 -0.3445 -0.0883  0.4766
 4763TIP3    H138484   1.894   2.490  14.476 -0.2401  0.0817 -0.3706
 4763TIP3    H238485   1.978   2.376  14.531 -1.3630 -1.5154 -1.8730
 4764TIP3   OH238486   3.473   6.218  14.229 -0.5127  0.2181  0.5358
 4764TIP3    H138487   3.447   6.283  14.164  1.0657 -0.5497 -0.9462
 4764TIP3    H238488   3.535   6.264  14.286  0.5810  0.0936 -0.4956
 4765TIP3   OH238489   6.386   6.354  15.350 -0.1196 -0.4325  0.2310
 4765TIP3    H138490   6.436   6.341  15.269  0.2638  1.4500  0.1288
 4765TIP3    H238491   6.433   6.421  15.397 -0.9827 -0.6878  1.5102
 4766TIP3   OH238492   0.419   0.349  16.731  0.6290  0.0940  0.2796
 4766TIP3    H138493   0.510   0.318  16.731 -0.3170 -3.0311  1.6772
 4766TIP3    H238494   0.372   0.285  16.678 -0.9312  1.1073  0.3881
 4767TIP3   OH238495   3.432   4.083  16.316 -0.1203  0.3591 -0.4665
 4767TIP3    H138496   3.384   4.126  16.246 -1.1284 -0.6983 -0.4559
 4767TIP3    H238497   3.399   3.993  16.317  1.1205 -0.1275  0.2324
 4768TIP3   OH238498   6.516   0.189  15.900  0.1245 -0.3865  0.3530
 4768TIP3    H138499   6.446   0.237  15.855  0.0808  0.7241  1.5409
 4768TIP3    H238500   6.586   0.253  15.911  1.8891 -1.8007 -1.9071
 4769TIP3   OH238501   2.542   2.685  14.235  0.0537  0.0302  0.1282
 4769TIP3    H138502   2.491   2.616  14.278 -0.3297  1.3618  1.9225
 4769TIP3    H238503   2.615   2.639  14.193 -0.5680 -1.5174  0.6859
 4770TIP3   OH238504   2.439   2.227  15.889  0.1466 -0.1706 -0.1080
 4770TIP3    H138505   2.388   2.198  15.965  1.4057  0.0525  0.8471
 4770TIP3    H238506   2.442   2.322  15.897  0.5568 -0.1702 -0.2645
 4771TIP3   OH238507   5.479   2.887  15.967 -0.0150 -0.2499 -0.0903
 4771TIP3    H138508   5.543   2.829  16.008  0.2479  1.0878  1.4873
 4771TIP3    H238509   5.506   2.890  15.875  1.6409 -0.4379  0.3555
 4772TIP3   OH238510   3.118   0.516  15.362 -0.8002 -0.1657 -0.1037
 4772TIP3    H138511   3.149   0.582  15.299  2.7738 -1.6425 -0.1437
 4772TIP3    H238512   3.129   0.558  15.448 -1.0610  0.2114 -0.2551
 4773TIP3   OH238513   5.135   1.921  15.560 -0.0941  0.6478  0.0915
 4773TIP3    H138514   5.116   2.006  15.601 -2.0581  1.1535 -1.6593
 4773TIP3    H238515   5.103   1.931  15.470 -1.1426 -2.2203  0.0465
 4774TIP3   OH238516   1.859   1.655  16.432 -0.0532 -0.2592 -0.0752
 4774TIP3    H138517   1.906   1.580  16.468 -0.7828 -1.6049 -1.7363
 4774TIP3    H238518   1.882   1.728  16.489  1.2645 -1.5858  1.1883
 4775TIP3   OH238519   4.547   0.267  16.571  0.5864 -0.6706  0.3108
 4775TIP3    H138520   4.548   0.308  16.658  1.5459  2.0533 -0.8751
 4775TIP3    H238521   4.499   0.185  16.584 -0.5642  0.3147  3.1163
 4776TIP3   OH238522   4.499   2.081  16.598 -0.8254 -0.2251  0.0548
 4776TIP3    H138523   4.488   2.131  16.679  0.6849  0.2013  0.0223
 4776TIP3    H238524   4.548   2.139  16.540  0.4927 -1.5157 -0.1770
 4777TIP3   OH238525   6.683   3.059  14.147 -0.2107 -0.5071  0.0209
 4777TIP3    H138526   6.770   3.025  14.169  1.6759  1.0548 -3.9860
 4777TIP3    H238527   6.628   2.981  14.138  1.9069 -1.9337 -1.3440
 4778TIP3   OH238528   2.194   5.700  14.589 -0.1264  0.1968 -0.1325
 4778TIP3    H138529   2.256   5.626  14.588 -1.0189 -0.5777  0.2697
 4778TIP3    H238530   2.115   5.664  14.629 -0.3736  1.5501  0.6418
 4779TIP3   OH238531   2.874   4.496  16.628  0.9623 -0.0225  0.1943
 4779TIP3    H138532   2.842   4.440  16.558 -0.7569  0.8707  0.2121
 4779TIP3    H238533   2.966   4.472  16.638  1.0811 -0.6296 -1.9128
 4780TIP3   OH238534   0.376   0.175  16.525 -0.1014 -0.0793 -0.2944
 4780TIP3    H138535   0.292   0.185  16.480  0.9111  1.1975 -2.0070
 4780TIP3    H238536   0.407   0.088  16.500 -0.1980  0.0663 -0.9220
 4781TIP3   OH238537   0.081   3.590  15.908 -0.3003  0.0887 -0.0521
 4781TIP3    H138538   0.023   3.609  15.982 -0.4158 -0.3651 -0.0234
 4781TIP3    H238539   0.168   3.617  15.938 -0.5617  1.3008 -0.2974
 4782TIP3   OH238540   0.964   6.608  14.492 -0.2291 -0.0886 -0.7234
 4782TIP3    H138541   0.908   6.641  14.563 -1.0640  0.7671 -1.7589
 4782TIP3    H238542   1.024   6.680  14.472  1.8027 -1.2213  0.8392
 4783TIP3   OH238543   5.333   1.693  15.191  0.3923  0.3291 -0.0198
 4783TIP3    H138544   5.336   1.789  15.199 -0.1898  0.2484  1.4071
 4783TIP3    H238545   5.424   1.668  15.174  0.5160  1.1466 -0.6586
 4784TIP3   OH238546   4.857   1.746  15.324 -0.1167  0.2978  0.2020
 4784TIP3    H138547   4.839   1.755  15.418  0.0489  0.9334  0.1774
 4784TIP3    H238548   4.913   1.821  15.303  1.0859 -0.6390 -0.0896
 4785TIP3   OH238549   1.963   4.949  15.417 -0.2912  0.3480 -0.3196
 4785TIP3    H138550   1.879   4.907  15.436  0.4939 -1.1158  0.0139
 4785TIP3    H238551   2.002   4.895  15.348  0.2309  1.2321 -0.7392
 4786TIP3   OH238552   0.438   0.225  15.832  0.5564 -0.0708 -0.5855
 4786TIP3    H138553   0.418   0.162  15.763  1.0699 -0.8403 -0.0531
 4786TIP3    H238554   0.412   0.181  15.914 -0.6026  1.0594 -0.3106
 4787TIP3   OH238555   4.995   6.017  14.940  0.0784 -0.6404  0.1789
 4787TIP3    H138556   5.037   6.099  14.914  0.0506 -0.6137  0.2185
 4787TIP3    H238557   4.990   6.021  15.036  0.5100 -0.8967  0.2148
 4788TIP3   OH238558   0.503   3.451  16.340  0.6108 -0.1003 -0.6762
 4788TIP3    H138559   0.520   3.490  16.426  1.2041  0.2288 -0.9425
 4788TIP3    H238560   0.582   3.467  16.290 -0.0907  0.5661 -1.6051
 4789TIP3   OH238561   5.103   1.991  17.278 -0.2588 -0.2030  0.5899
 4789TIP3    H138562   5.090   1.919  17.340 -3.2299 -0.1155  0.1759
 4789TIP3    H238563   5.072   2.069  17.323 -0.3016  0.2419 -0.1797
 4790TIP3   OH238564   0.003   5.383  13.956 -0.0533  0.6256  0.1027
 4790TIP3    H138565  -0.093   5.380  13.962  0.0496 -0.2687  1.5259
 4790TIP3    H238566   0.019   5.424  13.871 -1.7220 -3.9468 -2.7930
 4791TIP3   OH238567   2.394   3.936  13.750 -0.1566  0.0504 -0.1459
 4791TIP3    H138568   2.333   4.010  13.749  0.0304  0.2051 -0.2800
 4791TIP3    H238569   2.460   3.959  13.685 -0.0805 -0.2227 -0.1659
 4792TIP3   OH238570   0.935   1.693  13.864  0.1055 -0.0826  0.2124
 4792TIP3    H138571   0.871   1.676  13.794  0.1335 -0.7039  0.3273
 4792TIP3    H238572   1.019   1.692  13.819  0.2214 -1.6586  0.4189
 4793TIP3   OH238573   3.877   3.105  14.933  0.5354 -0.0297  0.6082
 4793TIP3    H138574   3.847   3.016  14.948 -0.2121  0.4038  1.7735
 4793TIP3    H238575   3.907   3.135  15.018  0.9330  0.7843  0.1931
 4794TIP3   OH238576   4.354   3.064  16.023 -0.1324  0.0921 -0.0236
 4794TIP3    H138577   4.433   3.022  15.990 -0.8241 -1.5974  0.3834
 4794TIP3    H238578   4.293   3.063  15.949  0.4009  1.9805 -0.5398
 4795TIP3   OH238579   2.621   1.511  14.854  0.3046  0.3426 -0.6699
 4795TIP3    H138580   2.645   1.473  14.770 -0.2989 -1.2227 -0.1722
 4795TIP3    H238581   2.532   1.544  14.841  0.7999  1.5691 -1.0796
 4796TIP3   OH238582   2.183   0.042  14.205  0.4443  0.1789  0.2150
 4796TIP3    H138583   2.189   0.046  14.110  3.8383 -0.2915  0.2541
 4796TIP3    H238584   2.165   0.132  14.232  1.6069  0.7573 -0.8519
 4797TIP3   OH238585   5.029   2.768  14.745 -0.2235 -0.1439  0.3620
 4797TIP3    H138586   4.944   2.811  14.754 -0.1148 -0.1321  1.3749
 4797TIP3    H238587   5.086   2.813  14.807  0.3364 -0.6222  0.2072
 4798TIP3   OH238588   2.008   0.286  14.072 -0.0582 -0.4111  0.0153
 4798TIP3    H138589   2.103   0.299  14.064 -0.2321  1.4769  0.3733
 4798TIP3    H238590   1.971   0.371  14.048 -1.4981 -0.2185  2.5617
 4799TIP3   OH238591   0.867   2.110  15.418  0.9427  0.2000  0.0339
 4799TIP3    H138592   0.927   2.110  15.492 -0.0374  0.3344  0.8551
 4799TIP3    H238593   0.923   2.098  15.341  1.8886 -0.8296  0.8587
 4800TIP3   OH238594   2.879   4.494  14.551  0.1429  0.0778  0.2234
 4800TIP3    H138595   2.814   4.532  14.492 -0.6379  0.1871  1.1290
 4800TIP3    H238596   2.960   4.493  14.500  0.0477  2.3370 -0.0728
 4801TIP3   OH238597   4.313   4.616  16.670 -0.2561 -0.2352 -0.5576
 4801TIP3    H138598   4.243   4.601  16.607 -0.2545  1.4700 -1.0154
 4801TIP3    H238599   4.386   4.563  16.639 -0.6714 -0.3931 -1.2795
 4802TIP3   OH238600   4.867   6.385  16.524 -0.3366 -0.0086  0.3741
 4802TIP3    H138601   4.821   6.306  16.496  0.1465 -0.5366  1.0441
 4802TIP3    H238602   4.869   6.380  16.619  0.7188  0.2255  0.3753
 4803TIP3   OH238603   2.779   5.776  15.285  0.0098 -0.5270 -0.2572
 4803TIP3    H138604   2.692   5.736  15.290  0.3781 -1.1626  2.8327
 4803TIP3    H238605   2.784   5.833  15.362  2.1255 -0.0493 -0.6733
 4804TIP3   OH238606   0.542   2.466  15.045 -0.5827 -0.1108 -0.2719
 4804TIP3    H138607   0.581   2.486  14.960 -1.3753 -1.3070 -0.9469
 4804TIP3    H238608   0.456   2.429  15.024 -1.0877  0.2362  1.0841
 4805TIP3   OH238609   5.898   3.148  14.770 -0.1295 -0.5250  0.4487
 4805TIP3    H138610   5.900   3.216  14.702 -1.3022 -2.0847 -1.2243
 4805TIP3    H238611   5.979   3.161  14.819  0.5687  0.9125 -0.9939
 4806TIP3   OH238612   2.465   5.698  16.373 -0.1064 -0.0237  0.3651
 4806TIP3    H138613   2.494   5.710  16.464 -2.1671 -1.2647  1.2764
 4806TIP3    H238614   2.484   5.606  16.354  0.8030  0.3620 -0.6882
 4807TIP3   OH238615   1.197   4.991  15.442 -0.1755  0.4406 -0.2377
 4807TIP3    H138616   1.201   4.907  15.488 -0.1426  1.5481  1.9152
 4807TIP3    H238617   1.158   4.970  15.357 -0.8651 -1.6291  0.5229
 4808TIP3   OH238618   2.800   2.617  14.523 -0.0452 -0.4153 -0.1181
 4808TIP3    H138619   2.816   2.527  14.494  2.5149 -0.1527  0.2754
 4808TIP3    H238620   2.750   2.608  14.604 -0.0955 -1.4609 -0.2569
 4809TIP3   OH238621   1.338   1.108  16.535  0.0667 -0.4023 -0.3044
 4809TIP3    H138622   1.391   1.112  16.455  1.2088  1.6038  0.4795
 4809TIP3    H238623   1.308   1.197  16.549 -3.4532 -1.4237 -0.5632
 4810TIP3   OH238624   2.031   1.156  16.862 -0.2658  0.1844 -0.2984
 4810TIP3    H138625   2.121   1.136  16.887 -0.4996  2.0459  2.5044
 4810TIP3    H238626   1.986   1.071  16.869  1.0863 -0.6301 -1.0434
 4811TIP3   OH238627   2.511   2.328  14.132  0.2190 -0.4113  0.4401
 4811TIP3    H138628   2.580   2.392  14.110  1.4585 -1.3443  1.4081
 4811TIP3    H238629   2.471   2.364  14.211 -1.7433  1.0832 -1.1481
 4812TIP3   OH238630   5.349   4.251  15.212 -0.2343 -0.2344  0.1328
 4812TIP3    H138631   5.392   4.334  15.228 -0.2129 -0.0083 -1.0198
 4812TIP3    H238632   5.397   4.212  15.139 -0.9428 -0.7425 -0.0781
 4813TIP3   OH238633   0.865   6.361  16.338  0.4268 -0.5286 -0.0269
 4813TIP3    H138634   0.897   6.281  16.380  1.4719 -0.0426  0.1156
 4813TIP3    H238635   0.944   6.406  16.308 -0.0390  1.1833  1.2028
 4814TIP3   OH238636   0.003   5.432  14.798 -0.6033  0.0298 -0.1872
 4814TIP3    H138637   0.035   5.473  14.718  3.0101 -0.6006  0.7599
 4814TIP3    H238638  -0.070   5.377  14.770  0.1933  0.2523 -2.9348
 4815TIP3   OH238639   6.193   1.311  14.488  0.6309 -0.1330  0.6463
 4815TIP3    H138640   6.151   1.374  14.430 -1.4951 -0.1837  2.0061
 4815TIP3    H238641   6.243   1.365  14.549 -1.7809  0.4509  2.2816
 4816TIP3   OH238642   2.401   5.093  13.413  0.5841 -0.0099 -0.0913
 4816TIP3    H138643   2.343   5.108  13.339 -2.7748 -2.7466  1.6781
 4816TIP3    H238644   2.449   5.175  13.424 -1.2788  1.6399 -3.1225
 4817TIP3   OH238645   1.879   5.466  14.223 -0.0377  0.0538 -0.3313
 4817TIP3    H138646   1.908   5.487  14.134  1.6401 -1.6898 -0.2774
 4817TIP3    H238647   1.895   5.546  14.273 -2.0954  1.4642 -1.7585
 4818TIP3   OH238648   2.174   6.124  17.582  0.0597 -0.3821  0.5264
 4818TIP3    H138649   2.210   6.203  17.543 -0.8103  0.7001  1.8207
 4818TIP3    H238650   2.182   6.138  17.677 -1.0617 -1.3672  0.7974
 4819TIP3   OH238651   6.520   2.132  16.502 -0.4388 -0.4192  0.0376
 4819TIP3    H138652   6.600   2.180  16.481 -1.0797 -0.4458 -2.8829
 4819TIP3    H238653   6.457   2.200  16.525  0.0230 -0.2862  0.9300
 4820TIP3   OH238654   4.406   3.876  14.515  0.1326 -0.0628  0.1977
 4820TIP3    H138655   4.396   3.813  14.444  1.5090 -0.2525  0.1585
 4820TIP3    H238656   4.322   3.922  14.518 -0.3493 -0.8448 -0.7770
 4821TIP3   OH238657   3.035   5.626  16.751  0.1347 -0.0524  0.6493
 4821TIP3    H138658   3.001   5.705  16.709 -1.0433 -0.3088  1.1020
 4821TIP3    H238659   3.066   5.572  16.678  0.1844  0.4598  0.2795
 4822TIP3   OH238660   3.716   0.837  15.189 -0.4622 -0.2274 -0.3647
 4822TIP3    H138661   3.721   0.820  15.095  1.5015  0.8482 -0.5240
 4822TIP3    H238662   3.714   0.933  15.195  1.2533 -0.2054  0.6726
 4823TIP3   OH238663   1.464   0.693  17.195 -0.0480  0.1715 -0.0306
 4823TIP3    H138664   1.374   0.660  17.191  0.6681 -1.8086 -2.5528
 4823TIP3    H238665   1.463   0.772  17.141 -0.1787 -0.2044 -0.5903
 4824TIP3   OH238666   1.697   4.378  14.270  0.7064  0.0284 -0.0775
 4824TIP3    H138667   1.789   4.380  14.295  0.7553  0.9794 -0.2948
 4824TIP3    H238668   1.665   4.467  14.288  0.0560 -0.0408 -0.8377
 4825TIP3   OH238669   0.819   5.539  14.238 -0.0563 -1.4654 -0.0874
 4825TIP3    H138670   0.760   5.545  14.163  0.4066 -0.5218 -0.3934
 4825TIP3    H238671   0.894   5.594  14.214  1.1918 -2.9930  0.0684
 4826TIP3   OH238672   6.326   1.309  14.103  0.4806 -0.4537  0.2321
 4826TIP3    H138673   6.303   1.227  14.059  1.2154 -0.3036 -0.4443
 4826TIP3    H238674   6.421   1.316  14.094  0.4650  0.3042  0.5670
 4827TIP3   OH238675   3.934   1.571  13.781 -0.0580  0.3026  0.1236
 4827TIP3    H138676   3.918   1.642  13.718 -2.3411 -0.3257 -0.0843
 4827TIP3    H238677   3.949   1.494  13.727  2.9567  0.6051  0.3387
 4828TIP3   OH238678   1.378   3.817  16.640 -0.0269  0.1693  0.2988
 4828TIP3    H138679   1.340   3.878  16.577  1.2263  0.6344 -0.0388
 4828TIP3    H238680   1.359   3.730  16.604  0.3824  0.4200 -0.5514
 4829TIP3   OH238681   5.203   1.587  15.411  0.5396  0.5654 -0.0746
 4829TIP3    H138682   5.218   1.641  15.334  1.6506 -1.1662 -1.1336
 4829TIP3    H238683   5.253   1.507  15.395 -0.6374 -0.5908  1.6363
 4830TIP3   OH238684   5.828   6.212  13.759 -0.5312  0.2936  0.1107
 4830TIP3    H138685   5.839   6.306  13.774 -1.2974  0.5755 -0.9777
 4830TIP3    H238686   5.762   6.206  13.690 -0.7758 -1.0648  0.4392
 4831TIP3   OH238687   3.642   6.331  14.458 -0.3711 -0.5015 -0.2704
 4831TIP3    H138688   3.701   6.406  14.456 -2.4703  1.2695 -0.2546
 4831TIP3    H238689   3.554   6.370  14.458 -1.5580 -2.9639  0.5432
 4832TIP3   OH238690   5.972   0.564  15.959  0.0442 -0.1749 -0.3090
 4832TIP3    H138691   5.950   0.481  16.001  0.5533 -0.1217  0.0724
 4832TIP3    H238692   5.945   0.631  16.021  1.2204 -0.1064  0.1594
 4833TIP3   OH238693   1.397   1.287  16.059  0.2023 -0.2218 -0.4726
 4833TIP3    H138694   1.362   1.209  16.016  2.5252 -0.7272 -1.5979
 4833TIP3    H238695   1.369   1.360  16.004 -2.4661 -0.0832  0.8855
 4834TIP3   OH238696   1.759   2.749  16.490  0.5108  0.6079 -0.3045
 4834TIP3    H138697   1.737   2.668  16.443 -0.8284  0.3251  0.7373
 4834TIP3    H238698   1.834   2.785  16.443  1.0059 -1.1382 -0.9198
 4835TIP3   OH238699   6.637   5.721  15.214 -0.0552 -0.2592 -0.1784
 4835TIP3    H138700   6.715   5.761  15.175 -0.7935  0.1630 -1.2816
 4835TIP3    H238701   6.571   5.790  15.211 -1.0560 -1.2241 -1.1808
 4836TIP3   OH238702   0.859   4.682  13.874 -0.4132  0.3875  0.5001
 4836TIP3    H138703   0.925   4.696  13.806 -0.2672 -1.2165  0.2797
 4836TIP3    H238704   0.910   4.663  13.953 -0.4367 -3.5638 -0.2182
 4837TIP3   OH238705   1.993   3.850  14.138 -0.6637  0.1507  0.1339
 4837TIP3    H138706   1.953   3.932  14.110  0.7880  0.1682 -2.1920
 4837TIP3    H238707   2.054   3.875  14.207 -1.0240  0.8614  0.2043
 4838TIP3   OH238708   2.403   6.023  14.250  0.4209 -0.4479 -0.1175
 4838TIP3    H138709   2.389   5.999  14.341  0.5196 -0.6977 -0.1679
 4838TIP3    H238710   2.379   6.116  14.245  0.0648 -0.5296  0.0837
 4839TIP3   OH238711   3.337   0.819  16.299  0.2479  0.0160 -0.1337
 4839TIP3    H138712   3.244   0.795  16.302 -0.1121  1.2755 -0.6265
 4839TIP3    H238713   3.372   0.789  16.383 -1.3648  2.4086  1.5342
 4840TIP3   OH238714   3.825   0.995  15.473 -0.1229  0.0432 -0.2083
 4840TIP3    H138715   3.863   1.066  15.526  1.1906 -0.7525 -0.0489
 4840TIP3    H238716   3.851   0.915  15.518 -0.2101 -0.6025 -1.2805
 4841TIP3   OH238717   3.477   2.757  14.262 -0.2741  0.2748 -0.0197
 4841TIP3    H138718   3.556   2.792  14.222 -0.7600  1.0623 -0.3349
 4841TIP3    H238719   3.504   2.675  14.302  0.7952  0.7332  0.2432
 4842TIP3   OH238720   6.036   1.397  16.353  0.3307 -0.1213 -0.0616
 4842TIP3    H138721   6.114   1.452  16.347  0.0877  0.3076  0.6322
 4842TIP3    H238722   6.024   1.363  16.264  1.2104 -0.0717 -0.2110
 4843TIP3   OH238723   1.683   1.792  14.781 -0.2438  0.3062  0.2160
 4843TIP3    H138724   1.588   1.807  14.789 -0.3619  0.0278 -0.5973
 4843TIP3    H238725   1.721   1.841  14.854 -1.0132  0.4549  0.5259
 4844TIP3   OH238726   6.494   5.109  15.100  0.2910 -0.5953  0.2590
 4844TIP3    H138727   6.512   5.015  15.091  0.4318 -0.4837 -0.7086
 4844TIP3    H238728   6.544   5.135  15.177  0.6650 -1.2107  0.2376
 4845TIP3   OH238729   1.640   4.030  15.102  0.2897 -0.0620 -0.3378
 4845TIP3    H138730   1.601   3.944  15.116 -1.2547  0.6315 -0.1855
 4845TIP3    H238731   1.730   4.020  15.133 -0.1814 -1.3159  0.7387
 4846TIP3   OH238732   6.616   4.726  15.687 -0.5493 -0.7091  0.4748
 4846TIP3    H138733   6.705   4.760  15.699 -0.4625 -1.3471  1.8158
 4846TIP3    H238734   6.627   4.650  15.629 -0.5425  0.5460 -1.2217
 4847TIP3   OH238735   3.260   1.751  14.634 -0.7589  0.1041  0.2176
 4847TIP3    H138736   3.201   1.825  14.644 -1.2648  0.1634 -2.4232
 4847TIP3    H238737   3.343   1.790  14.607 -0.2316 -0.1486  1.4222
 4848TIP3   OH238738   6.072   5.881  15.920 -0.2239  0.3998  0.1159
 4848TIP3    H138739   6.106   5.969  15.935  0.5504  0.0991  0.1400
 4848TIP3    H238740   6.123   5.825  15.978  1.3205 -0.4868 -1.9852
 4849TIP3   OH238741   3.439   0.197  13.061  0.1466 -0.0676  0.2158
 4849TIP3    H138742   3.486   0.264  13.011  1.3415 -0.7635  0.3643
 4849TIP3    H238743   3.377   0.159  12.998  1.5713 -0.8831 -0.7561
 4850TIP3   OH238744   5.348   2.322  14.840 -0.3399 -0.0165 -0.1937
 4850TIP3    H138745   5.297   2.398  14.813 -0.2536  0.6380  1.3721
 4850TIP3    H238746   5.337   2.318  14.935  0.6728 -1.2225 -0.0966
 4851TIP3   OH238747   2.131   5.963  17.200 -0.3770 -0.0497  0.3663
 4851TIP3    H138748   2.224   5.938  17.197 -0.1857  0.5940  0.5878
 4851TIP3    H238749   2.102   5.938  17.288 -0.5435 -0.6880  0.1298
 4852TIP3   OH238750   5.570   2.793  13.862 -0.1500  0.0143 -0.2922
 4852TIP3    H138751   5.567   2.705  13.899 -0.1215  0.4779  0.8552
 4852TIP3    H238752   5.504   2.793  13.793  0.2406 -1.0628 -0.6839
 4853TIP3   OH238753   3.532   2.854  14.963 -0.1985  0.0890  0.0660
 4853TIP3    H138754   3.561   2.837  15.053 -0.4767 -2.0524 -0.1980
 4853TIP3    H238755   3.452   2.802  14.954  0.8818 -1.3599 -2.0026
 4854TIP3   OH238756   5.322   5.883  14.528 -0.0763  0.5851  0.5286
 4854TIP3    H138757   5.409   5.847  14.543 -0.0671  0.9507  1.4317
 4854TIP3    H238758   5.338   5.965  14.482  0.0976  0.9257  1.1880
 4855TIP3   OH238759   0.584   0.017  15.614 -0.8549 -0.4357 -0.2526
 4855TIP3    H138760   0.523   0.090  15.602  2.0493  1.9748 -1.7134
 4855TIP3    H238761   0.630   0.036  15.695 -0.1018 -0.6256 -0.6204
 4856TIP3   OH238762   3.738   3.992  15.813  0.0636  0.0952 -0.1447
 4856TIP3    H138763   3.662   4.047  15.833 -1.2976 -1.6965 -0.1504
 4856TIP3    H238764   3.784   3.985  15.897  0.4121  1.3884 -0.1942
 4857TIP3   OH238765   5.161   4.549  16.177  0.0498 -0.6508  0.4729
 4857TIP3    H138766   5.091   4.490  16.149 -0.5294 -0.3187  1.1615
 4857TIP3    H238767   5.162   4.619  16.112  0.6127 -1.3099 -0.2421
 4858TIP3   OH238768   1.378   1.856  16.029 -0.1513  0.1069 -0.3133
 4858TIP3    H138769   1.325   1.827  16.104 -1.1150  1.9389 -0.2352
 4858TIP3    H238770   1.316   1.861  15.956  0.0335  1.5410 -0.4070
 4859TIP3   OH238771   0.572   0.966  14.711 -0.1474  0.0154 -1.3090
 4859TIP3    H138772   0.580   1.029  14.639 -0.7304  1.8616  0.1571
 4859TIP3    H238773   0.618   1.007  14.784 -0.1376 -1.4967 -0.4299
 4860TIP3   OH238774   5.138   1.509  14.494 -0.2513  0.3841  0.1268
 4860TIP3    H138775   5.207   1.453  14.459 -1.1885  0.3184 -1.7678
 4860TIP3    H238776   5.185   1.580  14.538  1.0210  0.0487 -0.6252
 4861TIP3   OH238777   0.917   6.439  13.906 -0.5994 -0.4482  0.0643
 4861TIP3    H138778   1.001   6.420  13.947 -0.9213 -0.3074  0.8007
 4861TIP3    H238779   0.856   6.378  13.947 -0.9744 -0.1302 -0.0206
 4862TIP3   OH238780   2.805   1.719  15.712 -0.2038  0.2805 -0.1403
 4862TIP3    H138781   2.831   1.786  15.775 -0.4607 -1.0423  1.4578
 4862TIP3    H238782   2.878   1.715  15.650  0.0716  1.6057  0.0627
 4863TIP3   OH238783   1.008   1.960  15.222 -0.1099 -0.0617  0.1932
 4863TIP3    H138784   0.975   1.875  15.192 -0.4022 -0.1262  0.6909
 4863TIP3    H238785   1.057   1.994  15.147  2.1331 -1.7650  0.7639
 4864TIP3   OH238786   6.048   2.855  13.271  0.0036  0.0775  0.4030
 4864TIP3    H138787   6.035   2.766  13.239 -1.3589  0.0307  0.9870
 4864TIP3    H238788   5.960   2.883  13.297  0.2369  1.9433 -0.6789
 4865TIP3   OH238789   6.027   3.654  14.342 -0.6394  0.3752 -0.2914
 4865TIP3    H138790   5.944   3.620  14.310 -0.3178 -0.8964  0.1422
 4865TIP3    H238791   6.030   3.625  14.434 -0.6380  2.1842  0.3131
 4866TIP3   OH238792   2.352   2.557  16.105 -0.3597 -0.0484  0.2224
 4866TIP3    H138793   2.306   2.632  16.067  0.0945 -0.7056 -1.7494
 4866TIP3    H238794   2.289   2.518  16.165 -1.2483  0.8528 -0.0925
 4867TIP3   OH238795   5.956   0.274  14.012 -0.2257  0.1880  0.2875
 4867TIP3    H138796   5.927   0.354  14.056  0.5605  0.8045 -0.2915
 4867TIP3    H238797   6.030   0.243  14.064 -1.2462 -0.8157  1.1740
 4868TIP3   OH238798   6.329   6.591  16.208 -0.2970 -0.2037 -0.5420
 4868TIP3    H138799   6.392   6.541  16.260 -0.1213  1.8960  1.4055
 4868TIP3    H238800   6.366   6.593  16.120  0.4896 -2.0481 -0.2958
 4869TIP3   OH238801   6.394   2.293  14.626  0.4614 -0.4481  0.3095
 4869TIP3    H138802   6.451   2.353  14.578  1.0622 -1.3113 -0.0805
 4869TIP3    H238803   6.309   2.337  14.630  1.1619  0.8896  0.9643
 4870TIP3   OH238804   0.076   4.093  14.920  0.6290 -0.7510 -0.1886
 4870TIP3    H138805   0.165   4.113  14.890  0.2994  0.7974 -0.2533
 4870TIP3    H238806   0.019   4.127  14.850 -0.0713  0.5908  0.9724
 4871TIP3   OH238807   1.623   5.391  15.145 -0.3865 -0.1006  0.1367
 4871TIP3    H138808   1.559   5.439  15.197  1.5266  1.7019  1.0063
 4871TIP3    H238809   1.686   5.359  15.209 -0.4716 -2.0028 -0.6617
 4872TIP3   OH238810   3.866   2.490  16.029 -0.0711 -0.6264  0.1733
 4872TIP3    H138811   3.855   2.543  16.107 -1.9679  1.2439 -1.2317
 4872TIP3    H238812   3.940   2.529  15.982 -0.1378 -0.5364  0.1424
 4873TIP3   OH238813   3.345   1.946  17.200  0.0920 -0.3286  0.0739
 4873TIP3    H138814   3.282   1.876  17.215  0.4185 -0.2627  1.9940
 4873TIP3    H238815   3.426   1.914  17.241  1.0899 -0.0353 -1.5667
 4874TIP3   OH238816   5.914   1.419  16.967  0.1018  0.2318 -0.5225
 4874TIP3    H138817   5.846   1.372  16.917  1.1451 -0.7213 -1.0934
 4874TIP3    H238818   5.996   1.389  16.929  0.9641 -0.5612  1.7652
 4875TIP3   OH238819   3.140   1.007  15.372 -0.0176 -0.3961 -0.0284
 4875TIP3    H138820   3.209   0.943  15.354 -0.7772 -0.5326 -3.0701
 4875TIP3    H238821   3.058   0.959  15.359 -0.6327  0.6360 -0.0650
 4876TIP3   OH238822   1.185   1.390  14.337  0.3144  0.6821 -0.1610
 4876TIP3    H138823   1.131   1.389  14.415  0.3937 -0.7818 -0.0826
 4876TIP3    H238824   1.131   1.348  14.270  1.3144 -0.8362 -0.0698
 4877TIP3   OH238825   6.401   4.300  15.418 -0.3472  0.2549 -0.3149
 4877TIP3    H138826   6.403   4.361  15.492  0.3934 -0.3337  0.1684
 4877TIP3    H238827   6.488   4.307  15.379 -0.2187 -0.5354 -0.2002
 4878TIP3   OH238828   5.109   2.987  15.582 -0.3057  0.0659  0.0434
 4878TIP3    H138829   5.162   3.029  15.651  0.3848 -0.0365 -0.4123
 4878TIP3    H238830   5.021   2.984  15.618 -0.2736  1.4502  0.2975
 4879TIP3   OH238831   6.060   0.551  14.800  0.3623  0.5103  0.2625
 4879TIP3    H138832   6.150   0.562  14.830  0.3735 -2.6184  1.7445
 4879TIP3    H238833   6.047   0.456  14.796 -2.7466  0.8488 -0.2905
 4880TIP3   OH238834   5.755   6.682  15.039 -0.0461 -0.0193  0.0048
 4880TIP3    H138835   5.793   6.692  15.126  0.2614  2.4368 -0.3537
 4880TIP3    H238836   5.818   6.629  14.991  1.1289  0.8888  0.5096
 4881TIP3   OH238837   5.433   5.695  16.843 -0.2005 -0.0538  0.3513
 4881TIP3    H138838   5.370   5.723  16.776 -0.0671 -1.6514 -0.4875
 4881TIP3    H238839   5.514   5.741  16.820 -0.4382  0.2128  0.0305
 4882TIP3   OH238840   3.960   5.188  15.376 -0.4526  0.5910  0.9292
 4882TIP3    H138841   3.992   5.142  15.299 -2.1028 -0.7059  0.9716
 4882TIP3    H238842   4.023   5.167  15.444 -0.8636 -1.2144  0.8096
 4883TIP3   OH238843   1.108   5.150  14.471 -0.3905 -0.2563 -0.6468
 4883TIP3    H138844   1.141   5.214  14.534 -0.4853 -2.1999  1.4873
 4883TIP3    H238845   1.181   5.090  14.458 -1.9446 -2.9101  1.8324
 4884TIP3   OH238846   4.784   4.271  14.623  0.3289 -0.2120  0.2645
 4884TIP3    H138847   4.741   4.272  14.538  2.5677  0.5006 -0.9181
 4884TIP3    H238848   4.815   4.181  14.633  0.2084 -0.2527  0.2837
 4885TIP3   OH238849   0.938   4.458  14.669 -0.3049  0.3405 -0.3901
 4885TIP3    H138850   1.000   4.531  14.666 -0.8801  0.9699  1.3280
 4885TIP3    H238851   0.885   4.476  14.747 -0.5705 -1.8379 -0.0164
 4886TIP3   OH238852   2.317   5.157  13.979 -0.0586  0.2663 -0.2472
 4886TIP3    H138853   2.256   5.181  13.909  0.6210 -1.8084 -1.6657
 4886TIP3    H238854   2.400   5.198  13.954  0.8368 -2.3876 -2.1262
 4887TIP3   OH238855   3.521   4.860  16.554  0.3429  0.3480  0.0907
 4887TIP3    H138856   3.444   4.913  16.576  0.2933  0.1018  0.5132
 4887TIP3    H238857   3.486   4.777  16.524  0.4521 -0.4698  2.0733
 4888TIP3   OH238858   5.368   5.161  14.758 -0.4125  0.4603 -0.4387
 4888TIP3    H138859   5.463   5.149  14.748 -0.2872  1.2116 -0.2311
 4888TIP3    H238860   5.358   5.253  14.783 -1.2630  0.6507 -1.4020
 4889TIP3   OH238861   5.792   2.521  14.490 -0.0666  0.7231 -0.8963
 4889TIP3    H138862   5.831   2.438  14.462  1.8137  0.5878  1.7042
 4889TIP3    H238863   5.732   2.497  14.561 -0.1860  1.4740 -0.7329
 4890TIP3   OH238864   6.439   2.821  16.091  0.2413 -0.2919  0.1644
 4890TIP3    H138865   6.397   2.887  16.036 -0.0817 -0.4259  0.2484
 4890TIP3    H238866   6.491   2.871  16.154  0.7686 -0.1405 -0.3778
 4891TIP3   OH238867   0.624   3.963  15.325 -0.4041 -0.6451 -0.2504
 4891TIP3    H138868   0.538   3.999  15.306  0.0053  0.5861  0.1733
 4891TIP3    H238869   0.631   3.967  15.420  0.3989 -0.0540 -0.3225
 4892TIP3   OH238870   6.465   1.899  16.379 -0.0766  0.0322  0.0071
 4892TIP3    H138871   6.549   1.852  16.379  0.2805  0.6487 -0.6126
 4892TIP3    H238872   6.481   1.975  16.434 -0.6807 -0.5922  1.0759
 4893TIP3   OH238873   0.398   5.669  16.333 -0.2747 -0.1659 -0.7604
 4893TIP3    H138874   0.448   5.602  16.286  0.7637 -0.3802  0.5739
 4893TIP3    H238875   0.377   5.628  16.417 -0.1371  0.9767 -0.1462
 4894TIP3   OH238876   4.816   2.556  15.922 -0.6114  0.6999 -0.2044
 4894TIP3    H138877   4.751   2.606  15.971 -0.7710  0.9950 -0.7101
 4894TIP3    H238878   4.766   2.488  15.878 -0.4011  0.1208  0.4359
 4895TIP3   OH238879   4.010   2.869  15.478  0.0015  0.4415 -0.2562
 4895TIP3    H138880   4.022   2.946  15.533  0.5444  1.9198 -2.2977
 4895TIP3    H238881   3.948   2.814  15.526  0.8233  1.3575  2.0046
 4896TIP3   OH238882   0.272   4.911  16.575 -0.0900  0.2125  0.2552
 4896TIP3    H138883   0.204   4.882  16.636  1.2568 -1.0168  1.2355
 4896TIP3    H238884   0.333   4.961  16.629 -0.1586  1.2387 -0.5959
 4897TIP3   OH238885   2.579   4.877  17.280  0.0646  0.0423 -0.1361
 4897TIP3    H138886   2.567   4.783  17.293 -2.5208  0.7341  5.1163
 4897TIP3    H238887   2.492   4.911  17.262  0.9409  1.5493 -1.8586
 4898TIP3   OH238888   4.227   2.324  15.867 -0.6499  0.0979 -0.2162
 4898TIP3    H138889   4.189   2.237  15.858 -0.2157 -0.1798  0.5595
 4898TIP3    H238890   4.217   2.364  15.780 -0.5724 -0.8378 -0.6641
 4899TIP3   OH238891   3.532   5.852  15.742  0.1653 -0.3210  0.1540
 4899TIP3    H138892   3.493   5.769  15.714  0.5145  0.0921 -1.6317
 4899TIP3    H238893   3.479   5.920  15.702 -0.3353  0.3739  1.9000
 4900TIP3   OH238894   3.387   5.961  17.050  0.0551  0.0381  0.4581
 4900TIP3    H138895   3.388   5.897  16.979 -1.7246 -0.1334  0.5308
 4900TIP3    H238896   3.357   5.911  17.127 -0.3927  0.7364  0.7470
 4901TIP3   OH238897   5.791   1.658  14.449 -0.4065 -0.0839 -0.5120
 4901TIP3    H138898   5.800   1.752  14.433  1.1208 -0.3104 -1.1191
 4901TIP3    H238899   5.764   1.622  14.365 -4.3451  0.1291  0.4461
 4902TIP3   OH238900   6.121   5.720  14.759  0.1048  0.8869  0.1393
 4902TIP3    H138901   6.185   5.671  14.810  1.9169  0.9821 -1.9305
 4902TIP3    H238902   6.130   5.810  14.790  0.1414  0.7193  0.6331
 4903TIP3   OH238903   2.749   1.348  15.070 -0.1902 -0.4929 -0.4472
 4903TIP3    H138904   2.710   1.408  15.006  0.1288  0.2311  0.0205
 4903TIP3    H238905   2.780   1.405  15.140 -1.7167 -1.3676  1.0194
 4904TIP3   OH238906   0.929   6.196  14.870 -0.3814  0.7206  0.2557
 4904TIP3    H138907   0.970   6.147  14.942 -1.6952 -0.6737  0.1169
 4904TIP3    H238908   0.985   6.180  14.795 -0.3001  0.1639  0.4300
 4905TIP3   OH238909   3.122   4.473  14.374 -0.0186  0.2065 -0.2597
 4905TIP3    H138910   3.171   4.449  14.295 -2.3016  0.3310 -1.7964
 4905TIP3    H238911   3.181   4.530  14.423  0.8063  1.6597 -2.8047
 4906TIP3   OH238912   1.962   2.157  14.835  0.1827 -0.6459  0.1333
 4906TIP3    H138913   1.963   2.200  14.749  0.5358 -0.2285  0.3422
 4906TIP3    H238914   1.995   2.069  14.818 -0.5894 -0.8703 -0.3073
 4907TIP3   OH238915   2.754   5.510  16.749  0.3464 -0.1003 -0.4044
 4907TIP3    H138916   2.703   5.576  16.701 -0.0832 -0.3551 -0.2995
 4907TIP3    H238917   2.739   5.531  16.841  0.4072 -0.2009 -0.3720
 4908TIP3   OH238918   4.366   0.171  16.183  0.1542 -0.3700  0.0998
 4908TIP3    H138919   4.455   0.151  16.156  0.5106  1.8672 -0.5912
 4908TIP3    H238920   4.374   0.247  16.240 -1.2349 -0.8778  1.0549
 4909TIP3   OH238921   4.396   5.283  15.895  0.4264  0.6071 -0.2123
 4909TIP3    H138922   4.474   5.303  15.843  1.0600  0.2617  0.5983
 4909TIP3    H238923   4.412   5.195  15.929 -1.0873 -0.2111 -1.4421
 4910TIP3   OH238924   1.533   1.266  13.641  0.1824  0.8277  0.5102
 4910TIP3    H138925   1.483   1.283  13.561 -1.0799 -0.0662  1.0673
 4910TIP3    H238926   1.612   1.319  13.632 -0.9271  2.4265 -0.3515
 4911TIP3   OH238927   0.674   2.878  15.839  0.2100  0.0146 -0.2702
 4911TIP3    H138928   0.583   2.854  15.826 -0.3817  2.1518 -0.5618
 4911TIP3    H238929   0.679   2.908  15.930  0.8366 -0.8691  0.0015
 4912TIP3   OH238930   4.099   3.183  16.102  0.2135  0.6677  0.0510
 4912TIP3    H138931   4.120   3.210  16.012  1.3133  1.3273  0.4801
 4912TIP3    H238932   4.178   3.203  16.152  0.4986 -1.9220  0.7400
 4913TIP3   OH238933   2.308   1.917  15.527 -0.2586 -0.5678  0.3523
 4913TIP3    H138934   2.386   1.964  15.556 -0.4614  0.2357 -0.3706
 4913TIP3    H238935   2.288   1.954  15.441 -2.2592  0.2845  1.1213
 4914TIP3   OH238936   1.676   0.162  15.969  0.6689  0.5814  0.4027
 4914TIP3    H138937   1.596   0.146  15.918  1.1540  0.6478 -0.3924
 4914TIP3    H238938   1.648   0.222  16.038 -0.0571  0.2968  0.3641
 4915TIP3   OH238939   6.471   4.187  14.983 -0.6416  0.3478 -0.6412
 4915TIP3    H138940   6.515   4.197  14.898 -0.6451 -2.9165 -1.1642
 4915TIP3    H238941   6.381   4.162  14.961 -0.4672 -1.2113  0.2600
 4916TIP3   OH238942   1.060   6.127  16.469 -0.6134  0.2976 -0.0216
 4916TIP3    H138943   1.034   6.039  16.495  1.8305 -0.4707  0.0892
 4916TIP3    H238944   1.037   6.182  16.544 -2.2685 -0.1742 -0.1361
 4917TIP3   OH238945   1.838   2.830  14.650  0.5283 -0.5396  0.0176
 4917TIP3    H138946   1.751   2.811  14.617 -0.2828  1.7044  0.6872
 4917TIP3    H238947   1.836   2.801  14.741  0.6039 -0.8168 -0.0684
 4918TIP3   OH238948   0.526   5.170  15.419 -0.6690 -1.0024 -0.4450
 4918TIP3    H138949   0.470   5.239  15.384  2.0527  2.3279  1.1763
 4918TIP3    H238950   0.592   5.155  15.351 -0.6695 -1.2658 -0.3909
 4919TIP3   OH238951   0.727   3.474  14.529  0.3397  0.3724  0.1171
 4919TIP3    H138952   0.636   3.472  14.497  0.4751  1.4835 -0.4110
 4919TIP3    H238953   0.779   3.443  14.455  0.7600  4.0226 -1.3317
 4920TIP3   OH238954   4.641   3.997  16.988 -0.4882 -0.8129 -0.2662
 4920TIP3    H138955   4.720   3.945  17.003 -0.7198 -1.2692 -0.5810
 4920TIP3    H238956   4.586   3.941  16.934 -0.6716 -0.1671 -0.7663
 4921TIP3   OH238957   0.315   2.163  13.927  0.0380  0.6176 -0.3136
 4921TIP3    H138958   0.221   2.182  13.926 -0.3402 -1.1115 -0.0685
 4921TIP3    H238959   0.349   2.217  13.999 -1.4070 -1.2639  1.9562
 4922TIP3   OH238960   5.828   1.171  14.340  0.3260  0.0807  0.1994
 4922TIP3    H138961   5.890   1.229  14.297 -0.4039  0.9983  0.3468
 4922TIP3    H238962   5.806   1.216  14.422 -0.4368 -0.2820  0.2040
 4923TIP3   OH238963   5.442   5.401  14.115  0.8414 -0.2943 -0.2801
 4923TIP3    H138964   5.400   5.349  14.184 -0.4681  1.1610  0.0880
 4923TIP3    H238965   5.533   5.407  14.142  0.3607  0.2393  1.3520
 4924TIP3   OH238966   4.957   2.904  14.172  0.7915 -0.8900  0.0788
 4924TIP3    H138967   4.929   2.881  14.260 -0.7154 -1.0471 -0.4113
 4924TIP3    H238968   5.045   2.940  14.183  0.6824 -1.0447  1.6168
 4925TIP3   OH238969   2.054   5.149  15.583  0.0055 -0.1509  0.0672
 4925TIP3    H138970   2.035   5.077  15.523 -1.4819  0.9101 -0.8134
 4925TIP3    H238971   2.076   5.106  15.666 -3.6163 -1.7177  0.4140
 4926TIP3   OH238972   6.052   2.107  16.650 -0.5515 -0.2517 -0.2237
 4926TIP3    H138973   6.089   2.161  16.580  1.5415 -0.6124  0.5511
 4926TIP3    H238974   6.040   2.166  16.723  2.1579 -0.7799  0.7753
 4927TIP3   OH238975   4.626   1.864  16.390 -0.0054  0.4965  0.0801
 4927TIP3    H138976   4.632   1.785  16.336  1.6285  0.0131  0.8816
 4927TIP3    H238977   4.542   1.855  16.436 -1.2657  0.7579 -2.0325
 4928TIP3   OH238978   5.023   5.390  16.260 -0.1583 -0.0252 -0.0230
 4928TIP3    H138979   5.081   5.341  16.202  0.5998  1.5765 -0.6742
 4928TIP3    H238980   4.947   5.411  16.206  0.3209  1.0219 -0.3326
 4929TIP3   OH238981   3.690   2.587  15.134 -0.1094 -0.0589  0.3759
 4929TIP3    H138982   3.627   2.525  15.096 -0.4523 -0.6793  1.9050
 4929TIP3    H238983   3.637   2.663  15.159  0.0860  0.2595 -0.1444
 4930TIP3   OH238984   2.199   0.755  13.586  0.2198 -0.2926 -0.4681
 4930TIP3    H138985   2.145   0.829  13.558  0.8137 -0.2802 -1.6595
 4930TIP3    H238986   2.169   0.682  13.532 -0.8476 -1.1310  1.1881
 4931TIP3   OH238987   4.852   4.063  15.078  0.9221  0.0706 -0.2758
 4931TIP3    H138988   4.887   4.145  15.115  0.7249  0.8653 -1.7538
 4931TIP3    H238989   4.930   4.018  15.044  0.8430  0.5555 -1.1369
 4932TIP3   OH238990   5.845   5.938  16.101  0.1265 -0.5924 -0.1808
 4932TIP3    H138991   5.850   6.019  16.152 -0.3136  0.5007 -1.7743
 4932TIP3    H238992   5.933   5.925  16.067 -0.0823 -0.0402 -0.9663
 4933TIP3   OH238993   2.528   3.804  13.501  0.3418 -0.5079  0.0286
 4933TIP3    H138994   2.483   3.720  13.507  0.0339 -0.2396  2.1157
 4933TIP3    H238995   2.616   3.786  13.535 -0.0398  0.1951  1.4559
 4934TIP3   OH238996   3.819   0.266  15.150  0.3332  0.0925  0.3365
 4934TIP3    H138997   3.859   0.198  15.095  1.3809  1.6585 -0.9323
 4934TIP3    H238998   3.890   0.296  15.207  1.4444  3.4848 -2.5060
 4935TIP3   OH238999   3.920   1.781  16.530 -0.2937  0.0302  0.1649
 4935TIP3    H139000   3.977   1.705  16.545 -0.3033 -0.0565 -0.2179
 4935TIP3    H239001   3.917   1.790  16.435  0.8055  1.3414  0.2279
 4936TIP3   OH239002   1.324   6.025  14.639  0.4295  0.1108  0.2476
 4936TIP3    H139003   1.340   5.982  14.723  1.0493 -0.2352 -0.0414
 4936TIP3    H239004   1.409   6.024  14.595  0.1014  0.2445 -0.4016
 4937TIP3   OH239005   6.393   5.706  17.026  1.1475 -0.1232 -0.4262
 4937TIP3    H139006   6.339   5.759  17.084  1.4833 -0.8662  0.5907
 4937TIP3    H239007   6.330   5.656  16.974  0.8022  1.7054 -1.8844
 4938TIP3   OH239008   2.528   6.695  15.890  0.1206  0.2705  0.7648
 4938TIP3    H139009   2.555   6.757  15.822 -1.9306  1.8391  1.2861
 4938TIP3    H239010   2.531   6.610  15.846  0.3437  1.0465 -0.8170
 4939TIP3   OH239011   5.531   3.335  16.105  0.1175  0.1887 -0.5508
 4939TIP3    H139012   5.463   3.318  16.040  1.6341 -1.1120 -1.8779
 4939TIP3    H239013   5.565   3.422  16.082  0.1448  0.0527 -1.0269
 4940TIP3   OH239014   1.242   1.132  16.897  0.0850  0.6261  0.0946
 4940TIP3    H139015   1.245   1.048  16.942  3.1819  0.8040  0.4546
 4940TIP3    H239016   1.218   1.111  16.807  0.0700 -0.5541  0.3567
 4941TIP3   OH239017   2.668   0.635  17.042  0.1161  0.5505  0.5040
 4941TIP3    H139018   2.617   0.715  17.035  0.0459  0.4953  0.3574
 4941TIP3    H239019   2.745   0.659  17.092 -0.6983  0.3192  1.9048
 4942TIP3   OH239020   2.116   4.137  16.456 -0.3274  0.5754  0.0117
 4942TIP3    H139021   2.203   4.174  16.473  0.4135 -0.7115 -0.7740
 4942TIP3    H239022   2.063   4.211  16.428  1.1212  1.0597 -1.6532
 4943TIP3   OH239023   3.746   0.492  13.762 -0.0732  0.0532  0.5234
 4943TIP3    H139024   3.805   0.501  13.688 -0.1995 -0.8732  0.2935
 4943TIP3    H239025   3.659   0.502  13.725 -0.0717  3.0288  1.1109
 4944TIP3   OH239026   2.989   0.779  14.530 -0.0255  0.5769 -0.9057
 4944TIP3    H139027   2.932   0.707  14.557 -0.9818  0.6060 -2.6828
 4944TIP3    H239028   3.077   0.741  14.529 -0.3227 -0.1458 -0.4094
 4945TIP3   OH239029   4.901   2.039  16.594 -0.3736 -0.2607  0.1608
 4945TIP3    H139030   4.928   2.063  16.683 -1.0116 -1.8976  0.8521
 4945TIP3    H239031   4.902   1.943  16.594  0.9929 -0.3172 -2.0652
 4946TIP3   OH239032   1.975   4.966  16.888 -0.0274 -0.1143  0.2938
 4946TIP3    H139033   1.890   5.012  16.886 -0.5839 -1.1297 -1.0651
 4946TIP3    H239034   2.039   5.036  16.875 -0.8763  0.3473 -2.0957
 4947TIP3   OH239035   5.357   2.303  16.275 -0.6971  0.2794  0.7342
 4947TIP3    H139036   5.310   2.273  16.353 -0.5570 -0.4119  0.5498
 4947TIP3    H239037   5.449   2.298  16.299 -0.5730 -1.3220  0.0475
 4948TIP3   OH239038   3.881   3.814  14.956 -0.0378  0.6339 -0.3732
 4948TIP3    H139039   3.935   3.861  15.020  0.0496 -1.5412  1.2579
 4948TIP3    H239040   3.944   3.761  14.907 -0.4007  0.1986 -0.3711
 4949TIP3   OH239041   0.101   1.226  16.462  0.1354  0.6064  0.5191
 4949TIP3    H139042   0.132   1.261  16.379  0.5310 -1.3106 -0.1857
 4949TIP3    H239043   0.180   1.194  16.506 -0.1112  1.2761  1.5046
 4950TIP3   OH239044   5.303   6.179  16.042  0.6929  0.2043 -0.1004
 4950TIP3    H139045   5.384   6.155  16.086  1.0398 -0.6499 -1.1441
 4950TIP3    H239046   5.242   6.200  16.113  1.5192 -0.1414  0.7339
 4951TIP3   OH239047   1.899   4.638  14.463 -0.0233  0.0530 -0.0433
 4951TIP3    H139048   1.995   4.638  14.465  0.0054  0.4398  2.6016
 4951TIP3    H239049   1.875   4.727  14.491 -1.0883 -0.7225  1.6564
 4952TIP3   OH239050   6.539   4.781  14.647 -0.2248 -0.2295  0.2452
 4952TIP3    H139051   6.526   4.689  14.669 -1.5971 -0.2181 -0.3986
 4952TIP3    H239052   6.489   4.794  14.566  0.2573  0.9910  0.1166
 4953TIP3   OH239053   5.345   1.317  15.990 -0.0718 -0.0629  0.2827
 4953TIP3    H139054   5.439   1.326  15.999 -0.1647  0.0282  1.2034
 4953TIP3    H239055   5.315   1.404  15.964  0.0996 -0.1201 -0.1249
 4954TIP3   OH239056   3.304   5.718  15.392 -0.1817 -0.2116 -0.0542
 4954TIP3    H139057   3.303   5.794  15.333  0.5646 -1.6039 -1.9958
 4954TIP3    H239058   3.218   5.679  15.382  0.0228 -0.5761 -0.4106
 4955TIP3   OH239059   6.486   3.839  16.070  0.0053 -0.0758  0.5015
 4955TIP3    H139060   6.436   3.889  16.135 -3.0486 -0.9137 -1.0133
 4955TIP3    H239061   6.544   3.783  16.122  0.0384  1.5679  2.3524
 4956TIP3   OH239062   4.732   0.082  15.788  0.0120 -0.4567  0.6135
 4956TIP3    H139063   4.806   0.038  15.745 -0.1256  0.2078 -0.3504
 4956TIP3    H239064   4.658   0.023  15.775  0.5165 -1.5181  2.3071
 4957TIP3   OH239065   6.034   2.931  16.764 -0.6071 -0.2312  0.5772
 4957TIP3    H139066   6.114   2.887  16.793 -1.3022 -1.1197  1.2082
 4957TIP3    H239067   6.060   2.979  16.686  0.4650 -0.7812  0.5755
 4958TIP3   OH239068   3.433   3.435  16.406  0.2483 -0.4126  0.1378
 4958TIP3    H139069   3.421   3.409  16.498  0.5856 -0.9428  0.0369
 4958TIP3    H239070   3.525   3.460  16.401  0.4745 -1.3247 -0.2827
 4959TIP3   OH239071   0.324   0.088  14.269 -0.0767 -0.1045 -0.1469
 4959TIP3    H139072   0.252   0.125  14.218  1.8544  1.0598 -2.1340
 4959TIP3    H239073   0.350   0.010  14.220  0.2161 -0.3695  0.4226
 4960TIP3   OH239074   3.407   5.632  15.649 -0.2189 -0.3535  0.3579
 4960TIP3    H139075   3.404   5.623  15.553 -1.4844  1.2689  0.2045
 4960TIP3    H239076   3.331   5.686  15.670  1.1434  1.0120  2.0755
 4961TIP3   OH239077   3.503   4.624  14.642  0.2925  0.1359 -0.0072
 4961TIP3    H139078   3.478   4.535  14.619  0.3476  0.0260  0.3522
 4961TIP3    H239079   3.554   4.615  14.722  0.8846  0.4311 -0.3503
 4962TIP3   OH239080   2.428   0.437  13.676  0.4993  0.3810 -0.6917
 4962TIP3    H139081   2.414   0.485  13.594  2.0874 -1.8071 -2.3434
 4962TIP3    H239082   2.367   0.363  13.671 -0.8717  1.2925  1.1472
 4963TIP3   OH239083   0.719   2.512  16.769 -0.2589  0.1959 -0.7683
 4963TIP3    H139084   0.712   2.477  16.680 -1.3110 -1.6463 -0.0285
 4963TIP3    H239085   0.808   2.545  16.775  1.2743 -3.3395 -1.3043
 4964TIP3   OH239086   2.890   5.847  16.669  0.5876  0.2086  0.2177
 4964TIP3    H139087   2.884   5.818  16.578 -1.7812 -1.3115  0.7569
 4964TIP3    H239088   2.923   5.937  16.663  3.8544 -0.9613 -1.8263
 4965TIP3   OH239089   3.140   5.423  16.951 -0.0866 -0.1117  0.5823
 4965TIP3    H139090   3.078   5.386  17.015  0.0130 -0.3816  0.5213
 4965TIP3    H239091   3.089   5.491  16.906  0.4279  1.5464  2.3624
 4966TIP3   OH239092   3.680   0.735  16.544  0.3157 -0.1638 -0.6099
 4966TIP3    H139093   3.706   0.779  16.625 -0.4706 -1.0264  0.1401
 4966TIP3    H239094   3.754   0.748  16.484  1.5965 -0.8295  0.7674
 4967TIP3   OH239095   5.319   1.981  15.099 -0.0808 -0.6236 -0.3227
 4967TIP3    H139096   5.313   2.076  15.096 -0.0702 -0.6019  0.2238
 4967TIP3    H239097   5.399   1.963  15.149 -0.7788 -0.9162  0.7189
 4968TIP3   OH239098   6.063   4.405  13.904  0.0256 -0.0921 -0.1721
 4968TIP3    H139099   6.119   4.398  13.981 -1.1079 -0.6004  0.6412
 4968TIP3    H239100   5.998   4.335  13.916 -1.0410  0.7620 -0.8531
 4969TIP3   OH239101   1.880   0.074  16.753 -0.1036  0.1297  0.2599
 4969TIP3    H139102   1.803   0.130  16.766 -1.4001 -1.5245  0.1542
 4969TIP3    H239103   1.933   0.088  16.831  0.1509  2.2399 -0.2334
 4970TIP3   OH239104   5.354   3.586  13.612  0.6930  0.2626  0.3995
 4970TIP3    H139105   5.447   3.586  13.592  0.1748 -1.8890 -2.7534
 4970TIP3    H239106   5.320   3.509  13.567 -2.8961  1.9008 -0.0021
 4971TIP3   OH239107   0.124   1.342  16.792 -0.6662 -0.1721  0.0396
 4971TIP3    H139108   0.050   1.393  16.824 -0.1221  0.6442  0.0217
 4971TIP3    H239109   0.133   1.271  16.856 -1.3482 -0.1784  0.1394
 4972TIP3   OH239110   5.668   1.165  15.715 -0.2544 -0.0362 -0.2450
 4972TIP3    H139111   5.753   1.167  15.671 -0.0806  1.3656  0.1222
 4972TIP3    H239112   5.685   1.121  15.798  0.1274  0.2818 -0.1524
 4973TIP3   OH239113   3.238   2.578  15.284 -0.4696  0.2518  0.5138
 4973TIP3    H139114   3.272   2.489  15.288 -1.4309 -0.1539  0.1134
 4973TIP3    H239115   3.285   2.625  15.353  2.6103  0.3882 -1.4868
 4974TIP3   OH239116   0.042   5.623  15.502  0.2448  0.3569  0.3245
 4974TIP3    H139117   0.102   5.694  15.523  0.1316  0.3767  0.5881
 4974TIP3    H239118   0.092   5.543  15.519  0.1473  0.3728  0.6987
 4975TIP3   OH239119   2.255   4.889  14.795  0.4614  0.0077  0.7384
 4975TIP3    H139120   2.168   4.879  14.756  1.0050 -0.1600 -0.4694
 4975TIP3    H239121   2.245   4.963  14.856 -0.6846 -0.4357  1.1270
 4976TIP3   OH239122   6.009   3.404  16.047 -0.8038 -0.7160 -0.4038
 4976TIP3    H139123   6.015   3.391  15.953  0.6355  1.5349 -0.7157
 4976TIP3    H239124   5.916   3.398  16.067 -1.1734 -0.7756 -2.0479
 4977TIP3   OH239125   1.830   3.278  15.887 -0.1423  0.0575 -0.0700
 4977TIP3    H139126   1.829   3.231  15.970  1.5430  0.3659  0.1640
 4977TIP3    H239127   1.834   3.371  15.913  1.7998  0.1199 -0.4248
 4978TIP3   OH239128   2.024   0.476  17.280 -0.5897  0.3899  0.1730
 4978TIP3    H139129   1.965   0.549  17.299 -2.0546 -0.0074 -2.4061
 4978TIP3    H239130   2.084   0.510  17.213  0.1502 -0.1580  0.5363
 4979TIP3   OH239131   5.914   0.690  13.959 -0.7892 -0.7589 -0.3591
 4979TIP3    H139132   5.908   0.618  13.897 -0.6821 -1.5194  0.4976
 4979TIP3    H239133   5.932   0.648  14.043  2.5964  0.4179 -0.3486
 4980TIP3   OH239134   0.861   1.693  16.213 -0.0953 -0.1805 -0.1541
 4980TIP3    H139135   0.812   1.637  16.274 -0.8099 -0.7469 -1.2214
 4980TIP3    H239136   0.814   1.777  16.215 -1.4008 -0.8390 -1.4608
 4981TIP3   OH239137   5.609   3.549  13.570  0.1489  0.1739  0.2492
 4981TIP3    H139138   5.641   3.484  13.633 -1.4068 -0.0373  0.8556
 4981TIP3    H239139   5.653   3.526  13.488  1.9685  0.2635  1.1410
 4982TIP3   OH239140   0.524   6.094  14.330  0.5779 -0.1439 -0.3129
 4982TIP3    H139141   0.493   6.025  14.389 -1.8768  0.2161 -1.0753
 4982TIP3    H239142   0.526   6.053  14.244 -0.1538  0.4863 -0.6458
 4983TIP3   OH239143   1.394   3.143  16.770  0.3020  0.5330 -0.4771
 4983TIP3    H139144   1.416   3.068  16.826  0.6269  1.2582  0.3769
 4983TIP3    H239145   1.412   3.220  16.824 -0.3285  1.2317 -1.2372
 4984TIP3   OH239146   4.939   3.143  15.881  0.9425  0.6958  0.4002
 4984TIP3    H139147   4.878   3.114  15.814  0.3753  2.6905 -0.0011
 4984TIP3    H239148   4.995   3.067  15.897 -0.4546 -0.5859 -0.5520
 4985TIP3   OH239149   0.105   5.294  15.003 -0.3653 -0.2088 -0.1059
 4985TIP3    H139150   0.091   5.340  15.086 -1.8811 -1.6622  0.5002
 4985TIP3    H239151   0.056   5.346  14.938 -1.2014 -0.3850  0.3725
 4986TIP3   OH239152   4.307   4.276  14.188  0.4522 -0.4935  0.4493
 4986TIP3    H139153   4.230   4.324  14.156  1.1057  1.9631  2.2054
 4986TIP3    H239154   4.358   4.257  14.109 -1.4611 -1.3660 -0.6497
 4987TIP3   OH239155   0.515   4.429  14.049 -0.1977 -0.4248 -0.2536
 4987TIP3    H139156   0.490   4.368  13.979 -0.5714 -0.3677 -0.1732
 4987TIP3    H239157   0.516   4.515  14.006 -0.8031 -0.3394 -0.1053
 4988TIP3   OH239158   4.966   4.933  15.702  0.0367 -0.0561 -0.4954
 4988TIP3    H139159   4.996   4.881  15.628  0.6378 -1.7804  0.8761
 4988TIP3    H239160   4.921   4.870  15.759 -0.8570  1.3086  0.3673
 4989TIP3   OH239161   1.419   2.942  16.276  0.0363 -0.3135  0.3041
 4989TIP3    H139162   1.424   2.996  16.355  0.2355 -0.4644  0.3963
 4989TIP3    H239163   1.510   2.922  16.255 -0.0800 -2.0585  1.2771
 4990TIP3   OH239164   5.403   4.970  17.079 -0.3972 -0.1012 -0.0630
 4990TIP3    H139165   5.349   4.931  17.010 -0.6527 -1.2539  0.7526
 4990TIP3    H239166   5.488   4.927  17.068 -0.3311 -0.0101  0.0986
 4991TIP3   OH239167   3.409   0.000  15.851  0.1100  0.4865  0.2502
 4991TIP3    H139168   3.343   0.026  15.787  2.0012  2.5403 -0.9998
 4991TIP3    H239169   3.390   0.055  15.928  1.4916  2.6861 -0.8574
 4992TIP3   OH239170   4.876   1.755  16.512  0.4179 -0.3286  0.1394
 4992TIP3    H139171   4.934   1.731  16.439 -0.3373 -4.2415  0.6289
 4992TIP3    H239172   4.803   1.799  16.470  1.4920  0.4175 -1.0432
 4993TIP3   OH239173   1.281   1.231  14.059  0.2320 -0.4881 -0.0707
 4993TIP3    H139174   1.289   1.307  14.117  0.6718  0.3531 -1.1933
 4993TIP3    H239175   1.241   1.163  14.113  1.2715  0.0356  1.4105
 4994TIP3   OH239176   4.318   5.985  16.156 -0.1618  0.4727  0.0958
 4994TIP3    H139177   4.269   5.947  16.083  0.6924  1.5398 -1.0858
 4994TIP3    H239178   4.405   5.944  16.151 -0.0406  0.6864  0.3938
 4995TIP3   OH239179   1.833   0.771  13.931  0.3980  0.4200  0.0969
 4995TIP3    H139180   1.901   0.832  13.905 -1.3754  2.0715 -0.9150
 4995TIP3    H239181   1.753   0.804  13.890 -1.0614 -1.3701  1.2962
 4996TIP3   OH239182   5.448   6.151  14.050 -0.0286  0.5252 -0.3287
 4996TIP3    H139183   5.485   6.185  14.132  0.1518 -1.0243  0.2696
 4996TIP3    H239184   5.522   6.107  14.008 -0.4117  0.2628 -0.7297
 4997TIP3   OH239185   2.827   5.711  14.644 -0.0258 -0.5685  0.0452
 4997TIP3    H139186   2.897   5.649  14.621  0.8402  0.6744 -0.7903
 4997TIP3    H239187   2.803   5.687  14.733  0.7865 -1.6533 -0.0032
 4998TIP3   OH239188   6.080   0.928  13.800  0.0524 -0.5160 -0.2615
 4998TIP3    H139189   6.150   0.877  13.758  0.6000  0.8058 -1.0220
 4998TIP3    H239190   6.031   0.864  13.851  0.5189 -1.8557 -1.4297
 4999TIP3   OH239191   2.875   4.554  15.932 -0.4901 -0.3811  0.2484
 4999TIP3    H139192   2.907   4.584  16.017  3.0507  0.1053 -1.0736
 4999TIP3    H239193   2.827   4.628  15.897  0.8080  0.6561  0.5647
 5000TIP3   OH239194   4.709   4.246  16.604  0.1335  0.2644 -0.7353
 5000TIP3    H139195   4.783   4.293  16.566  0.8398  1.9243  2.3897
 5000TIP3    H239196   4.749   4.178  16.658 -0.6084  0.7271  0.4295
 5001TIP3   OH239197   2.838   2.711  16.928  0.3534 -0.0821 -0.1217
 5001TIP3    H139198   2.822   2.632  16.980  1.4860 -0.0804  0.2698
 5001TIP3    H239199   2.889   2.680  16.853  1.1003  0.3070  0.2128
 5002TIP3   OH239200   4.589   5.943  15.337 -0.5189 -0.1499 -0.1593
 5002TIP3    H139201   4.497   5.964  15.350 -0.1755  0.6154  1.2221
 5002TIP3    H239202   4.591   5.847  15.329 -1.2940 -0.3143  1.2953
 5003TIP3   OH239203   6.092   3.284  16.287  0.2736  0.3118  0.3028
 5003TIP3    H139204   6.168   3.313  16.337 -0.7184  0.7337  1.5972
 5003TIP3    H239205   6.097   3.334  16.205  0.4143  1.6875  1.1194
 5004TIP3   OH239206   2.676   6.159  15.600  0.2019  0.1103  0.6321
 5004TIP3    H139207   2.693   6.251  15.578 -0.3110  0.1490  0.4037
 5004TIP3    H239208   2.696   6.111  15.520  0.7398 -0.0112  0.8349
 5005TIP3   OH239209   5.948   3.684  16.079  0.4139 -0.3558 -0.0495
 5005TIP3    H139210   6.013   3.617  16.101  1.8161  1.0348  0.2703
 5005TIP3    H239211   5.971   3.711  15.989  0.1074 -0.0419 -0.0357
 5006TIP3   OH239212   6.004   2.147  14.552  0.5779  0.1705  0.0420
 5006TIP3    H139213   6.037   2.058  14.542  1.8285  0.5690  0.4858
 5006TIP3    H239214   5.981   2.174  14.463 -1.7714 -1.2872  0.1271
 5007TIP3   OH239215   4.925   6.041  14.346 -0.6015 -0.8361 -0.5851
 5007TIP3    H139216   4.887   5.968  14.396 -3.3189  0.6296 -0.3352
 5007TIP3    H239217   4.933   6.112  14.410  3.0248 -1.0868 -0.5569
 5008TIP3   OH239218   4.705   0.374  13.474  0.2427  0.7103  0.2428
 5008TIP3    H139219   4.777   0.421  13.431  0.4622  0.1747  0.0039
 5008TIP3    H239220   4.649   0.345  13.401 -0.8626  2.1154  0.4855
 5009TIP3   OH239221   0.059   6.098  15.744 -0.1851 -0.0273 -0.2052
 5009TIP3    H139222  -0.026   6.111  15.784  0.2898  0.2862  0.7294
 5009TIP3    H239223   0.071   6.003  15.744  0.5598  0.0082  2.0792
 5010TIP3   OH239224   5.367   1.003  16.678  0.0039  0.1506 -0.5761
 5010TIP3    H139225   5.281   0.972  16.706  0.7646 -0.3124  1.3817
 5010TIP3    H239226   5.393   0.942  16.608 -1.3640  0.5119 -1.4536
 5011TIP3   OH239227   3.982   0.262  16.161 -0.2015  0.4955 -0.2085
 5011TIP3    H139228   3.898   0.226  16.191  0.1661 -0.1214  0.0940
 5011TIP3    H239229   4.031   0.277  16.242  0.0212  0.7579 -0.3925
 5012TIP3   OH239230   2.075   4.738  15.235  0.2191 -0.1898  0.1746
 5012TIP3    H139231   2.153   4.691  15.265  0.0605 -0.9860 -0.6327
 5012TIP3    H239232   2.002   4.678  15.251  0.0678 -0.4415 -1.2825
 5013TIP3   OH239233   1.606   5.196  13.835  0.4350 -0.0616 -0.4130
 5013TIP3    H139234   1.632   5.288  13.840  1.7591 -0.4629  0.6068
 5013TIP3    H239235   1.629   5.169  13.746  0.2094  0.5313 -0.6582
 5014TIP3   OH239236   4.693   3.935  15.264 -0.8906 -0.2244  0.0692
 5014TIP3    H139237   4.764   3.982  15.221 -3.0410  1.0869 -2.3129
 5014TIP3    H239238   4.712   3.842  15.247 -0.3611  0.1513 -1.5927
 5015TIP3   OH239239   4.146   6.259  13.926 -0.3347 -0.3007 -0.1832
 5015TIP3    H139240   4.096   6.331  13.965  0.6331  0.0150  0.5088
 5015TIP3    H239241   4.234   6.267  13.964 -0.0977 -1.6038 -0.4121
 5016TIP3   OH239242   2.822   3.298  15.356  0.0022  0.3502  0.5305
 5016TIP3    H139243   2.853   3.299  15.265  0.1689 -1.2791  0.5367
 5016TIP3    H239244   2.838   3.387  15.388  0.7345  0.7160 -0.7698
 5017TIP3   OH239245   1.690   0.328  16.429  0.1818  1.1609  0.2552
 5017TIP3    H139246   1.654   0.301  16.513 -0.7974  1.1909 -0.1388
 5017TIP3    H239247   1.756   0.394  16.451  0.4352  0.6581  1.0349
 5018TIP3   OH239248   1.011   5.360  16.154  0.2604 -0.5213  0.0013
 5018TIP3    H139249   0.940   5.296  16.155  0.1270 -0.4118 -1.1938
 5018TIP3    H239250   1.072   5.330  16.222 -0.5180 -1.0739  0.4679
 5019TIP3   OH239251   5.122   0.428  15.039  0.2916 -0.0606 -0.1303
 5019TIP3    H139252   5.038   0.451  15.000  0.1361 -0.1641  0.1361
 5019TIP3    H239253   5.125   0.478  15.120  0.8991  0.6540 -0.5861
 5020TIP3   OH239254   4.854   6.691  16.665 -0.0148 -0.1270 -0.0344
 5020TIP3    H139255   4.885   6.610  16.625  2.7996  0.7292  0.2127
 5020TIP3    H239256   4.799   6.731  16.598  0.7242 -0.9757 -1.1950
 5021TIP3   OH239257   3.439   4.283  16.531  0.3970 -0.0177 -0.3628
 5021TIP3    H139258   3.505   4.259  16.595 -0.2612  0.5615  0.5560
 5021TIP3    H239259   3.463   4.233  16.452  1.1993 -0.7646  0.3278
 5022TIP3   OH239260   2.133   2.775  16.651  0.0588  0.0839 -0.1755
 5022TIP3    H139261   2.098   2.823  16.576  1.5433  0.0665 -0.9182
 5022TIP3    H239262   2.160   2.843  16.712  0.1436  0.1450 -0.2799
 5023TIP3   OH239263   1.244   0.397  14.082  0.3962 -0.1305  0.4176
 5023TIP3    H139264   1.206   0.415  13.996  0.1016 -0.6410  0.4355
 5023TIP3    H239265   1.297   0.319  14.068  0.7179  0.0559  0.5992
 5024TIP3   OH239266   2.764   0.802  14.317 -0.6817  0.5139 -0.2267
 5024TIP3    H139267   2.725   0.885  14.290 -1.2220  0.4726  0.4151
 5024TIP3    H239268   2.733   0.789  14.406  0.3371  0.1935  0.0902
 5025TIP3   OH239269   1.406   3.105  14.012  0.4421  0.2948 -0.9583
 5025TIP3    H139270   1.350   3.063  13.948 -0.5742 -1.8849  1.1884
 5025TIP3    H239271   1.485   3.050  14.015  0.7960  0.7973 -0.8611
 5026TIP3   OH239272   1.497   1.354  16.892  0.2121 -0.5045  0.0974
 5026TIP3    H139273   1.424   1.377  16.949  1.1744 -0.0228  1.1831
 5026TIP3    H239274   1.483   1.408  16.813  0.4812  1.1821  1.1406
 5027TIP3   OH239275   1.466   6.276  16.926  0.6992 -0.2144 -0.3484
 5027TIP3    H139276   1.449   6.215  16.854 -1.6340  1.0356 -0.9715
 5027TIP3    H239277   1.518   6.346  16.886  1.1514 -0.5115 -0.2874
 5028TIP3   OH239278   1.920   5.137  16.648  0.3687 -0.1065 -0.1260
 5028TIP3    H139279   1.952   5.047  16.652 -0.1195 -0.2529  1.1736
 5028TIP3    H239280   1.825   5.129  16.659  0.2279  0.5254 -0.7746
 5029TIP3   OH239281   1.122   4.967  14.859 -0.5925  0.1899  0.6137
 5029TIP3    H139282   1.114   4.880  14.897 -0.4335  0.7624  2.0417
 5029TIP3    H239283   1.037   4.984  14.819 -0.0826 -1.2811 -1.2542
 5030TIP3   OH239284   4.416   6.188  14.513 -0.4484  0.4865  0.1972
 5030TIP3    H139285   4.329   6.174  14.552 -1.2361 -0.3989 -1.7943
 5030TIP3    H239286   4.406   6.166  14.421  2.2610 -1.0168  0.1656
 5031TIP3   OH239287   1.257   3.465  15.952  0.2579  0.3540 -0.6782
 5031TIP3    H139288   1.189   3.475  15.886  0.5042 -1.1334 -1.1992
 5031TIP3    H239289   1.220   3.405  16.016  1.6774 -2.0102 -1.9356
 5032TIP3   OH239290   2.052   1.057  16.328 -0.2267  0.7747 -0.0701
 5032TIP3    H139291   2.022   1.117  16.259 -2.0111  1.2079  1.0299
 5032TIP3    H239292   2.072   1.114  16.402 -2.0231  0.0651  1.0199
 5033TIP3   OH239293   2.970   0.672  17.084  0.2685  0.4271 -0.2871
 5033TIP3    H139294   3.009   0.745  17.133  0.6221 -0.0188  0.1103
 5033TIP3    H239295   3.043   0.612  17.069 -0.6731 -1.6437  2.6568
 5034TIP3   OH239296   0.153   5.571  14.397  0.0364  0.3507 -0.1546
 5034TIP3    H139297   0.185   5.521  14.322 -0.1384 -0.6746  0.4313
 5034TIP3    H239298   0.202   5.537  14.472 -0.2322  0.9239  0.2938
 5035TIP3   OH239299   1.566   3.990  16.753 -0.8020  0.2657  0.2264
 5035TIP3    H139300   1.498   3.934  16.716 -0.6019  0.2131 -0.0634
 5035TIP3    H239301   1.591   4.048  16.682  0.5792 -0.7658 -0.1603
 5036TIP3   OH239302   5.768   2.890  16.831 -0.1846  0.4613 -0.1781
 5036TIP3    H139303   5.727   2.907  16.747  0.6195  0.7418 -0.5306
 5036TIP3    H239304   5.862   2.893  16.812  0.0019 -0.9330  0.4376
 5037TIP3   OH239305   2.040   4.627  15.618  0.2595  0.0560 -0.3593
 5037TIP3    H139306   1.988   4.699  15.653  0.1863  0.3912 -1.1574
 5037TIP3    H239307   1.983   4.551  15.625 -0.5159  0.4943 -1.6048
 5038TIP3   OH239308   6.221   3.657  16.266 -0.4936 -0.4111  0.1460
 5038TIP3    H139309   6.310   3.622  16.262  0.6460  2.2482  0.4147
 5038TIP3    H239310   6.211   3.708  16.186 -1.1864  0.5635  0.8245
 5039TIP3   OH239311   5.307   6.409  14.691  0.6721 -0.0030  0.1166
 5039TIP3    H139312   5.278   6.435  14.604  1.0792 -0.7884 -0.2580
 5039TIP3    H239313   5.398   6.437  14.696  0.6655 -0.0059  0.2734
 5040TIP3   OH239314   0.184   0.386  16.233 -0.8848 -0.3738  0.1724
 5040TIP3    H139315   0.159   0.304  16.189 -0.7602  0.0414 -0.6929
 5040TIP3    H239316   0.230   0.436  16.166  0.3817 -0.2174  1.1230
 5041TIP3   OH239317   5.514   3.854  14.634 -0.4207  0.1851 -0.3961
 5041TIP3    H139318   5.562   3.800  14.696 -2.0877 -1.9950 -0.8871
 5041TIP3    H239319   5.578   3.878  14.568  0.9443  1.0278  1.1533
 5042TIP3   OH239320   1.015   1.127  14.994  0.0290  0.1446  0.3407
 5042TIP3    H139321   1.042   1.059  14.933  0.0380 -0.7376  1.3006
 5042TIP3    H239322   1.040   1.209  14.951 -0.8659 -0.3743 -1.2773
 5043TIP3   OH239323   1.914   1.675  15.661  0.4681 -0.2183 -0.3313
 5043TIP3    H139324   1.912   1.730  15.583  1.0363 -1.1641 -1.0185
 5043TIP3    H239325   1.936   1.588  15.629 -1.3610 -1.0834  0.6095
 5044TIP3   OH239326   6.391   3.583  14.350 -0.6558 -0.5914 -0.4474
 5044TIP3    H139327   6.296   3.596  14.357 -0.7921 -1.0279 -1.2803
 5044TIP3    H239328   6.403   3.546  14.262  0.4699  1.0694 -1.0378
 5045TIP3   OH239329   1.366   2.325  15.029  0.4630  0.4114 -0.1763
 5045TIP3    H139330   1.316   2.278  14.961  0.0924  0.1890  0.2462
 5045TIP3    H239331   1.367   2.265  15.103  0.7873  0.6957  0.0493
 5046TIP3   OH239332   4.267   2.452  15.076  0.8417 -0.0311  0.0657
 5046TIP3    H139333   4.305   2.434  15.162 -1.0571  0.0579  0.9715
 5046TIP3    H239334   4.243   2.545  15.079  2.3955  0.4603 -1.2662
 5047TIP3   OH239335   6.484   2.511  14.921 -0.3002 -0.0716 -0.2356
 5047TIP3    H139336   6.424   2.442  14.950  0.2223 -0.4681 -0.0961
 5047TIP3    H239337   6.570   2.481  14.949 -0.0025  0.3685 -0.6746
 5048TIP3   OH239338   4.055   1.892  14.969 -0.3846  0.3408 -0.2568
 5048TIP3    H139339   4.131   1.845  15.002 -2.3342 -2.1793  1.0467
 5048TIP3    H239340   4.079   1.918  14.880  1.2727 -2.2143 -0.6605
 5049TIP3   OH239341   6.061   2.679  17.000 -0.0198 -0.1696 -0.1861
 5049TIP3    H139342   6.105   2.760  16.973  0.7192  0.1422  1.8205
 5049TIP3    H239343   5.978   2.708  17.037 -0.1966 -0.4290 -0.3716
 5050TIP3   OH239344   0.214   5.148  15.305 -0.0655  0.2172 -0.1205
 5050TIP3    H139345   0.282   5.141  15.238  0.1038  1.2380 -0.0742
 5050TIP3    H239346   0.223   5.238  15.338 -0.2493 -0.2205  1.1565
 5051TIP3   OH239347   5.014   0.281  16.503 -0.4255 -0.3102  0.3997
 5051TIP3    H139348   5.006   0.339  16.579 -0.4999 -1.4766  1.3139
 5051TIP3    H239349   4.936   0.299  16.451 -0.0321  1.0001  0.2160
 5052TIP3   OH239350   4.992   0.915  16.469 -0.6563 -0.0854 -0.0796
 5052TIP3    H139351   5.036   0.857  16.407  0.7157 -0.3743  1.1178
 5052TIP3    H239352   4.910   0.937  16.426  0.7804  0.7896 -2.6087
 5053TIP3   OH239353   4.332   1.147  15.171 -0.0184 -0.4706 -0.1482
 5053TIP3    H139354   4.386   1.220  15.202  0.5216 -1.3819  1.1503
 5053TIP3    H239355   4.258   1.189  15.127  1.1648  0.8236 -0.9959
 5054TIP3   OH239356   4.735   1.590  13.748  0.1890  0.7400  0.2585
 5054TIP3    H139357   4.823   1.574  13.714  0.2424 -0.1869  0.8008
 5054TIP3    H239358   4.678   1.532  13.696 -0.0738  1.1482  0.0810
 5055TIP3   OH239359   5.276   6.198  16.553  0.0165 -0.4783  0.4260
 5055TIP3    H139360   5.183   6.181  16.538  0.0891 -0.5553  0.0520
 5055TIP3    H239361   5.305   6.244  16.474  0.0868  0.3683  0.9414
 5056TIP3   OH239362   1.117   0.206  15.517  0.0581 -0.1918  0.2170
 5056TIP3    H139363   1.150   0.117  15.525 -2.0471 -1.2000 -1.1586
 5056TIP3    H239364   1.043   0.210  15.578 -0.9203  0.0127 -0.9379
 5057TIP3   OH239365   5.870   1.907  16.712 -0.7438 -0.4107  0.1773
 5057TIP3    H139366   5.938   1.965  16.678 -2.1431  1.6428  0.6887
 5057TIP3    H239367   5.908   1.868  16.790  1.0688 -2.1039 -1.4539
 5058TIP3   OH239368   3.015   3.108  16.261  0.2706  0.2938 -0.0760
 5058TIP3    H139369   2.955   3.154  16.203  2.1453  0.8738 -1.6816
 5058TIP3    H239370   3.075   3.175  16.293  0.9541 -0.4682  0.2996
 5059TIP3   OH239371   6.221   1.963  15.415  0.1935  0.0180  0.5185
 5059TIP3    H139372   6.197   1.905  15.487 -0.9874  0.3238  0.3865
 5059TIP3    H239373   6.317   1.964  15.417  0.2456 -1.6301  0.7548
 5060TIP3   OH239374   1.983   3.594  14.921  0.0510 -0.5535 -0.3740
 5060TIP3    H139375   1.902   3.571  14.966 -1.4731  1.0334 -2.1297
 5060TIP3    H239376   1.997   3.523  14.858  0.0890 -0.8656 -0.0179
 5061TIP3   OH239377   2.806   6.011  14.625  0.3232 -0.1912  0.3777
 5061TIP3    H139378   2.885   6.023  14.678 -1.0518 -0.5670  2.6505
 5061TIP3    H239379   2.796   5.916  14.619 -0.3045 -0.1439  0.6691
 5062TIP3   OH239380   6.039   6.162  14.993  0.3941 -0.0965 -0.2285
 5062TIP3    H139381   6.019   6.234  15.053  0.2175 -0.9796  0.8191
 5062TIP3    H239382   5.954   6.126  14.970  0.5111 -0.4918 -0.0596
 5063TIP3   OH239383   0.894   3.589  16.648  0.2865 -0.8069 -0.4488
 5063TIP3    H139384   0.855   3.674  16.626  1.0202 -0.8753 -2.1278
 5063TIP3    H239385   0.943   3.606  16.729 -1.0551 -0.0976  0.2528
 5064TIP3   OH239386   2.528   4.272  15.388  0.2385  0.5771  0.2555
 5064TIP3    H139387   2.562   4.183  15.378  0.8689  0.4746  2.5831
 5064TIP3    H239388   2.605   4.324  15.415 -0.3586  1.5511  0.1382
 5065TIP3   OH239389   0.680   5.064  14.610  0.2869  0.6482  0.0896
 5065TIP3    H139390   0.653   5.026  14.693 -1.1051  1.1701 -0.0998
 5065TIP3    H239391   0.691   5.158  14.628  1.0587  0.6028 -0.0735
 5066TIP3   OH239392   2.271   1.518  16.061 -0.0251 -0.2130 -0.1134
 5066TIP3    H139393   2.254   1.453  15.994  2.5587 -1.8339  0.6685
 5066TIP3    H239394   2.260   1.602  16.016  0.4335 -1.2238 -2.2357
 5067TIP3   OH239395   1.853   1.149  13.680 -0.2368  0.1143 -0.0591
 5067TIP3    H139396   1.811   1.228  13.646 -3.2036 -0.7775  1.1957
 5067TIP3    H239397   1.830   1.148  13.773  1.2379 -1.3584  0.3359
 5068TIP3   OH239398   2.146   0.560  16.397  0.1978  0.2535 -0.3871
 5068TIP3    H139399   2.089   0.630  16.365  1.7699  1.7323 -0.1526
 5068TIP3    H239400   2.193   0.530  16.319  0.1350  0.0672 -0.3514
 5069TIP3   OH239401   2.939   4.486  13.169 -0.6732 -0.2623 -0.3779
 5069TIP3    H139402   2.861   4.524  13.129 -2.6956 -1.5056  2.0852
 5069TIP3    H239403   2.986   4.560  13.207 -1.8571  0.2881  0.0224
 5070TIP3   OH239404   5.649   0.418  14.586  0.1271 -0.3056 -0.4241
 5070TIP3    H139405   5.700   0.363  14.646 -0.8818 -1.5553 -0.6724
 5070TIP3    H239406   5.637   0.501  14.633  0.2751 -0.8779  0.6510
 5071TIP3   OH239407   2.827   1.061  16.639 -0.0691  0.2323 -0.3159
 5071TIP3    H139408   2.867   0.990  16.689  2.8157  1.6047 -0.5079
 5071TIP3    H239409   2.847   1.040  16.548 -1.6223 -0.0798 -0.6099
 5072TIP3   OH239410   4.551   1.894  14.639  0.1175  0.8621 -0.0728
 5072TIP3    H139411   4.498   1.943  14.702  0.5839  1.0697  0.1655
 5072TIP3    H239412   4.487   1.848  14.585 -0.4079  2.8937 -1.2659
 5073TIP3   OH239413   4.051   6.483  13.415  0.4421  0.3252 -0.5952
 5073TIP3    H139414   4.113   6.526  13.357  1.8883 -0.0445  0.6115
 5073TIP3    H239415   4.091   6.398  13.434 -0.4530  0.0509  0.1736
 5074TIP3   OH239416   0.484   2.543  13.979  0.7569 -0.4079 -1.0845
 5074TIP3    H139417   0.394   2.512  13.968  0.1595  0.4428  0.8859
 5074TIP3    H239418   0.489   2.623  13.925 -0.4995  0.9326  0.6631
 5075TIP3   OH239419   6.611   2.880  15.717 -0.3316 -0.5100  0.5272
 5075TIP3    H139420   6.547   2.809  15.715  1.2862 -2.0449 -0.3730
 5075TIP3    H239421   6.690   2.842  15.677  1.1853  1.2361  1.6793
 5076TIP3   OH239422   2.660   3.741  15.724 -0.1833  0.1313 -0.3180
 5076TIP3    H139423   2.571   3.707  15.721  0.3355 -1.6260  1.6130
 5076TIP3    H239424   2.670   3.773  15.814  1.8418 -2.0022  0.3140
 5077TIP3   OH239425   1.753   2.667  14.354  0.2671  0.6640  0.1133
 5077TIP3    H139426   1.673   2.697  14.310 -0.2279 -1.2405 -0.3883
 5077TIP3    H239427   1.722   2.622  14.432  0.9699  1.1960  0.7210
 5078TIP3   OH239428   5.401   1.548  16.181 -0.4413  0.5106  0.4914
 5078TIP3    H139429   5.419   1.501  16.263  0.0661  0.7505  0.5226
 5078TIP3    H239430   5.479   1.601  16.166  0.0642 -0.5443 -0.8590
 5079TIP3   OH239431   0.972   6.147  15.622  0.0452  0.2469  0.1685
 5079TIP3    H139432   0.981   6.240  15.641 -0.2438  0.5416 -1.0582
 5079TIP3    H239433   1.045   6.106  15.668  0.1143  1.0566  0.8085
 5080TIP3   OH239434   5.503   4.467  15.434 -0.3815  0.0812 -0.2268
 5080TIP3    H139435   5.564   4.472  15.508  0.3292  0.1446 -0.8004
 5080TIP3    H239436   5.418   4.491  15.471  0.4022  2.7454  0.0328
 5081TIP3   OH239437   4.730   0.354  17.238  0.6513  0.0181  0.2127
 5081TIP3    H139438   4.643   0.389  17.258 -0.8921 -1.5050 -3.1669
 5081TIP3    H239439   4.766   0.414  17.173  1.0926 -0.6962 -0.2132
 5082TIP3   OH239440   3.339   0.136  16.706 -0.4894  0.1077  0.4183
 5082TIP3    H139441   3.260   0.103  16.662 -0.3378  0.1814  0.0857
 5082TIP3    H239442   3.329   0.231  16.705 -0.1283  0.1491 -0.1473
 5083TIP3   OH239443   0.768   5.333  15.306 -0.6339 -0.0618  0.0587
 5083TIP3    H139444   0.842   5.340  15.366 -0.1931  1.9641 -0.6187
 5083TIP3    H239445   0.691   5.349  15.360 -0.3696  0.2493  0.3486
 5084TIP3   OH239446   3.708   5.643  16.039 -0.3402  0.0375 -0.4268
 5084TIP3    H139447   3.758   5.615  15.963 -0.8005 -2.4464  0.0950
 5084TIP3    H239448   3.768   5.700  16.088  1.1057 -0.9086 -1.0428
 5085TIP3   OH239449   6.549   3.414  16.215  0.2810  0.1304 -0.2001
 5085TIP3    H139450   6.496   3.411  16.135 -0.7224 -0.1492  0.4614
 5085TIP3    H239451   6.609   3.340  16.206 -0.7648 -0.7591 -0.0710
 5086TIP3   OH239452   2.461   2.221  16.821  0.0116  0.3829 -0.2103
 5086TIP3    H139453   2.494   2.276  16.892  1.9654  0.3352 -1.0106
 5086TIP3    H239454   2.443   2.282  16.749 -1.1621  0.3426  0.0378
 5087TIP3   OH239455   1.942   4.378  14.855 -0.3926  0.0800 -0.2925
 5087TIP3    H139456   1.938   4.430  14.935  2.6631 -1.1728  0.8125
 5087TIP3    H239457   1.858   4.331  14.853 -2.0821  2.8515  0.1006
 5088TIP3   OH239458   3.763   1.663  14.963 -0.6287 -0.0109  0.1413
 5088TIP3    H139459   3.745   1.648  14.870  0.6006  0.6479 -0.2245
 5088TIP3    H239460   3.732   1.752  14.979 -0.5017  0.0127  0.2590
 5089TIP3   OH239461   0.375   3.609  14.995 -0.6446 -0.3320 -0.1639
 5089TIP3    H139462   0.462   3.649  14.990 -0.3785 -1.0698 -2.2597
 5089TIP3    H239463   0.333   3.632  14.912 -2.8465  0.7580  1.1343
 5090TIP3   OH239464   4.062   4.556  16.483  0.3644 -0.1522 -0.2123
 5090TIP3    H139465   3.972   4.525  16.488  0.4753 -0.5668 -0.6570
 5090TIP3    H239466   4.056   4.644  16.447  0.3286 -1.5819 -4.2585
 5091TIP3   OH239467   5.071   3.687  16.364  0.5379 -0.2864  0.3710
 5091TIP3    H139468   5.091   3.737  16.284  0.8742 -1.2950 -0.1869
 5091TIP3    H239469   4.975   3.693  16.372  0.3342 -1.3107 -0.8934
 5092TIP3   OH239470   0.330   2.186  13.488 -0.7694  0.6083  0.3355
 5092TIP3    H139471   0.305   2.101  13.452  0.6579  1.1432 -2.1653
 5092TIP3    H239472   0.381   2.227  13.418  0.9025  2.4247  2.5016
 5093TIP3   OH239473   0.859   2.778  14.687  0.1347  0.5642 -0.1020
 5093TIP3    H139474   0.837   2.857  14.736 -0.3501  1.0236 -1.0148
 5093TIP3    H239475   0.936   2.802  14.636  0.2317  0.3163 -0.0726
 5094TIP3   OH239476   5.274   2.865  14.873  0.8128  0.3207 -0.2689
 5094TIP3    H139477   5.365   2.858  14.899  0.4124 -3.6405  0.6790
 5094TIP3    H239478   5.227   2.886  14.953  0.6849 -0.3038 -0.1708
 5095TIP3   OH239479   5.994   1.254  17.176 -0.1983  0.2659 -0.2079
 5095TIP3    H139480   6.071   1.310  17.178  0.9945 -1.3128 -0.3125
 5095TIP3    H239481   5.934   1.298  17.115  1.3957  0.5533 -1.6433
 5096TIP3   OH239482   4.404   4.855  16.102  0.9101 -0.0009 -0.1277
 5096TIP3    H139483   4.428   4.929  16.047  1.4352  0.0486  0.1640
 5096TIP3    H239484   4.433   4.880  16.190 -2.8847  1.4333  0.9166
 5097TIP3   OH239485   6.404   6.067  15.388 -0.0215 -0.5897 -0.2074
 5097TIP3    H139486   6.336   6.039  15.450 -0.1198 -0.1517 -0.1155
 5097TIP3    H239487   6.415   6.160  15.405  1.9278 -0.9934  1.0776
 5098TIP3   OH239488   4.057   2.843  15.816 -0.2847 -0.0091  0.2857
 5098TIP3    H139489   3.971   2.860  15.777  0.9638  3.2189 -1.4823
 5098TIP3    H239490   4.048   2.757  15.857 -3.8235 -0.5711 -1.2605
 5099TIP3   OH239491   1.408   6.393  15.269 -0.0834  0.1017  0.3435
 5099TIP3    H139492   1.327   6.437  15.296 -0.4501 -1.2015  1.4096
 5099TIP3    H239493   1.467   6.404  15.343 -0.0739 -0.9311  0.4904
 5100TIP3   OH239494   4.314   1.783  16.972 -0.2616 -0.5586  0.4400
 5100TIP3    H139495   4.311   1.814  17.063 -2.4874 -0.7970  0.5099
 5100TIP3    H239496   4.306   1.862  16.919 -0.2638 -0.5222  0.4942
 5101TIP3   OH239497   0.867   6.430  14.709  0.2985  0.6485 -0.1994
 5101TIP3    H139498   0.900   6.360  14.766 -1.8370  0.3411  0.7592
 5101TIP3    H239499   0.916   6.507  14.735  1.5005 -0.1317 -0.0785
 5102TIP3   OH239500   6.679   1.061  14.833  0.1062  0.6608  0.4028
 5102TIP3    H139501   6.616   1.133  14.837  0.4566  0.9995  0.0319
 5102TIP3    H239502   6.764   1.104  14.840  0.3262  0.3011  0.0048
 5103TIP3   OH239503   3.213   5.915  17.307  0.2646  0.3044  0.2974
 5103TIP3    H139504   3.130   5.951  17.275  0.3929  1.1413  0.8697
 5103TIP3    H239505   3.204   5.916  17.403  0.7069 -0.1510  0.3467
 5104TIP3   OH239506   3.639   5.651  15.300  0.1321 -0.5587  0.5059
 5104TIP3    H139507   3.555   5.607  15.290  0.1397 -0.5149  0.2235
 5104TIP3    H239508   3.668   5.668  15.210  0.5293 -0.7411  0.5977
 5105TIP3   OH239509   3.387   6.647  14.513  0.1629 -0.0813  0.3473
 5105TIP3    H139510   3.372   6.553  14.511  1.7595 -0.3640 -1.0835
 5105TIP3    H239511   3.477   6.656  14.546  1.2665  0.6600 -2.5416
 5106TIP3   OH239512   4.678   3.668  15.233 -0.2835  0.5790 -0.5444
 5106TIP3    H139513   4.651   3.577  15.247 -0.9232  1.0489  1.5208
 5106TIP3    H239514   4.629   3.695  15.155 -1.0689 -0.4558 -0.4367
 5107TIP3   OH239515   4.720   2.872  15.416  0.5943 -0.0835  0.0044
 5107TIP3    H139516   4.647   2.851  15.475  1.7075  0.1484  1.5406
 5107TIP3    H239517   4.784   2.803  15.432  0.3543 -0.8449 -2.0494
 5108TIP3   OH239518   3.230   4.505  16.282  0.3065  0.2208  0.6611
 5108TIP3    H139519   3.274   4.588  16.263 -0.9023  0.7155 -0.1234
 5108TIP3    H239520   3.289   4.438  16.251  0.7764  0.8396  0.1983
 5109TIP3   OH239521   0.008   3.258  13.959  0.0441  0.3645 -0.4795
 5109TIP3    H139522   0.097   3.287  13.939 -0.0721 -0.5935 -2.7404
 5109TIP3    H239523   0.021   3.187  14.022  1.1552 -1.2635 -2.3934
 5110TIP3   OH239524   2.862   6.459  15.981 -0.0019  0.0738 -0.8132
 5110TIP3    H139525   2.854   6.530  15.917 -1.1162 -0.1457 -0.9385
 5110TIP3    H239526   2.772   6.435  16.002  0.3335  0.5418  1.3312
 5111TIP3   OH239527   6.410   1.923  14.006  0.1314 -0.5430  0.0689
 5111TIP3    H139528   6.475   1.853  14.015  0.1870 -0.4975  0.0211
 5111TIP3    H239529   6.395   1.929  13.911  0.7291  0.0587  0.0012
 5112TIP3   OH239530   3.685   3.968  14.415 -0.2943  0.5219  0.6316
 5112TIP3    H139531   3.720   4.057  14.411  3.2498 -0.6925  1.0120
 5112TIP3    H239532   3.713   3.927  14.333 -1.5246 -0.3846  0.6362
 5113TIP3   OH239533   2.923   1.168  16.200  0.4854  0.1623  0.3459
 5113TIP3    H139534   2.855   1.230  16.225 -1.1552 -2.1404  2.0149
 5113TIP3    H239535   2.908   1.091  16.255  2.6891 -1.5757 -1.2493
 5114TIP3   OH239536   2.091   0.742  14.960  0.2237  0.7410  0.3614
 5114TIP3    H139537   2.032   0.707  14.893  1.5451 -0.9691  0.0322
 5114TIP3    H239538   2.032   0.778  15.027 -1.4222 -3.0571  1.2547
 5115TIP3   OH239539   2.039   3.393  14.730  0.5226  0.0703 -0.7464
 5115TIP3    H139540   2.119   3.445  14.729  1.8035 -1.7454  0.2575
 5115TIP3    H239541   2.065   3.308  14.693 -0.3105 -1.2866  1.5579
 5116TIP3   OH239542   6.069   0.534  16.265 -1.1236  0.2095 -0.4539
 5116TIP3    H139543   5.983   0.532  16.307 -0.8572  0.5982  0.1238
 5116TIP3    H239544   6.076   0.450  16.220 -0.0621 -1.8081  3.0867
 5117TIP3   OH239545   5.171   4.000  15.315 -0.0535  0.6381  0.3345
 5117TIP3    H139546   5.163   4.051  15.395  0.2276  1.5530 -0.2053
 5117TIP3    H239547   5.134   4.056  15.247  0.7499  0.3441 -0.3611
 5118TIP3   OH239548   6.589   6.253  15.158 -0.5357 -0.3049  0.4815
 5118TIP3    H139549   6.672   6.233  15.201  0.4578  0.9579 -0.7400
 5118TIP3    H239550   6.605   6.232  15.066 -0.8645  1.7813 -0.1114
 5119TIP3   OH239551   1.489   5.556  14.714 -0.4911 -0.1308 -0.0881
 5119TIP3    H139552   1.451   5.501  14.783  0.2939  1.8649  2.0767
 5119TIP3    H239553   1.434   5.634  14.712  1.8139  1.6823  1.3339
 5120TIP3   OH239554   6.072   1.671  16.623  0.0601 -0.2856  0.0854
 5120TIP3    H139555   5.996   1.668  16.564  0.5880 -0.7330 -0.5967
 5120TIP3    H239556   6.146   1.685  16.564  0.7463 -2.0078  0.4986
 5121TIP3   OH239557   6.036   4.822  14.828  0.5125  0.6265  0.1895
 5121TIP3    H139558   5.995   4.748  14.874  1.6101 -0.3027 -0.2581
 5121TIP3    H239559   6.112   4.844  14.883  1.7324 -0.3745 -1.0134
 5122TIP3   OH239560   2.438   5.526  14.584 -0.2428 -0.1552  0.0982
 5122TIP3    H139561   2.529   5.503  14.565  0.1798  1.4884 -0.0312
 5122TIP3    H239562   2.393   5.520  14.499  0.2061  0.9222 -0.2359
 5123TIP3   OH239563   1.609   1.718  16.308 -0.3233 -0.1956  0.1221
 5123TIP3    H139564   1.691   1.686  16.347  1.3790  0.9286 -2.3116
 5123TIP3    H239565   1.590   1.656  16.238 -1.0066  0.1500 -0.0043
 5124TIP3   OH239566   2.705   1.094  15.208  0.5199  0.1715  0.0670
 5124TIP3    H139567   2.617   1.106  15.242  0.0336 -1.3868 -0.5648
 5124TIP3    H239568   2.722   1.173  15.157 -0.2943  0.7266  0.6419
 5125TIP3   OH239569   2.402   2.268  13.376 -0.3182 -0.5414  0.3844
 5125TIP3    H139570   2.466   2.230  13.436  0.2005 -3.1356 -1.6315
 5125TIP3    H239571   2.414   2.220  13.295 -2.8442  0.9526 -0.9960
 5126TIP3   OH239572   4.501   2.069  16.196  0.2175  0.0097  1.2562
 5126TIP3    H139573   4.583   2.091  16.241  1.1342 -0.7625  0.0451
 5126TIP3    H239574   4.493   1.974  16.208  0.5539 -0.2342 -0.2841
 5127TIP3   OH239575   2.813   4.700  13.841  0.0127  0.3792 -0.2052
 5127TIP3    H139576   2.757   4.724  13.915 -1.5263  0.1783 -1.2621
 5127TIP3    H239577   2.786   4.611  13.818 -0.6686  0.9979 -1.9829
 5128TIP3   OH239578   3.184   1.746  17.175  0.7264  0.0830 -0.0689
 5128TIP3    H139579   3.115   1.679  17.178  1.9498 -1.2618 -0.8035
 5128TIP3    H239580   3.168   1.792  17.092  1.5641 -1.2187 -0.9874
 5129TIP3   OH239581   1.041   3.237  16.650  0.4248 -0.1640 -0.3496
 5129TIP3    H139582   1.091   3.318  16.660  0.9143 -0.5384  0.3331
 5129TIP3    H239583   1.067   3.183  16.725 -0.7917 -0.4871 -0.1311
 5130TIP3   OH239584   4.981   5.036  16.174 -0.2323 -0.0428  0.0056
 5130TIP3    H139585   4.966   5.117  16.223 -0.5900 -0.5016  0.6707
 5130TIP3    H239586   5.026   4.978  16.236  1.4648  0.1708 -0.9422
 5131TIP3   OH239587   2.629   0.206  14.143 -0.3869  0.4861  0.3183
 5131TIP3    H139588   2.620   0.287  14.094 -0.7471  0.0834 -0.2885
 5131TIP3    H239589   2.588   0.224  14.228 -2.5376  0.2419 -0.6175
 5132TIP3   OH239590   3.828   6.056  16.947 -0.2021 -0.4574 -0.1230
 5132TIP3    H139591   3.782   6.054  16.863 -0.5947  1.7685 -0.0211
 5132TIP3    H239592   3.758   6.063  17.012  0.1846  0.7845  0.1739
 5133TIP3   OH239593   4.107   4.237  14.385  0.4387 -0.1763 -0.4161
 5133TIP3    H139594   4.061   4.157  14.359 -0.3564  0.4971 -1.1885
 5133TIP3    H239595   4.174   4.249  14.318  0.2550  0.0373 -0.5662
 5134TIP3   OH239596   4.628   0.449  14.089 -0.4584 -0.4356 -0.8968
 5134TIP3    H139597   4.716   0.441  14.050 -0.7206  0.2100 -1.6504
 5134TIP3    H239598   4.568   0.443  14.014 -1.0469 -0.6701 -0.4111
 5135TIP3   OH239599   4.699   1.064  17.245  0.6142  0.1302  0.5874
 5135TIP3    H139600   4.673   0.983  17.288 -0.1683  0.5602  0.9568
 5135TIP3    H239601   4.793   1.057  17.234  0.4612 -1.1837 -0.1358
 5136TIP3   OH239602   3.159   0.888  15.675  0.4402 -0.1088 -0.2917
 5136TIP3    H139603   3.253   0.900  15.692  1.1030  0.3691 -3.6248
 5136TIP3    H239604   3.127   0.975  15.653 -1.0213 -0.1437  1.4245
 5137TIP3   OH239605   2.042   3.911  14.566  0.4350 -0.1993  1.0916
 5137TIP3    H139606   2.045   3.994  14.614  1.2107  1.6726 -1.9306
 5137TIP3    H239607   2.130   3.901  14.531 -0.2354 -1.0741 -0.4579
 5138TIP3   OH239608   5.306   5.580  14.340 -0.7827 -0.6840  0.3730
 5138TIP3    H139609   5.381   5.615  14.292 -1.9392  1.1165 -0.2535
 5138TIP3    H239610   5.341   5.555  14.425  0.3549  1.0835  0.4677
 5139TIP3   OH239611   5.043   5.894  17.172 -0.2835 -0.1725 -0.6171
 5139TIP3    H139612   5.121   5.948  17.185  0.4406 -0.6753 -2.5792
 5139TIP3    H239613   5.063   5.812  17.218 -0.5783  0.4784  0.7072
 5140TIP3   OH239614   1.872   0.890  15.164 -0.4818 -0.4714 -0.3488
 5140TIP3    H139615   1.920   0.838  15.228  0.0979  0.1986 -0.2208
 5140TIP3    H239616   1.781   0.890  15.196  0.0963  1.3275  1.5205
 5141TIP3   OH239617   5.002   0.478  14.342  0.0339 -0.1247 -0.5122
 5141TIP3    H139618   5.021   0.416  14.412  0.4514 -0.1732 -0.6673
 5141TIP3    H239619   5.056   0.449  14.269  0.1983  0.3949 -0.5992
 5142TIP3   OH239620   0.413   4.439  15.672 -0.6428 -0.1173 -0.7891
 5142TIP3    H139621   0.407   4.369  15.737 -2.0476  0.4249 -0.3109
 5142TIP3    H239622   0.481   4.409  15.611 -1.3694 -2.0016 -0.7271
 5143TIP3   OH239623   3.791   2.472  14.836  0.4185 -0.0361 -0.2425
 5143TIP3    H139624   3.867   2.427  14.798 -0.2731 -2.0662  0.6127
 5143TIP3    H239625   3.823   2.510  14.917  1.1595  1.6518 -1.2658
 5144TIP3   OH239626   5.605   5.182  15.121  0.2919  0.0607  0.2036
 5144TIP3    H139627   5.641   5.237  15.190  2.4117 -0.6374 -0.2965
 5144TIP3    H239628   5.546   5.122  15.167 -0.2710  1.2089  1.0407
 5145TIP3   OH239629   2.387   4.527  13.969  0.0192 -0.3745 -0.3332
 5145TIP3    H139630   2.428   4.442  13.952 -0.4539 -0.4716 -1.0503
 5145TIP3    H239631   2.405   4.577  13.889  0.4823  0.2738  0.1745
 5146TIP3   OH239632   1.496   6.088  13.243  0.4023 -0.4236 -0.4471
 5146TIP3    H139633   1.565   6.128  13.191  0.9592 -1.0288 -0.1909
 5146TIP3    H239634   1.470   6.156  13.306 -1.3228  0.8442 -2.4064
 5147TIP3   OH239635   2.216   0.128  13.908  0.0146 -0.8643  0.3652
 5147TIP3    H139636   2.122   0.117  13.896 -0.3077  0.6805  1.2610
 5147TIP3    H239637   2.245   0.176  13.831  0.1235 -1.5261 -0.0144
 5148TIP3   OH239638   6.408   6.415  14.141  0.1406 -0.2663 -0.0754
 5148TIP3    H139639   6.482   6.469  14.171  1.4218 -1.0913 -1.6335
 5148TIP3    H239640   6.425   6.329  14.179 -1.2507  0.0627  1.3949
 5149TIP3   OH239641   1.928   1.233  16.169  0.4454 -0.6242  0.3039
 5149TIP3    H139642   1.845   1.239  16.216 -0.0657 -1.1676 -0.4998
 5149TIP3    H239643   1.960   1.323  16.166 -0.0597 -0.4246  0.7214
 5150TIP3   OH239644   2.745   0.735  16.590 -0.6517 -0.3006 -0.0411
 5150TIP3    H139645   2.713   0.744  16.680 -2.9504 -1.8250 -0.6201
 5150TIP3    H239646   2.708   0.810  16.544 -1.9448 -1.0743 -0.3063
 5151TIP3   OH239647   3.439   1.601  16.512  0.4923  0.5554  0.0609
 5151TIP3    H139648   3.457   1.626  16.603 -0.2042  0.6396  0.1772
 5151TIP3    H239649   3.526   1.591  16.473  0.8072 -0.0309  0.8809
 5152TIP3   OH239650   3.193   1.923  16.471 -0.2390 -0.4535 -0.1268
 5152TIP3    H139651   3.108   1.899  16.507  0.5197 -0.6007  1.7270
 5152TIP3    H239652   3.220   1.848  16.419 -0.1970 -1.4425  1.2781
 5153TIP3   OH239653   3.216   3.667  16.645 -0.0668 -0.3583  0.0328
 5153TIP3    H139654   3.122   3.686  16.654  0.0726 -0.0220  0.8781
 5153TIP3    H239655   3.222   3.573  16.657 -0.1217 -0.1794  1.8230
 5154TIP3   OH239656   4.385   4.537  14.851  0.2905  0.5438 -0.0999
 5154TIP3    H139657   4.418   4.473  14.914 -0.1915 -0.3977 -0.7824
 5154TIP3    H239658   4.398   4.495  14.765 -1.5427  0.6448 -0.4630
 5155TIP3   OH239659   3.827   0.609  15.549 -0.2209  0.9671 -0.3060
 5155TIP3    H139660   3.890   0.593  15.619  0.2626 -1.5721 -1.2211
 5155TIP3    H239661   3.876   0.661  15.485  0.6314 -0.0280 -0.4968
 5156TIP3   OH239662   3.209   5.416  16.531 -0.2186 -0.0456  0.0419
 5156TIP3    H139663   3.239   5.330  16.503  0.2137 -0.0302  0.4643
 5156TIP3    H239664   3.114   5.407  16.540 -0.1207 -0.5992  0.5268
 5157TIP3   OH239665   5.134   6.446  14.144 -0.3195  0.8739  0.2425
 5157TIP3    H139666   5.072   6.501  14.096 -0.6393  0.8887  0.6655
 5157TIP3    H239667   5.169   6.386  14.079 -0.5227  1.0961 -0.0694
 5158TIP3   OH239668   0.783   1.521  15.584 -0.1875  0.0280 -0.5407
 5158TIP3    H139669   0.829   1.455  15.636  0.9781 -0.1498 -1.7520
 5158TIP3    H239670   0.721   1.561  15.645  1.8546  0.5806  1.2625
 5159TIP3   OH239671   5.407   0.994  15.392  0.2139  0.6463 -0.5003
 5159TIP3    H139672   5.462   0.916  15.380  0.7448  1.2454 -2.2248
 5159TIP3    H239673   5.448   1.061  15.338 -1.9037  1.2818 -1.4244
 5160TIP3   OH239674   1.667   6.479  15.726 -0.1548 -0.7146  0.4667
 5160TIP3    H139675   1.669   6.406  15.786  0.7246  0.0809  1.4360
 5160TIP3    H239676   1.759   6.501  15.711 -0.3710 -0.5867 -0.7937
 5161TIP3   OH239677   3.208   4.343  14.148 -0.3211 -0.3413  0.3494
 5161TIP3    H139678   3.160   4.414  14.105 -0.3971  0.1301  1.1841
 5161TIP3    H239679   3.252   4.297  14.077  0.1589  0.8710 -0.1700
 5162TIP3   OH239680   3.825   5.137  16.247  0.2382  0.7139  0.0753
 5162TIP3    H139681   3.777   5.069  16.201  1.4035 -0.4943  0.5494
 5162TIP3    H239682   3.777   5.217  16.229 -0.4766 -0.0301 -1.5404
 5163TIP3   OH239683   3.690   6.553  17.094 -0.0625 -0.4558  0.1632
 5163TIP3    H139684   3.731   6.475  17.132 -1.0934 -0.5831  1.0810
 5163TIP3    H239685   3.755   6.622  17.105  1.1349 -1.3073 -1.2725
 5164TIP3   OH239686   0.079   5.685  14.860  0.1128 -0.3639  0.0738
 5164TIP3    H139687   0.067   5.590  14.854  1.5355 -0.4640 -2.2227
 5164TIP3    H239688   0.053   5.719  14.775 -1.1388  1.4615  1.1116
 5165TIP3   OH239689   6.194   3.821  14.221  0.1708  0.7463  0.7384
 5165TIP3    H139690   6.238   3.755  14.166  0.3433  2.3986 -1.2390
 5165TIP3    H239691   6.120   3.774  14.259 -0.5800 -0.3078 -1.7896
 5166TIP3   OH239692   1.035   0.175  17.071 -0.6417 -0.2327  0.2134
 5166TIP3    H139693   0.989   0.202  17.151 -2.1112 -1.3424 -0.2139
 5166TIP3    H239694   1.068   0.256  17.034 -0.7846  0.4112  1.4480
 5167TIP3   OH239695   2.448   5.512  16.698  0.0893  0.2915 -0.4177
 5167TIP3    H139696   2.487   5.493  16.784 -0.5391 -0.0687 -0.2042
 5167TIP3    H239697   2.498   5.587  16.665  0.6276  0.1529  0.0680
 5168TIP3   OH239698   4.772   3.671  15.898  0.6597  0.5369 -0.1744
 5168TIP3    H139699   4.747   3.585  15.932  0.6895  0.7778  0.4863
 5168TIP3    H239700   4.768   3.729  15.975  1.0660  1.0362 -0.5202
 5169TIP3   OH239701   5.960   4.115  15.213 -0.3519  0.0277  0.0288
 5169TIP3    H139702   5.940   4.050  15.281  0.2094 -0.9198 -0.6964
 5169TIP3    H239703   6.051   4.140  15.230  1.0595 -2.8542 -2.4134
 5170TIP3   OH239704   2.942   3.075  14.492 -0.0795 -0.2971 -0.5636
 5170TIP3    H139705   3.038   3.077  14.480 -0.2547  0.0432 -2.2366
 5170TIP3    H239706   2.914   2.998  14.442 -0.7934  0.4005 -1.2788
 5171TIP3   OH239707   1.628   0.631  16.542 -0.4189  0.0395  0.3714
 5171TIP3    H139708   1.717   0.596  16.542 -0.0887  0.8537  0.1370
 5171TIP3    H239709   1.604   0.635  16.449 -0.0974  1.2637  0.3133
 5172TIP3   OH239710   0.209   1.484  15.551  0.2554  0.3831  0.3515
 5172TIP3    H139711   0.299   1.513  15.540  0.8220 -0.9890  1.1348
 5172TIP3    H239712   0.178   1.530  15.630  0.6222  0.0710  0.6818
 5173TIP3   OH239713   1.873   2.479  15.529  0.4576  0.0191 -0.3375
 5173TIP3    H139714   1.932   2.404  15.522  0.8002  0.2550  0.0138
 5173TIP3    H239715   1.789   2.441  15.554  0.2169 -0.4187 -1.6938
 5174TIP3   OH239716   6.150   5.006  14.331  0.1593  0.5223 -0.6730
 5174TIP3    H139717   6.167   4.928  14.385  1.1334  0.3908 -1.1467
 5174TIP3    H239718   6.159   4.975  14.241  1.6485  1.3843 -0.8551
 5175TIP3   OH239719   2.083   5.038  15.845  0.1224  0.0814  0.5144
 5175TIP3    H139720   1.992   5.028  15.873 -0.5759 -0.1038 -1.6404
 5175TIP3    H239721   2.128   5.076  15.921 -1.2262 -1.9266  2.4202
 5176TIP3   OH239722   0.055   0.798  14.724 -0.7025  0.1005  0.2961
 5176TIP3    H139723   0.148   0.819  14.711 -0.2357 -1.2416  1.2465
 5176TIP3    H239724   0.019   0.875  14.768 -0.3977  1.2272 -1.3413
 5177TIP3   OH239725   4.631   6.040  12.979 -0.0200  0.8201  0.2327
 5177TIP3    H139726   4.719   6.077  12.978 -0.3149  1.6388  1.4632
 5177TIP3    H239727   4.607   6.031  12.887  0.6957  2.2164 -0.1233
 5178TIP3   OH239728   5.321   5.268  15.118  0.3499  0.1573  0.1881
 5178TIP3    H139729   5.260   5.244  15.048  1.9580  0.5190 -1.4246
 5178TIP3    H239730   5.393   5.205  15.110 -0.6104 -1.5393  3.3390
 5179TIP3   OH239731   1.363   6.107  14.262 -0.6870  0.0415 -0.5816
 5179TIP3    H139732   1.340   6.048  14.333  0.7318 -0.9960 -0.9298
 5179TIP3    H239733   1.343   6.057  14.182 -0.5097  0.4626 -0.8933
 5180TIP3   OH239734   1.791   6.262  13.429 -0.2242 -0.3252 -0.3231
 5180TIP3    H139735   1.811   6.349  13.465  0.7737 -0.2419 -1.0272
 5180TIP3    H239736   1.782   6.277  13.335 -3.0616 -0.4936 -0.1528
 5181TIP3   OH239737   1.979   6.047  13.944 -0.2663 -0.2497  0.2372
 5181TIP3    H139738   1.919   6.002  13.886  0.2970 -0.8635  0.1146
 5181TIP3    H239739   1.943   6.135  13.953 -0.9617 -0.4908 -0.1419
 5182TIP3   OH239740   1.115   5.727  16.347 -0.4348 -0.3055  0.5880
 5182TIP3    H139741   1.182   5.711  16.413 -1.5334  0.4800  1.9645
 5182TIP3    H239742   1.097   5.641  16.310  0.2951 -0.7532  1.2397
 5183TIP3   OH239743   6.038   5.333  14.587  0.5842  0.0042 -0.4408
 5183TIP3    H139744   6.125   5.307  14.557  0.5701  0.1620 -0.6173
 5183TIP3    H239745   5.981   5.263  14.558  0.9022 -0.9715  1.1504
 5184TIP3   OH239746   3.929   3.201  16.467  0.0812 -0.1794 -0.4247
 5184TIP3    H139747   4.019   3.170  16.457 -0.2083 -1.4534  0.6288
 5184TIP3    H239748   3.919   3.268  16.400  1.2967 -1.1919 -1.6740
 5185TIP3   OH239749   5.861   4.261  14.539  0.1086 -0.5096  0.2084
 5185TIP3    H139750   5.771   4.250  14.570  0.2094 -0.9884  0.3274
 5185TIP3    H239751   5.916   4.228  14.610  0.3411 -1.7902 -0.5330
 5186TIP3   OH239752   3.537   2.782  15.247  0.1852  0.0467 -0.0499
 5186TIP3    H139753   3.614   2.829  15.278 -0.5455  1.2635 -0.0205
 5186TIP3    H239754   3.498   2.744  15.326  0.2152  0.2594  0.0671
 5187TIP3   OH239755   1.419   3.339  16.364  0.3376 -0.0226 -0.4069
 5187TIP3    H139756   1.409   3.249  16.397  0.1439 -0.0672 -0.5872
 5187TIP3    H239757   1.490   3.375  16.417 -0.4090  0.1218  0.5389
 5188TIP3   OH239758   3.332   5.443  15.823 -0.6005 -0.0318 -0.7784
 5188TIP3    H139759   3.373   5.450  15.909 -0.7447 -0.5897 -0.6633
 5188TIP3    H239760   3.381   5.505  15.768 -1.2332  1.1775 -0.0299
 5189TIP3   OH239761   4.958   5.579  14.006 -0.1431 -0.4128 -0.1095
 5189TIP3    H139762   4.911   5.631  14.072  1.5112 -0.5296  1.2434
 5189TIP3    H239763   4.970   5.639  13.932  0.0029  0.5048  0.6392
 5190TIP3   OH239764   2.539   1.016  15.949  0.1101  0.2113  0.4708
 5190TIP3    H139765   2.612   1.009  16.010  0.8020 -0.7258 -0.4300
 5190TIP3    H239766   2.561   1.092  15.894  0.5241 -0.1827  0.0777
 5191TIP3   OH239767   0.955   0.838  16.142  0.3912 -0.8406  0.3528
 5191TIP3    H139768   0.902   0.777  16.193 -1.2084 -1.3351 -1.7677
 5191TIP3    H239769   1.015   0.783  16.093 -1.4701 -0.9031 -2.0427
 5192TIP3   OH239770   0.780   3.367  14.790  0.4668  0.1392  0.1604
 5192TIP3    H139771   0.697   3.339  14.829  0.7021  1.2150  1.5072
 5192TIP3    H239772   0.757   3.394  14.701 -0.1729 -1.9303 -0.3620
 5193TIP3   OH239773   3.092   0.749  16.336  0.0024  0.1264 -0.0429
 5193TIP3    H139774   3.054   0.694  16.405  0.8469  0.0970  0.4160
 5193TIP3    H239775   3.026   0.816  16.319  0.2206  0.8181  1.6105
 5194TIP3   OH239776   0.701   0.951  15.061  0.0512 -0.3024  0.7158
 5194TIP3    H139777   0.752   0.992  14.991 -0.0153  0.5591  1.1601
 5194TIP3    H239778   0.617   0.997  15.060 -0.3243 -0.9719  0.7049
 5195TIP3   OH239779   3.597   0.470  16.871 -0.1287 -0.2396  0.2508
 5195TIP3    H139780   3.690   0.483  16.852  0.3071 -1.1284  1.6830
 5195TIP3    H239781   3.560   0.558  16.874  0.6878  0.1232 -0.1737
 5196TIP3   OH239782   5.345   1.289  14.421  0.6547 -0.2317 -0.7512
 5196TIP3    H139783   5.395   1.326  14.348  0.4856  0.8583 -0.3331
 5196TIP3    H239784   5.389   1.322  14.499  1.7268 -2.5529 -0.2800
 5197TIP3   OH239785   2.314   1.846  14.821  0.1453  0.1722  0.4338
 5197TIP3    H139786   2.330   1.939  14.807  1.1913 -0.2021 -1.0319
 5197TIP3    H239787   2.392   1.814  14.867  0.5496 -0.2869 -0.5437
 5198TIP3   OH239788   5.445   2.544  16.881  0.0342 -0.5994  0.3021
 5198TIP3    H139789   5.373   2.537  16.819  0.2496 -0.5701  0.0498
 5198TIP3    H239790   5.458   2.638  16.893 -0.2982 -0.6054  0.7322
 5199TIP3   OH239791   1.789   4.595  15.318  0.1216  0.0662 -0.8516
 5199TIP3    H139792   1.783   4.691  15.324  0.4245  0.1217 -1.3794
 5199TIP3    H239793   1.733   4.563  15.389  0.5119  0.6451 -0.2643
 5200TIP3   OH239794   3.161   4.852  14.350 -0.5352  0.3438  0.7115
 5200TIP3    H139795   3.190   4.786  14.414  0.4642  0.0623 -0.0082
 5200TIP3    H239796   3.232   4.856  14.286 -1.9511 -0.1034 -0.9473
 5201TIP3   OH239797   5.124   3.186  14.205  0.6151  0.2079  0.8637
 5201TIP3    H139798   5.175   3.154  14.130  1.1661  0.1472  1.2539
 5201TIP3    H239799   5.157   3.134  14.279 -0.5435 -0.3556  0.9986
 5202TIP3   OH239800   5.332   4.243  15.796 -0.1152  0.2558 -0.4321
 5202TIP3    H139801   5.243   4.271  15.779 -0.2391 -0.0836 -0.3546
 5202TIP3    H239802   5.338   4.240  15.892  0.1717  0.8858 -0.4303
 5203TIP3   OH239803   4.970   2.600  13.430  0.5422 -0.1433 -0.2682
 5203TIP3    H139804   4.915   2.523  13.441  1.4785 -0.9799 -1.2244
 5203TIP3    H239805   5.057   2.573  13.461  1.1022  0.1993 -1.4716
 5204TIP3   OH239806   4.993   6.069  16.079 -0.2469 -0.0124 -0.1946
 5204TIP3    H139807   4.924   6.015  16.039  0.8467 -2.0312  0.5036
 5204TIP3    H239808   5.060   6.075  16.011 -0.1620  0.0560 -0.1053
 5205TIP3   OH239809   0.072   2.401  15.950  0.2810 -0.3060  0.6524
 5205TIP3    H139810   0.083   2.389  16.045  0.2203 -0.8183  0.5971
 5205TIP3    H239811   0.131   2.338  15.911 -0.4287 -0.7943  0.3491
 5206TIP3   OH239812   2.453   0.017  14.838  0.4234 -0.0368  0.2267
 5206TIP3    H139813   2.422   0.107  14.829  1.8407  0.5872  1.2553
 5206TIP3    H239814   2.384  -0.027  14.888 -0.5366  0.3119 -0.7501
 5207TIP3   OH239815   2.436   2.469  14.361  0.2824 -0.0216 -0.1154
 5207TIP3    H139816   2.364   2.479  14.423  0.0895 -0.6904 -0.2257
 5207TIP3    H239817   2.503   2.419  14.409 -0.2342 -1.3374 -0.7191
 5208TIP3   OH239818   2.053   2.386  15.752  0.4408 -0.4064 -0.2683
 5208TIP3    H139819   2.091   2.471  15.731  1.3865 -0.2964  1.6625
 5208TIP3    H239820   2.119   2.323  15.724 -0.2982 -0.5530 -1.7828
 5209TIP3   OH239821   4.274   2.945  17.125 -0.0240  0.3261  0.3229
 5209TIP3    H139822   4.214   2.913  17.058 -0.5660  0.2105  0.8552
 5209TIP3    H239823   4.231   2.925  17.208  1.4822 -1.2382  0.7736
 5210TIP3   OH239824   4.495   4.288  16.276  0.1597  0.4251  0.2337
 5210TIP3    H139825   4.538   4.356  16.225 -0.7263  1.7791  1.2173
 5210TIP3    H239826   4.561   4.219  16.284  0.0533 -0.2573 -3.3772
 5211TIP3   OH239827   6.461   4.829  14.925  0.1170 -0.0347 -0.6069
 5211TIP3    H139828   6.388   4.891  14.933  0.6878  0.4213  1.6834
 5211TIP3    H239829   6.493   4.841  14.835 -1.2240  1.3474 -0.9351
 5212TIP3   OH239830   0.418   5.229  13.527  1.0328 -1.0456  0.5484
 5212TIP3    H139831   0.505   5.257  13.556  1.1631  1.9176 -2.2501
 5212TIP3    H239832   0.430   5.204  13.436 -1.0933 -0.2101 -0.0217
 5213TIP3   OH239833   1.131   5.604  17.045  0.3156  0.0556  0.1812
 5213TIP3    H139834   1.196   5.662  17.085  0.1540  0.0624  0.4326
 5213TIP3    H239835   1.047   5.643  17.067  0.2248  0.0856 -0.2074
 5214TIP3   OH239836   3.523   3.558  15.993  0.1283  0.1980  0.0976
 5214TIP3    H139837   3.576   3.637  16.005 -1.0607  0.7832  2.1088
 5214TIP3    H239838   3.445   3.588  15.947  0.7217 -0.3286 -1.3138
 5215TIP3   OH239839   1.204   3.100  15.424 -0.0233  0.0631 -0.0773
 5215TIP3    H139840   1.142   3.102  15.496 -0.1457 -0.4192 -0.1610
 5215TIP3    H239841   1.286   3.134  15.460  0.1190 -0.8450  0.4973
 5216TIP3   OH239842   3.571   0.322  15.847  0.2789  0.0137  0.5850
 5216TIP3    H139843   3.610   0.241  15.880 -2.6801 -1.1440  1.6410
 5216TIP3    H239844   3.521   0.294  15.770  1.0370  1.3185 -0.4157
 5217TIP3   OH239845   5.615   3.010  14.053  0.3710 -0.3154  0.0567
 5217TIP3    H139846   5.618   3.086  13.995  1.4186 -0.6927 -0.4048
 5217TIP3    H239847   5.618   2.935  13.994 -0.8156 -0.7319  0.4977
 5218TIP3   OH239848   1.217   0.611  17.186 -0.3113 -0.0732 -0.1663
 5218TIP3    H139849   1.128   0.615  17.221 -0.1934  0.3019  0.0900
 5218TIP3    H239850   1.215   0.537  17.125 -1.2919  1.0664 -1.5765
 5219TIP3   OH239851   3.702   6.070  13.971 -0.2116  0.2672  0.4919
 5219TIP3    H139852   3.790   6.039  13.951 -0.9470 -2.6811  1.2641
 5219TIP3    H239853   3.711   6.119  14.052  0.7548  0.3629  0.3349
 5220TIP3   OH239854   6.162   1.035  14.918  0.1958  0.0968  0.1654
 5220TIP3    H139855   6.247   1.007  14.884 -0.4558  1.1137 -2.6245
 5220TIP3    H239856   6.157   1.128  14.898 -0.6964  0.5976  2.3778
 5221TIP3   OH239857   4.622   3.449  14.923 -0.1369  0.2437  0.0969
 5221TIP3    H139858   4.640   3.541  14.904  1.9275 -0.2932 -0.8176
 5221TIP3    H239859   4.707   3.407  14.920 -1.0199 -1.6935  0.6673
 5222TIP3   OH239860   5.169   1.647  16.308  0.1450 -0.1681  0.3255
 5222TIP3    H139861   5.239   1.626  16.246  0.3021  0.9125  0.1140
 5222TIP3    H239862   5.122   1.720  16.267 -1.6252 -1.3825  0.0921
 5223TIP3   OH239863   2.229   6.267  16.593  0.2554 -0.2217 -0.3268
 5223TIP3    H139864   2.187   6.351  16.608 -0.4662 -0.9133  1.8226
 5223TIP3    H239865   2.159   6.210  16.563  0.1733 -0.7180  0.7759
 5224TIP3   OH239866   5.638   6.015  17.075  0.2535 -0.6207 -0.0294
 5224TIP3    H139867   5.628   6.003  17.169 -0.4953 -0.2514 -0.0571
 5224TIP3    H239868   5.731   6.004  17.059  0.1958 -2.3022  0.5289
 5225TIP3   OH239869   4.206   2.493  15.634 -0.2654  0.3416 -0.4200
 5225TIP3    H139870   4.301   2.492  15.625 -0.3605  1.0943 -1.6121
 5225TIP3    H239871   4.173   2.488  15.545 -1.3775 -1.2856  0.0381
 5226TIP3   OH239872   0.624   3.387  15.174  0.4243 -0.0399 -0.4255
 5226TIP3    H139873   0.538   3.406  15.210  0.6007 -0.2277  0.0953
 5226TIP3    H239874   0.646   3.465  15.123 -0.1022 -0.0394 -0.6578
 5227TIP3   OH239875   5.915   5.551  14.690 -0.0129  0.5449  0.2140
 5227TIP3    H139876   5.982   5.611  14.723 -2.1645  2.6594  1.0253
 5227TIP3    H239877   5.965   5.477  14.655  2.6501  0.2006  4.0565
 5228TIP3   OH239878   5.769   3.458  13.349 -0.4080 -0.0595  0.3441
 5228TIP3    H139879   5.791   3.424  13.262 -0.0564 -0.0902  0.4416
 5228TIP3    H239880   5.847   3.439  13.402  0.7618  2.8547 -0.1436
 5229TIP3   OH239881   5.540   0.646  16.398  0.4806 -0.0280 -0.0717
 5229TIP3    H139882   5.571   0.736  16.384 -0.5328  0.3723  0.1669
 5229TIP3    H239883   5.482   0.628  16.324  1.6445 -0.9569 -0.7878
 5230TIP3   OH239884   1.939   1.750  14.595  0.4830  0.0587 -0.0493
 5230TIP3    H139885   1.977   1.677  14.547 -0.5301 -0.2136 -0.4458
 5230TIP3    H239886   1.848   1.727  14.608  0.5548  0.4339  1.4164
 5231TIP3   OH239887   6.351   4.573  16.126  0.0224  0.2414  0.2152
 5231TIP3    H139888   6.307   4.657  16.112  1.3260  0.9432  0.1645
 5231TIP3    H239889   6.432   4.579  16.074 -0.5558 -1.6495 -1.0507
 5232TIP3   OH239890   5.993   2.670  15.185 -0.2980 -0.4904  0.2194
 5232TIP3    H139891   5.982   2.575  15.183 -1.3043 -0.4187  1.2731
 5232TIP3    H239892   5.932   2.700  15.252  0.7892  0.8030  0.6799
 5233TIP3   OH239893   4.987   0.569  14.613 -0.0099 -0.3309 -0.1593
 5233TIP3    H139894   5.000   0.607  14.526 -0.6572 -0.3921 -0.2916
 5233TIP3    H239895   5.075   0.558  14.648  0.2065  1.2071 -0.1522
 5234TIP3   OH239896   1.617   2.394  15.606  0.3143  0.2644  0.3570
 5234TIP3    H139897   1.593   2.307  15.636  1.2961 -0.7668 -1.6218
 5234TIP3    H239898   1.537   2.446  15.616 -1.1801 -1.6118 -1.0337
 5235TIP3   OH239899   2.236   4.571  16.460  0.1711  0.0297 -0.3527
 5235TIP3    H139900   2.323   4.564  16.498  0.3376  0.1868 -0.7023
 5235TIP3    H239901   2.212   4.663  16.471 -0.3141 -0.1884  0.5242
 5236TIP3   OH239902   4.238   2.876  15.324 -0.7132  0.0775  0.1940
 5236TIP3    H139903   4.162   2.901  15.376  1.0091  0.5994  2.6102
 5236TIP3    H239904   4.288   2.956  15.314 -0.7299 -0.1014 -1.9929
 5237TIP3   OH239905   3.873   0.114  15.725 -0.0435 -0.4361 -0.4943
 5237TIP3    H139906   3.778   0.124  15.729  0.0316  0.2849 -0.3910
 5237TIP3    H239907   3.887   0.040  15.666 -0.6519 -0.2341 -0.8991
 5238TIP3   OH239908   5.817   2.472  15.625  0.0429 -0.5786  0.1190
 5238TIP3    H139909   5.793   2.404  15.561  1.3498 -1.2786  0.3416
 5238TIP3    H239910   5.832   2.423  15.706  1.0827 -0.0317  0.2607
 5239TIP3   OH239911   1.853   3.137  14.579  0.4721  0.0718 -0.5661
 5239TIP3    H139912   1.932   3.138  14.633  0.7260  2.7388 -0.8713
 5239TIP3    H239913   1.882   3.101  14.495  0.5939 -1.8988  0.2577
 5240TIP3   OH239914   5.317   3.755  13.831 -0.4080  0.3346  0.5177
 5240TIP3    H139915   5.323   3.701  13.752 -0.6961 -0.9231  1.3154
 5240TIP3    H239916   5.398   3.805  13.832 -0.4514  0.4640 -0.6219
 5241TIP3   OH239917   4.449   0.378  13.887 -0.0031  0.3976 -0.5546
 5241TIP3    H139918   4.500   0.318  13.832  1.3705  1.5594 -0.5877
 5241TIP3    H239919   4.358   0.361  13.861  0.4846 -0.3447 -1.9023
 5242TIP3   OH239920   5.223   5.501  16.857 -0.6021 -0.0561  0.2733
 5242TIP3    H139921   5.295   5.556  16.887 -0.5791 -0.4175  0.9018
 5242TIP3    H239922   5.258   5.455  16.780 -0.0102 -0.5426  0.8190
 5243TIP3   OH239923   4.150   4.814  16.312 -0.2712 -0.4565 -0.5408
 5243TIP3    H139924   4.220   4.878  16.302 -1.9866  1.5020 -0.6979
 5243TIP3    H239925   4.070   4.867  16.318 -1.7272 -2.5816 -0.1758
 5244TIP3   OH239926   0.928   3.368  14.320 -0.4409 -0.4444  0.3355
 5244TIP3    H139927   0.851   3.393  14.270 -1.9388 -0.5915  2.4544
 5244TIP3    H239928   0.986   3.444  14.314 -0.7012 -0.3352 -1.2851
 5245TIP3   OH239929   4.841   2.886  15.184  0.0474 -0.3180 -0.2120
 5245TIP3    H139930   4.796   2.942  15.121 -0.3416 -0.2869  0.0964
 5245TIP3    H239931   4.791   2.894  15.265  1.5716  1.1149  0.6784
 5246TIP3   OH239932   4.943   1.114  14.989  0.0006  0.2166  0.2606
 5246TIP3    H139933   5.020   1.125  15.045  0.7207 -0.0751 -0.6346
 5246TIP3    H239934   4.980   1.105  14.901 -1.1045  0.7705 -0.2719
 5247TIP3   OH239935   4.760   5.268  16.180  0.3304 -0.3900  0.2848
 5247TIP3    H139936   4.730   5.197  16.237 -0.6513  0.3469  0.6999
 5247TIP3    H239937   4.700   5.340  16.197  3.4589  1.9330  2.7667
 5248TIP3   OH239938   6.423   1.619  14.986 -0.5639  0.1560 -0.4421
 5248TIP3    H139939   6.513   1.598  14.959  0.1413  1.9628  0.3224
 5248TIP3    H239940   6.374   1.538  14.973  1.7496 -1.7323  1.7261
 5249TIP3   OH239941   0.794   1.283  16.167 -0.5200 -0.1387 -0.4490
 5249TIP3    H139942   0.726   1.235  16.214  1.0726 -0.4793  1.6489
 5249TIP3    H239943   0.876   1.241  16.192  1.1853  4.1577  2.6039
 5250TIP3   OH239944   1.828   2.161  15.339  0.4440  0.3028  0.0971
 5250TIP3    H139945   1.850   2.218  15.265  0.0423  0.8697  0.4052
 5250TIP3    H239946   1.744   2.122  15.317  1.8421 -2.1899 -1.2692
 5251TIP3   OH239947   0.032   2.514  14.195 -0.8582 -0.0007 -0.0938
 5251TIP3    H139948   0.056   2.474  14.278 -0.6469 -1.9761 -1.0518
 5251TIP3    H239949  -0.023   2.588  14.219 -1.9126 -1.3001  1.7581
 5252TIP3   OH239950   0.600   4.716  16.362  0.4702 -0.1336 -0.2571
 5252TIP3    H139951   0.541   4.675  16.299  2.0522 -1.1673 -1.1390
 5252TIP3    H239952   0.655   4.644  16.394 -0.6224  0.2298  2.8074
 5253TIP3   OH239953   3.405   2.195  16.816 -0.3330 -0.6678  0.6046
 5253TIP3    H139954   3.467   2.141  16.865  2.2817  1.0785 -0.5580
 5253TIP3    H239955   3.444   2.202  16.729 -3.5183 -1.5399 -1.0264
 5254TIP3   OH239956   1.860   0.639  15.861  0.2941 -0.2131  0.1036
 5254TIP3    H139957   1.816   0.692  15.796  0.3019  1.0831  1.1228
 5254TIP3    H239958   1.941   0.610  15.818 -0.6520 -1.0943 -1.1383
 5255TIP3   OH239959   6.453   5.696  14.940 -0.2985  0.0427  0.5771
 5255TIP3    H139960   6.525   5.700  15.003  0.1337  0.0361  0.0919
 5255TIP3    H239961   6.392   5.763  14.969 -0.0685  0.0891  0.9628
 5256TIP3   OH239962   4.498   1.365  15.176  0.2574 -0.0089 -0.3449
 5256TIP3    H139963   4.582   1.320  15.164  0.8087  0.7485  0.5684
 5256TIP3    H239964   4.482   1.408  15.092  0.8439 -0.0544 -0.4897
 5257TIP3   OH239965   1.185   4.225  15.036 -0.2361  0.4780  0.1198
 5257TIP3    H139966   1.261   4.227  14.978 -0.7251  1.3112 -0.5208
 5257TIP3    H239967   1.115   4.189  14.981 -0.4122  0.1337  0.5684
 5258TIP3   OH239968   0.494   6.684  16.408  0.3932  0.0821  0.1360
 5258TIP3    H139969   0.482   6.648  16.320 -2.9982  0.6615  0.2373
 5258TIP3    H239970   0.483   6.609  16.466  0.9233  0.0043  0.1437
 5259TIP3   OH239971   1.185   3.278  15.216 -0.2048 -0.1828  0.3271
 5259TIP3    H139972   1.188   3.213  15.286 -3.7384  0.3794  1.1856
 5259TIP3    H239973   1.096   3.273  15.183 -0.3280  3.4888 -0.2782
 5260TIP3   OH239974   0.928   0.973  15.504 -0.6532  0.1374  0.1754
 5260TIP3    H139975   0.965   1.058  15.525 -0.5556  0.5561 -1.5334
 5260TIP3    H239976   1.003   0.917  15.486 -0.7159 -0.3509  1.2949
 5261TIP3   OH239977   1.753   0.944  13.475 -0.0632  0.2593  0.1511
 5261TIP3    H139978   1.692   0.988  13.415  0.6010  0.4725 -0.3781
 5261TIP3    H239979   1.768   1.008  13.545 -0.5415  0.1545  0.3571
 5262TIP3   OH239980   4.834   5.024  13.655  0.1465 -0.1609 -0.4208
 5262TIP3    H139981   4.916   5.064  13.626  0.1243 -0.8536 -1.5216
 5262TIP3    H239982   4.766   5.076  13.612  0.0418 -0.0003 -0.0563
 5263TIP3   OH239983   4.375   1.392  17.099 -0.0990  0.0719 -0.7955
 5263TIP3    H139984   4.329   1.393  17.183 -0.2030  1.3666 -0.8503
 5263TIP3    H239985   4.464   1.365  17.121  0.5019  2.5855  0.1024
 5264TIP3   OH239986   5.956   0.240  16.384 -0.3214  0.0048 -0.3938
 5264TIP3    H139987   5.880   0.292  16.360 -1.0089 -1.0610 -0.5690
 5264TIP3    H239988   5.932   0.150  16.363  0.8885 -0.3824 -0.2091
 5265TIP3   OH239989   2.775   5.912  15.050  0.1366  0.5331 -0.0535
 5265TIP3    H139990   2.852   5.968  15.062  0.4668  0.1424 -0.3289
 5265TIP3    H239991   2.781   5.848  15.121 -0.9137  1.5783  1.0329
 5266TIP3   OH239992   0.371   6.114  15.071 -0.2493  0.1499 -1.0193
 5266TIP3    H139993   0.433   6.051  15.109 -0.2597  0.6017 -0.2176
 5266TIP3    H239994   0.427   6.180  15.030 -0.1982  0.3216 -0.6821
 5267TIP3   OH239995   6.251   6.297  13.923 -0.3764 -0.0522  0.4265
 5267TIP3    H139996   6.267   6.351  14.001 -1.0334  1.1543 -0.2326
 5267TIP3    H239997   6.175   6.244  13.946  0.1472 -0.5706  1.0096
 5268TIP3   OH239998   1.884   6.415  15.478  0.4667  0.3187 -0.4794
 5268TIP3    H139999   1.807   6.359  15.487 -0.1823  1.2379 -0.0932
 5268TIP3    H240000   1.943   6.386  15.548  1.0570 -1.2551 -1.5874
 5269TIP3   OH240001   0.236   5.984  14.495  0.3529 -0.3505  0.2968
 5269TIP3    H140002   0.152   5.956  14.458  1.0010 -2.2899  0.1594
 5269TIP3    H240003   0.239   6.078  14.480 -1.0874 -0.4986 -1.1742
 5270TIP3   OH240004   0.789   3.357  13.883  0.0467 -0.4700 -0.1693
 5270TIP3    H140005   0.807   3.447  13.912 -0.1336  0.9098 -3.7534
 5270TIP3    H240006   0.863   3.306  13.914  1.5239  1.5034 -0.2676
 5271TIP3   OH240007   3.071   4.325  15.986  0.4208  0.6295  0.0399
 5271TIP3    H140008   2.990   4.367  16.014 -0.9154 -2.2314  0.8029
 5271TIP3    H240009   3.098   4.375  15.909 -0.6216  3.2365  1.2531
 5272TIP3   OH240010   4.450   3.849  13.843  0.1629  0.4110 -0.6948
 5272TIP3    H140011   4.461   3.942  13.825  0.7723  0.3796 -0.5074
 5272TIP3    H240012   4.524   3.807  13.798 -0.0423  0.0329 -0.6810
 5273TIP3   OH240013   5.354   3.426  16.327  0.7442  0.3843 -0.6055
 5273TIP3    H140014   5.267   3.401  16.295  0.7434 -0.3220 -0.0886
 5273TIP3    H240015   5.409   3.350  16.308  0.5857 -0.3784  1.6555
 5274TIP3   OH240016   1.863   6.710  14.763  0.3202 -0.3440 -0.4160
 5274TIP3    H140017   1.939   6.654  14.780  1.0852  0.6113 -0.5892
 5274TIP3    H240018   1.858   6.714  14.668  0.7416  0.4798 -0.4132
 5275TIP3   OH240019   4.662   0.774  16.160 -0.3510  0.3650  0.0532
 5275TIP3    H140020   4.733   0.812  16.108 -0.5624  1.1129  0.3066
 5275TIP3    H240021   4.697   0.689  16.189 -0.2837 -0.1434 -1.4182
 5276TIP3   OH240022   3.937   6.682  14.777 -0.2843  0.2080  0.5518
 5276TIP3    H140023   3.899   6.621  14.840 -0.5517 -0.3504 -0.1344
 5276TIP3    H240024   3.862   6.724  14.736 -0.2282 -1.2073 -1.1154
 5277TIP3   OH240025   2.561   1.871  17.118 -0.5412  0.0753  0.1709
 5277TIP3    H140026   2.569   1.777  17.102 -2.2203  0.0599 -0.9019
 5277TIP3    H240027   2.650   1.900  17.138  0.4304 -1.3708 -1.6826
 5278TIP3   OH240028   2.300   0.897  16.374  0.4634 -0.0166 -0.2041
 5278TIP3    H140029   2.247   0.895  16.294  1.4453 -1.9991 -0.8682
 5278TIP3    H240030   2.329   0.987  16.382 -2.5407  1.0496 -0.0904
 5279TIP3   OH240031   2.680   6.046  17.171  0.5067  0.1492  0.3930
 5279TIP3    H140032   2.751   6.001  17.124  1.4372  1.4262  0.5256
 5279TIP3    H240033   2.655   6.117  17.112  0.8858  1.0621  1.3152
 5280TIP3   OH240034   5.135   5.479  17.159  0.1262 -0.6737  0.3194
 5280TIP3    H140035   5.190   5.555  17.142  0.1162 -0.5296  0.9271
 5280TIP3    H240036   5.190   5.404  17.137  0.6284 -0.5396  1.0841
 5281TIP3   OH240037   0.594   2.509  14.746 -0.3403  0.5131  0.1142
 5281TIP3    H140038   0.547   2.589  14.769 -0.4210 -0.1672  2.7187
 5281TIP3    H240039   0.528   2.440  14.755 -0.0582  0.0459 -1.2357
 5282TIP3   OH240040   6.120   2.249  14.950 -0.0473 -0.3036  0.4174
 5282TIP3    H140041   6.212   2.242  14.975  0.0242  1.1477  0.6827
 5282TIP3    H240042   6.072   2.244  15.033 -0.0993  0.3448  0.4326
 5283TIP3   OH240043   5.237   0.275  16.909  0.4978  0.4748 -0.1093
 5283TIP3    H140044   5.201   0.207  16.966  1.9155 -0.2103  0.0028
 5283TIP3    H240045   5.297   0.324  16.965  0.3168  1.1241 -0.4783
 5284TIP3   OH240046   5.837   1.139  16.201 -0.0096 -0.3359 -0.2920
 5284TIP3    H140047   5.919   1.158  16.157 -0.7418  2.3972 -0.6619
 5284TIP3    H240048   5.851   1.167  16.292 -1.1160  2.3657 -0.8488
 5285TIP3   OH240049   3.281   5.275  14.561 -0.6977  0.0278  0.2564
 5285TIP3    H140050   3.257   5.183  14.569 -1.0740  0.1591  0.6957
 5285TIP3    H240051   3.202   5.318  14.529 -0.2885  0.0812 -0.7024
 5286TIP3   OH240052   2.687   1.039  14.700 -0.1526  0.4700 -0.2855
 5286TIP3    H140053   2.655   1.104  14.763  0.4579  0.6709 -0.1809
 5286TIP3    H240054   2.702   0.960  14.752  0.4841  0.6766 -0.1444
 5287TIP3   OH240055   2.250   0.511  16.150  0.6248  0.5042 -0.2966
 5287TIP3    H140056   2.159   0.482  16.145  0.6685  0.5293 -1.4627
 5287TIP3    H240057   2.291   0.475  16.071  2.3528 -1.9232  1.5709
 5288TIP3   OH240058   5.215   3.194  15.697 -0.3836  0.0833 -1.0721
 5288TIP3    H140059   5.280   3.196  15.626 -0.8866  1.0482 -1.5263
 5288TIP3    H240060   5.172   3.280  15.692 -0.9952 -0.1595 -0.1273
 5289TIP3   OH240061   0.175   5.212  16.108 -0.8951  0.3187 -0.4856
 5289TIP3    H140062   0.229   5.175  16.177 -2.8976 -3.7173 -0.7936
 5289TIP3    H240063   0.116   5.273  16.153 -1.7256 -1.7318  1.3838
 5290TIP3   OH240064   6.243   6.092  16.709 -0.2924  0.9448 -0.0469
 5290TIP3    H140065   6.200   6.167  16.748  0.6349  0.1259  2.8249
 5290TIP3    H240066   6.174   6.027  16.698 -0.3772  0.6239  1.9213
 5291TIP3   OH240067   4.455   2.458  14.150  0.2253  0.1199  0.1322
 5291TIP3    H140068   4.428   2.547  14.127 -0.6872  0.3768  2.0291
 5291TIP3    H240069   4.376   2.405  14.136  0.9597 -0.5899 -1.7081
 5292TIP3   OH240070   2.093   5.908  17.452 -0.0460 -0.5199  0.2389
 5292TIP3    H140071   2.137   5.978  17.501  0.3739 -1.1245  0.7464
 5292TIP3    H240072   2.000   5.930  17.457  0.0502 -0.2157  0.7408
 5293TIP3   OH240073   4.967   2.276  17.064 -0.2071  0.1614  0.0633
 5293TIP3    H140074   4.948   2.213  16.995  0.9886  0.6390 -0.7376
 5293TIP3    H240075   4.881   2.312  17.088 -0.6228  0.2119 -1.4021
 5294TIP3   OH240076   0.608   2.128  15.471 -0.1036  0.0415  0.1517
 5294TIP3    H140077   0.682   2.184  15.493 -0.0137  0.0353 -0.1340
 5294TIP3    H240078   0.640   2.072  15.400 -0.7905  0.9411 -0.8989
 5295TIP3   OH240079   2.102   0.461  13.728 -0.1663 -0.7783 -0.3625
 5295TIP3    H140080   2.156   0.383  13.710 -0.6887 -0.8710 -1.7177
 5295TIP3    H240081   2.077   0.492  13.641 -0.0740  0.8523  0.1654
 5296TIP3   OH240082   3.352   6.284  16.480 -0.4367 -0.4925  0.1955
 5296TIP3    H140083   3.280   6.228  16.449 -0.1022 -1.1694  0.6143
 5296TIP3    H240084   3.311   6.340  16.546 -0.5700 -0.9385  0.4999
 5297TIP3   OH240085   1.504   2.981  16.949  0.2220  0.5153  0.5891
 5297TIP3    H140086   1.518   2.901  16.898 -2.6510  1.1982 -1.5729
 5297TIP3    H240087   1.528   2.957  17.039  1.3052 -2.1461 -0.3058
 5298TIP3   OH240088   1.521   0.279  14.382  0.1276 -0.4201 -0.0767
 5298TIP3    H140089   1.496   0.228  14.459 -0.0649 -1.2924 -0.7042
 5298TIP3    H240090   1.556   0.215  14.321 -0.2235  0.1841 -0.9317
 5299TIP3   OH240091   6.010   5.612  16.289 -0.5718 -0.2022  0.0075
 5299TIP3    H140092   6.049   5.592  16.203 -1.6582  0.1274 -0.5749
 5299TIP3    H240093   6.043   5.543  16.346  0.0802 -0.4964 -0.6989
 5300TIP3   OH240094   5.126   3.957  14.390  0.1356 -1.1660 -0.1746
 5300TIP3    H140095   5.036   3.931  14.371 -0.9522  2.2593 -0.3590
 5300TIP3    H240096   5.144   3.920  14.477 -2.5532  0.3893  1.1419
 5301TIP3   OH240097   2.447   6.331  15.310 -0.2010  0.6157  0.2428
 5301TIP3    H140098   2.429   6.309  15.219  1.1119 -0.0098  0.1122
 5301TIP3    H240099   2.504   6.408  15.305 -2.2217  2.2145  0.6256
 5302TIP3   OH240100   1.722   5.607  13.685 -0.0097  0.0532  0.3919
 5302TIP3    H140101   1.758   5.518  13.684  0.3064  0.1823 -0.4965
 5302TIP3    H240102   1.630   5.597  13.661 -0.2004 -0.1140  1.1509
 5303TIP3   OH240103   0.909   6.085  14.522  0.0279 -0.4502  0.2061
 5303TIP3    H140104   0.819   6.118  14.528  0.0189 -0.4457  0.0408
 5303TIP3    H240105   0.952   6.118  14.602 -0.2235 -0.7862  0.4789
 5304TIP3   OH240106   2.101   3.576  16.042  0.0655 -0.3937 -0.1320
 5304TIP3    H140107   2.136   3.496  16.002  0.4614 -0.7416  0.8613
 5304TIP3    H240108   2.081   3.550  16.132  1.6047  1.0015  0.6631
 5305TIP3   OH240109   3.556   5.017  13.904  0.6536  0.1993 -0.3246
 5305TIP3    H140110   3.581   5.109  13.894 -0.5102  0.6458  0.6932
 5305TIP3    H240111   3.585   4.995  13.992 -2.1088  0.6278  0.7607
 5306TIP3   OH240112   4.430   1.974  15.834  0.1812  0.9327 -0.3182
 5306TIP3    H140113   4.335   1.990  15.836  0.2384  1.2129  1.4930
 5306TIP3    H240114   4.446   1.938  15.747 -2.0734 -1.9587  0.2950
 5307TIP3   OH240115   2.468   5.311  14.238 -0.2135 -0.0947  0.0784
 5307TIP3    H140116   2.498   5.401  14.226 -0.6175  0.2889  1.7155
 5307TIP3    H240117   2.374   5.319  14.252 -0.4276 -0.8925 -0.8028
 5308TIP3   OH240118   2.988   6.564  17.389 -0.6326  0.1326  0.1223
 5308TIP3    H140119   3.073   6.604  17.369 -0.2694 -0.1101  1.0943
 5308TIP3    H240120   2.989   6.481  17.342  0.3263 -0.5654  1.2912
 5309TIP3   OH240121   3.198   6.087  16.114  0.1596 -0.1221  0.0190
 5309TIP3    H140122   3.282   6.122  16.145  0.2272  1.2890 -1.6287
 5309TIP3    H240123   3.140   6.163  16.112 -0.8852 -0.8943  0.1811
 5310TIP3   OH240124   0.737   1.291  15.189 -0.1477 -0.0824 -0.0437
 5310TIP3    H140125   0.755   1.198  15.203  0.1302  0.1149  0.9590
 5310TIP3    H240126   0.644   1.295  15.167 -0.4323 -0.4935  1.0313
 5311TIP3   OH240127   2.353   1.412  15.471 -0.6370  0.5404 -0.4791
 5311TIP3    H140128   2.373   1.475  15.540 -1.9402  0.7983 -0.3210
 5311TIP3    H240129   2.315   1.464  15.400  1.4287  0.4122 -1.7846
 5312TIP3   OH240130   2.412   3.198  16.385 -0.6657  0.4980  0.3069
 5312TIP3    H140131   2.433   3.237  16.300 -1.7706 -0.3688 -0.3915
 5312TIP3    H240132   2.497   3.188  16.428 -0.0062  0.3023 -0.9839
 5313TIP3   OH240133   0.404   0.637  16.141  0.5338  0.4645 -0.4100
 5313TIP3    H140134   0.407   0.732  16.156  0.7282  0.3736  0.1459
 5313TIP3    H240135   0.457   0.624  16.062 -0.2818  0.9214 -1.0490
 5314TIP3   OH240136   5.926   5.971  15.668 -0.0556  0.0934 -0.3898
 5314TIP3    H140137   5.954   5.955  15.758  0.6653  2.3968 -0.1444
 5314TIP3    H240138   5.848   6.026  15.676 -0.4979 -0.3754 -1.1982
 5315TIP3   OH240139   2.197   0.788  15.670  0.5298 -0.4534 -0.1486
 5315TIP3    H140140   2.120   0.815  15.619  0.5614  0.3537  0.2323
 5315TIP3    H240141   2.211   0.859  15.732  0.3610 -1.5181  1.1527
 5316TIP3   OH240142   1.707   4.129  16.030  0.3622 -0.3117  0.9373
 5316TIP3    H140143   1.755   4.101  16.107  0.2581  0.2148  1.1991
 5316TIP3    H240144   1.654   4.053  16.005 -0.9411  0.0506  2.4251
 5317TIP3   OH240145   4.841   5.689  15.138  0.1419 -0.4279 -0.0815
 5317TIP3    H140146   4.883   5.708  15.222  0.9662  0.6641 -0.7192
 5317TIP3    H240147   4.831   5.594  15.137  1.8423 -0.6436  0.4710
 5318TIP3   OH240148   5.625   4.324  16.573 -0.2134  0.3826  0.6819
 5318TIP3    H140149   5.685   4.341  16.500 -0.3051  0.1385  0.5480
 5318TIP3    H240150   5.613   4.229  16.572  0.4908  0.2648  1.5758
 5319TIP3   OH240151   0.446   2.513  16.410 -0.0168 -0.1247 -0.6529
 5319TIP3    H140152   0.452   2.510  16.506 -1.1779  0.4997 -0.5515
 5319TIP3    H240153   0.527   2.556  16.382  0.5125 -0.6642  0.0131
 5320TIP3   OH240154   4.664   1.438  13.528  0.6583  0.1633  0.1251
 5320TIP3    H140155   4.752   1.407  13.549  0.5034 -0.4019 -0.0353
 5320TIP3    H240156   4.617   1.359  13.502  0.1622  0.4946  0.0110
 5321TIP3   OH240157   4.526   1.310  16.002 -0.3587  0.2002  0.0207
 5321TIP3    H140158   4.521   1.343  15.912  2.3390  1.0184  0.0957
 5321TIP3    H240159   4.602   1.251  16.002 -0.5323 -0.0626  1.6926
 5322TIP3   OH240160   4.242   5.594  15.727  0.3388 -0.1882 -0.0068
 5322TIP3    H140161   4.200   5.661  15.674 -1.2251 -1.0596  0.0876
 5322TIP3    H240162   4.251   5.634  15.814 -0.4347 -0.0447  0.0085
 5323TIP3   OH240163   3.520   2.998  16.596  0.1974  0.0263 -0.3080
 5323TIP3    H140164   3.606   2.975  16.631 -0.0237  0.2548  0.3902
 5323TIP3    H240165   3.482   3.055  16.661 -1.2835 -1.6266  0.3505
 5324TIP3   OH240166   3.992   4.444  16.801  0.0515 -0.0088 -0.1759
 5324TIP3    H140167   4.031   4.412  16.720 -0.5283 -0.5545 -0.2563
 5324TIP3    H240168   3.953   4.366  16.840 -0.4790  0.4200  0.1616
 5325TIP3   OH240169   3.212   0.576  16.064 -0.4287 -0.0848  0.0957
 5325TIP3    H140170   3.264   0.638  16.012  0.7210 -0.3084  0.9296
 5325TIP3    H240171   3.246   0.490  16.039 -0.3389 -0.2311  0.6950
 5326TIP3   OH240172   3.067   4.196  14.431  0.1104 -0.1828  0.0508
 5326TIP3    H140173   3.144   4.246  14.406  1.3732 -1.4000  1.3010
 5326TIP3    H240174   3.007   4.205  14.357  1.8928 -0.1317 -1.4479
 5327TIP3   OH240175   1.844   5.486  15.386  0.0068 -0.0780  0.4541
 5327TIP3    H140176   1.848   5.575  15.348 -1.1282 -0.5873 -0.9581
 5327TIP3    H240177   1.779   5.493  15.456 -0.2008  0.1901  0.2422
 5328TIP3   OH240178   5.834   4.927  14.674 -0.3748  0.4344  0.2010
 5328TIP3    H140179   5.786   4.892  14.749  0.2503 -0.5016  0.1877
 5328TIP3    H240180   5.926   4.905  14.691  0.0081  1.8223  0.0258
 5329TIP3   OH240181   6.357   4.826  15.613  0.1802 -0.0099  0.2319
 5329TIP3    H140182   6.369   4.892  15.682  0.6752 -0.3740  0.5029
 5329TIP3    H240183   6.442   4.784  15.605  0.4613  0.8134 -1.4438
 5330TIP3   OH240184   1.166   6.589  15.860  0.2609 -0.1310  0.1799
 5330TIP3    H140185   1.168   6.676  15.898 -0.4639  0.0397 -0.1488
 5330TIP3    H240186   1.248   6.581  15.813  0.4670  0.2535  0.4716
 5331TIP3   OH240187   0.197   3.840  15.699  0.0758 -0.1344 -0.4820
 5331TIP3    H140188   0.179   3.933  15.689  0.3501  0.0461  0.5670
 5331TIP3    H240189   0.128   3.796  15.649 -1.1639  0.6037  0.5375
 5332TIP3   OH240190   0.821   5.448  13.965  0.8250  0.3122 -0.1964
 5332TIP3    H140191   0.766   5.371  13.959  0.1682  0.6422  1.3749
 5332TIP3    H240192   0.809   5.493  13.881 -0.6177 -0.0688 -0.2037
 5333TIP3   OH240193   5.732   1.778  15.785 -0.0447 -0.2656  0.1511
 5333TIP3    H140194   5.659   1.811  15.732 -1.5486 -2.0768  0.9471
 5333TIP3    H240195   5.775   1.714  15.729 -0.1835 -0.4897  0.2998
 5334TIP3   OH240196   5.690   2.747  14.365 -0.3119 -0.3607 -0.5023
 5334TIP3    H140197   5.723   2.815  14.424 -0.0768 -0.2253 -0.7904
 5334TIP3    H240198   5.713   2.665  14.408 -3.2223 -0.3439  1.4034
 5335TIP3   OH240199   4.786   0.692  15.785 -0.1933 -0.1298  0.4497
 5335TIP3    H140200   4.851   0.759  15.764 -1.6029  1.0280 -0.4601
 5335TIP3    H240201   4.796   0.677  15.879  2.6782 -1.4671  0.0344
 5336TIP3   OH240202   3.281   5.490  14.194  0.1017 -0.1835 -0.0061
 5336TIP3    H140203   3.350   5.425  14.180  0.5329  0.3236 -0.2459
 5336TIP3    H240204   3.284   5.507  14.288  1.5566  1.1877 -0.2510
 5337TIP3   OH240205   0.241   2.147  14.598  0.0806 -0.5752 -0.5269
 5337TIP3    H140206   0.213   2.168  14.509 -0.5464 -0.1773 -0.2492
 5337TIP3    H240207   0.311   2.209  14.617  1.3355 -1.7076 -1.3001
 5338TIP3   OH240208   4.807   3.192  15.456  0.0829  0.1262  0.1376
 5338TIP3    H140209   4.836   3.116  15.505  2.6878  1.2463  0.5334
 5338TIP3    H240210   4.807   3.263  15.520 -1.0042  0.7278 -0.5038
 5339TIP3   OH240211   5.540   0.836  14.214  0.1184 -0.4873 -0.6909
 5339TIP3    H140212   5.555   0.821  14.307 -0.6336 -0.2188 -0.5181
 5339TIP3    H240213   5.574   0.925  14.198  0.6099 -0.6839 -0.7667
 5340TIP3   OH240214   2.819   6.504  14.900 -0.1176 -0.3752  0.1959
 5340TIP3    H140215   2.733   6.464  14.886  0.2488 -1.3081  0.5291
 5340TIP3    H240216   2.833   6.559  14.822 -0.9236 -0.3660  0.0493
 5341TIP3   OH240217   6.556   5.650  15.705  0.0589 -0.4632  0.1477
 5341TIP3    H140218   6.579   5.570  15.752  0.0576  0.3444  1.5854
 5341TIP3    H240219   6.577   5.631  15.613  0.1919 -2.0404  0.4704
 5342TIP3   OH240220   6.305   3.870  15.289  0.3739 -0.0564 -0.3414
 5342TIP3    H140221   6.274   3.803  15.228 -0.3992 -0.0587  0.0430
 5342TIP3    H240222   6.264   3.848  15.373  0.4943  0.6232 -0.0928
 5343TIP3   OH240223   6.073   0.176  15.146 -0.0570 -0.5358 -0.1743
 5343TIP3    H140224   6.145   0.115  15.161 -0.7609 -1.2171  0.5266
 5343TIP3    H240225   6.016   0.165  15.222  0.0962  1.4473  0.2727
 5344TIP3   OH240226   0.788   4.743  14.552  0.1023  0.6014 -0.0711
 5344TIP3    H140227   0.727   4.807  14.515  0.0148 -0.1791 -1.3329
 5344TIP3    H240228   0.875   4.781  14.536  0.0527  0.4069 -0.8300
 5345TIP3   OH240229   4.128   1.036  16.012 -0.1967 -0.1176 -0.2742
 5345TIP3    H140230   4.123   1.109  15.950 -1.5626  0.9665  1.0406
 5345TIP3    H240231   4.220   1.032  16.037  0.0946  0.4125 -1.2085
 5346TIP3   OH240232   4.100   0.275  14.345  0.4476 -0.4522  0.5895
 5346TIP3    H140233   4.173   0.278  14.406 -0.0320 -0.1335  1.1658
 5346TIP3    H240234   4.026   0.243  14.397 -0.1674  0.5936  0.4071
 5347TIP3   OH240235   0.880   0.053  16.645  0.3379  0.0818  0.0623
 5347TIP3    H140236   0.873  -0.036  16.612  0.4663 -0.2423  0.8784
 5347TIP3    H240237   0.824   0.105  16.588  0.1338 -0.5511 -0.3176
 5348TIP3   OH240238   2.492   6.387  13.435 -0.8469 -0.2862  0.0072
 5348TIP3    H140239   2.398   6.388  13.420 -0.7754 -1.9993 -0.7260
 5348TIP3    H240240   2.529   6.352  13.354  0.7078  2.9581 -0.8869
 5349TIP3   OH240241   6.401   5.813  14.540  0.4218 -0.5084  0.0944
 5349TIP3    H140242   6.439   5.762  14.612  0.9197 -0.5970 -0.2272
 5349TIP3    H240243   6.341   5.874  14.583  0.8067 -0.4767  0.5969
 5350TIP3   OH240244   6.186   6.709  14.316 -0.1934 -0.3692 -0.7987
 5350TIP3    H140245   6.249   6.674  14.379 -1.2031 -2.3555 -0.8171
 5350TIP3    H240246   6.154   6.790  14.357  0.2912 -0.8166  0.5123
 5351TIP3   OH240247   3.834   6.239  14.161  0.4855  0.0597 -0.1960
 5351TIP3    H140248   3.774   6.297  14.208  1.8607  1.4776 -0.0950
 5351TIP3    H240249   3.918   6.285  14.164  0.8954 -0.3535 -3.0249
 5352TIP3   OH240250   0.418   6.327  17.157 -0.1673 -0.4406  0.3669
 5352TIP3    H140251   0.416   6.398  17.093 -1.0630  0.7005  1.6032
 5352TIP3    H240252   0.355   6.263  17.123 -0.3332 -0.0322 -0.1038
 5353TIP3   OH240253   2.805   1.365  13.730  0.3508  0.0769 -0.4029
 5353TIP3    H140254   2.763   1.451  13.726  2.6052  1.1887 -1.6534
 5353TIP3    H240255   2.877   1.376  13.792  0.3442 -1.0901 -0.1657
 5354TIP3   OH240256   4.573   5.282  15.432  0.1112  0.5384  0.3395
 5354TIP3    H140257   4.514   5.327  15.493 -0.5379 -0.5846  0.5762
 5354TIP3    H240258   4.559   5.189  15.450  0.6815  0.2122 -0.8139
 5355TIP3   OH240259   0.647   2.094  15.852  0.4688  0.1903 -0.0458
 5355TIP3    H140260   0.688   2.168  15.807 -0.2300  0.4961 -0.2000
 5355TIP3    H240261   0.694   2.018  15.819  0.2532  0.4433 -0.9916
 5356TIP3   OH240262   6.286   5.441  13.330  0.0908  0.0497  0.4143
 5356TIP3    H140263   6.300   5.535  13.343  0.8604 -0.0726  0.5164
 5356TIP3    H240264   6.216   5.436  13.264  1.5222  0.7383 -1.2547
 5357TIP3   OH240265   5.096   6.511  16.440  0.5773 -0.0049  0.0208
 5357TIP3    H140266   5.018   6.461  16.464  0.4505 -0.4759 -1.2468
 5357TIP3    H240267   5.114   6.484  16.350  0.9891  1.6551 -0.4315
 5358TIP3   OH240268   3.865   0.196  14.493  0.0729 -0.0112  0.0471
 5358TIP3    H140269   3.855   0.206  14.587  0.8951  1.7865 -0.0152
 5358TIP3    H240270   3.777   0.176  14.461 -0.2977 -0.1725  1.1481
 5359TIP3   OH240271   5.654   4.196  16.931 -0.0725  0.0035 -0.1706
 5359TIP3    H140272   5.653   4.143  17.011 -1.1638 -3.3461 -2.1730
 5359TIP3    H240273   5.579   4.255  16.940 -1.5278 -1.8283  0.4410
 5360TIP3   OH240274   6.659   3.083  16.660 -1.1589  0.5543  0.0135
 5360TIP3    H140275   6.751   3.062  16.672 -1.3658 -0.0427  0.6552
 5360TIP3    H240276   6.657   3.176  16.639 -0.3540  0.3854 -0.8643
 5361TIP3   OH240277   5.872   0.289  14.698  0.6787 -0.2685 -0.4851
 5361TIP3    H140278   5.939   0.255  14.758 -0.9737  0.0911  1.7284
 5361TIP3    H240279   5.818   0.213  14.677  0.4579 -0.1455 -0.3702
 5362TIP3   OH240280   2.668   2.365  16.400 -0.5479  0.3042  0.0913
 5362TIP3    H140281   2.630   2.378  16.487 -2.4147  0.6576 -0.7388
 5362TIP3    H240282   2.691   2.272  16.398 -0.8603  0.2045  0.8043
 5363TIP3   OH240283   4.230   3.076  15.763  0.5369  0.1504  0.2514
 5363TIP3    H140284   4.165   3.145  15.747  0.6101  0.3215  0.6659
 5363TIP3    H240285   4.181   2.994  15.755  0.3972  0.2582 -0.0077
 5364TIP3   OH240286   3.477   1.215  16.978  1.0924 -0.1217 -0.6908
 5364TIP3    H140287   3.511   1.159  16.908  0.5685  0.4990 -1.4560
 5364TIP3    H240288   3.544   1.211  17.046  2.2663  0.3387 -1.7792
 5365TIP3   OH240289   3.347   5.515  15.084 -0.1444  0.1612 -0.1933
 5365TIP3    H140290   3.281   5.490  15.019 -0.1107  0.5271 -0.3741
 5365TIP3    H240291   3.410   5.443  15.083  1.1958  1.2252 -2.3991
 5366TIP3   OH240292   3.448   2.319  16.555 -0.1673  0.3732  0.0214
 5366TIP3    H140293   3.369   2.292  16.510  1.0869 -0.4190 -1.8152
 5366TIP3    H240294   3.453   2.414  16.543 -0.5813  0.3551 -0.2663
 5367TIP3   OH240295   1.712   6.126  17.187  0.3785 -0.6670  0.2888
 5367TIP3    H140296   1.708   6.122  17.091  1.2688 -1.4351  0.2741
 5367TIP3    H240297   1.642   6.187  17.211 -1.1602 -1.9741 -0.7181
 5368TIP3   OH240298   0.934   4.274  15.803  0.1671  0.7224 -0.5087
 5368TIP3    H140299   0.948   4.325  15.723 -0.1589  0.9361 -0.4305
 5368TIP3    H240300   0.840   4.280  15.819 -0.3370 -2.0850 -1.9486
 5369TIP3   OH240301   1.462   3.105  16.519 -0.2452  0.8299  0.2352
 5369TIP3    H140302   1.555   3.105  16.543 -0.4388  1.3007  0.9994
 5369TIP3    H240303   1.415   3.101  16.602 -0.9703 -3.9815 -0.1202
 5370TIP3   OH240304   2.489   1.180  15.311 -0.0328 -0.1387 -0.1665
 5370TIP3    H140305   2.512   1.263  15.353  1.8515  0.9986 -3.1885
 5370TIP3    H240306   2.401   1.194  15.276  0.7577  1.1148 -1.7520
 5371TIP3   OH240307   5.969   0.257  16.773  0.3276 -0.2036  0.0303
 5371TIP3    H140308   5.883   0.225  16.745 -0.7038 -0.1314  2.8133
 5371TIP3    H240309   5.999   0.311  16.700 -1.2590 -1.4739 -1.6677
 5372TIP3   OH240310   4.535   4.058  16.485  0.5898 -0.2836  0.0905
 5372TIP3    H140311   4.562   4.016  16.403 -0.4773  0.7234 -0.8033
 5372TIP3    H240312   4.597   4.130  16.497  0.6795 -0.3645  0.1111
 5373TIP3   OH240313   5.553   2.573  15.799 -0.3629  0.1630 -0.1927
 5373TIP3    H140314   5.631   2.539  15.754  0.5506  0.3426  1.1978
 5373TIP3    H240315   5.558   2.668  15.786 -0.9809  0.0890 -1.0550
 5374TIP3   OH240316   2.800   5.999  15.796  0.3409 -0.5719 -0.2045
 5374TIP3    H140317   2.781   6.075  15.742  0.3182 -0.0207  0.5544
 5374TIP3    H240318   2.885   6.019  15.836 -0.0843 -0.5328  0.6969
 5375TIP3   OH240319   3.353   3.041  15.450 -0.1054  0.5348 -0.3946
 5375TIP3    H140320   3.442   3.015  15.477 -0.3787 -1.1810 -0.9827
 5375TIP3    H240321   3.314   3.078  15.529  1.1840  1.4845 -0.1746
 5376TIP3   OH240322   3.631   3.882  16.561 -0.3034  0.3961 -0.1317
 5376TIP3    H140323   3.682   3.839  16.492  0.5924  2.2594 -0.7315
 5376TIP3    H240324   3.541   3.880  16.528 -0.1627 -0.3147 -0.4990
 5377TIP3   OH240325   2.772   1.249  14.477  0.1581  0.0158  0.6633
 5377TIP3    H140326   2.718   1.177  14.511 -1.1940  0.2738 -0.8247
 5377TIP3    H240327   2.722   1.327  14.498 -0.5483  0.2077 -1.5017
 5378TIP3   OH240328   1.809   0.251  17.058  0.2207  0.3910 -0.1110
 5378TIP3    H140329   1.904   0.260  17.063  0.1414  1.2668 -0.0291
 5378TIP3    H240330   1.776   0.316  17.120 -0.4504  1.0041 -1.0900
 5379TIP3   OH240331   2.337   1.966  16.509  0.0236 -0.4081 -0.5251
 5379TIP3    H140332   2.314   2.017  16.586 -0.5621 -1.4839  0.0429
 5379TIP3    H240333   2.308   1.877  16.530  1.1447 -1.0131 -1.4123
 5380TIP3   OH240334   0.752   2.370  16.498 -0.3189  0.2854  0.0163
 5380TIP3    H140335   0.814   2.355  16.426 -1.9424 -0.1255 -1.3389
 5380TIP3    H240336   0.721   2.459  16.486 -1.8198 -0.3123 -0.8187
 5381TIP3   OH240337   0.279   0.697  14.971  0.1568  0.0963  0.8549
 5381TIP3    H140338   0.259   0.615  14.926  0.3833  0.5235 -0.0365
 5381TIP3    H240339   0.255   0.680  15.062 -0.5518 -0.6872  0.5359
 5382TIP3   OH240340   5.041   4.612  15.283 -0.3117  0.0422  0.1265
 5382TIP3    H140341   4.984   4.690  15.278 -0.1345  0.1338 -0.5882
 5382TIP3    H240342   5.120   4.638  15.236 -0.4338 -0.7210 -0.5164
 5383TIP3   OH240343   1.592   0.355  16.131 -0.6510 -0.0913  0.4474
 5383TIP3    H140344   1.614   0.448  16.140 -1.2402  0.1104 -0.0706
 5383TIP3    H240345   1.577   0.325  16.221 -0.5326  0.3376  0.6133
 5384TIP3   OH240346   0.911   2.753  15.595 -0.7617 -0.1229  0.5438
 5384TIP3    H140347   0.862   2.829  15.625  0.2788  0.9989 -0.5076
 5384TIP3    H240348   0.964   2.785  15.522  0.2783 -1.6772  0.5592
 5385TIP3   OH240349   6.150   4.397  14.627  0.3151 -0.3079 -0.0617
 5385TIP3    H140350   6.168   4.392  14.721  1.4106 -0.9616 -0.2839
 5385TIP3    H240351   6.086   4.467  14.618  0.9444  0.4390  1.0722
 5386TIP3   OH240352   0.090   0.857  15.409  0.6648  0.4451  0.3044
 5386TIP3    H140353   0.133   0.916  15.346  0.4397 -0.3025 -0.5602
 5386TIP3    H240354  -0.002   0.860  15.386  0.6869 -0.4484  0.0846
 5387TIP3   OH240355   6.591   4.342  15.194 -0.0987  0.2020 -0.4435
 5387TIP3    H140356   6.529   4.414  15.181 -0.0032  0.0950 -1.6179
 5387TIP3    H240357   6.558   4.272  15.138  0.5855 -0.1798 -0.3767
 5388TIP3   OH240358   3.627   1.069  14.615 -0.0627 -0.9915  0.0092
 5388TIP3    H140359   3.575   0.996  14.649  0.2347 -1.5991 -0.7799
 5388TIP3    H240360   3.563   1.133  14.584 -0.3335 -1.3029 -0.0767
 5389TIP3   OH240361   6.514   6.036  15.824  0.6558  0.2678 -0.2286
 5389TIP3    H140362   6.535   5.946  15.847 -1.1275 -0.3908 -1.0427
 5389TIP3    H240363   6.419   6.043  15.836  0.7041  1.9160 -0.5679
 5390TIP3   OH240364   1.000   1.268  13.327 -0.0301  0.1009 -0.5382
 5390TIP3    H140365   1.068   1.329  13.298 -0.6873  1.3199  0.3884
 5390TIP3    H240366   0.919   1.320  13.324 -0.0982  0.6914  4.2422
 5391TIP3   OH240367   2.351   2.384   7.900  0.0915 -0.3894 -0.4229
 5391TIP3    H140368   2.266   2.358   7.936 -0.0931  1.9393  1.0365
 5391TIP3    H240369   2.406   2.306   7.908 -1.3396 -1.3522  0.4392
 5392TIP3   OH240370   3.812   3.120   5.524  0.6398  0.0243  0.1738
 5392TIP3    H140371   3.842   3.036   5.558  0.9627 -0.4636 -1.2602
 5392TIP3    H240372   3.870   3.139   5.450 -1.1867  0.1096 -1.3174
 5393TIP3   OH240373   2.563   1.013   7.669 -0.2079 -0.2620  0.5494
 5393TIP3    H140374   2.635   0.959   7.638 -0.7405 -0.8610  0.3261
 5393TIP3    H240375   2.589   1.041   7.757  0.1725 -0.6923  0.5753
 5394TIP3   OH240376   3.152   4.466   9.132 -0.3209 -0.6106  0.0247
 5394TIP3    H140377   3.161   4.556   9.162  0.8468 -0.6735 -0.0942
 5394TIP3    H240378   3.069   4.465   9.085 -1.2013 -0.0326  1.5001
 5395TIP3   OH240379   2.114   2.338   7.705 -0.3756  0.2190 -0.1839
 5395TIP3    H140380   2.165   2.305   7.631  1.1974 -1.9588  1.7037
 5395TIP3    H240381   2.172   2.404   7.745 -0.9362  0.8987 -0.4706
 5396TIP3   OH240382   1.612   2.477   9.307 -0.1704  0.0997 -0.0227
 5396TIP3    H140383   1.690   2.461   9.254 -0.3347  0.8171 -0.4849
 5396TIP3    H240384   1.538   2.457   9.249 -0.3448 -0.4173  0.3621
 5397TIP3   OH240385   4.382   0.935   7.168 -0.6553 -0.4185 -0.1540
 5397TIP3    H140386   4.477   0.941   7.174 -0.6312 -0.5166 -0.4218
 5397TIP3    H240387   4.357   0.874   7.237 -0.5404 -0.2543  0.0327
 5398TIP3   OH240388   4.555   5.663   7.256  0.5951 -0.4172 -0.0666
 5398TIP3    H140389   4.638   5.617   7.250 -0.0820 -1.5561 -1.0852
 5398TIP3    H240390   4.577   5.746   7.299  1.7902 -1.7688  2.1707
 5399TIP3   OH240391   6.174   6.453   5.506 -0.3390 -0.3523  0.3905
 5399TIP3    H140392   6.232   6.493   5.441  0.1613 -0.5788  0.6965
 5399TIP3    H240393   6.192   6.501   5.587 -0.7601 -0.2579  0.4342
 5400TIP3   OH240394   2.006   0.340   6.749 -0.0070  0.9527  0.0819
 5400TIP3    H140395   2.039   0.380   6.669 -2.5424  3.4092  0.1081
 5400TIP3    H240396   2.055   0.382   6.819  0.6305  0.4948 -0.0878
 5401TIP3   OH240397   0.507   1.977   5.803 -0.1323  0.1966 -0.2023
 5401TIP3    H140398   0.562   2.018   5.870 -1.0776  0.2451  0.5583
 5401TIP3    H240399   0.485   1.891   5.840 -0.9555  0.3629 -0.2843
 5402TIP3   OH240400   2.934   2.682   7.743  0.2382 -0.0751  0.7806
 5402TIP3    H140401   2.886   2.747   7.793 -1.2781 -1.4205  1.1503
 5402TIP3    H240402   2.908   2.696   7.653 -1.6363 -1.3697  1.0739
 5403TIP3   OH240403   2.147   0.623   6.426  0.1741 -0.4303  0.3854
 5403TIP3    H140404   2.155   0.685   6.498 -0.6227 -1.0002  0.9916
 5403TIP3    H240405   2.196   0.546   6.455 -0.9138 -1.0097  0.7461
 5404TIP3   OH240406   5.120   2.360   7.154 -0.1518  0.2464  0.4534
 5404TIP3    H140407   5.050   2.294   7.157 -0.6656  0.8041  2.8824
 5404TIP3    H240408   5.124   2.386   7.062 -1.8393 -1.1748 -0.0865
 5405TIP3   OH240409   6.035   5.948   5.756 -0.0034 -0.6174  0.1513
 5405TIP3    H140410   6.106   6.012   5.757 -0.0026 -0.5542 -1.3182
 5405TIP3    H240411   5.991   5.958   5.840  0.5490  0.6925  0.2933
 5406TIP3   OH240412   1.592   5.581   7.548  0.0743  0.1435 -0.2939
 5406TIP3    H140413   1.599   5.675   7.534  0.3101  0.0537 -0.8103
 5406TIP3    H240414   1.646   5.563   7.625 -0.7633  0.5679  0.4013
 5407TIP3   OH240415   3.394   0.113   5.535 -0.1703  0.2998  0.0021
 5407TIP3    H140416   3.349   0.180   5.484  1.2742  1.5580  0.3212
 5407TIP3    H240417   3.486   0.123   5.513  0.3035 -0.2169  1.5930
 5408TIP3   OH240418   6.537   5.123   7.249  0.2865 -0.1923 -0.5313
 5408TIP3    H140419   6.584   5.185   7.193  0.2074  1.6086  1.2647
 5408TIP3    H240420   6.445   5.132   7.224  0.4214 -0.6275 -1.2069
 5409TIP3   OH240421   5.125   2.513   6.893 -0.5705  0.3924 -0.2277
 5409TIP3    H140422   5.102   2.599   6.928 -0.1828 -0.2624  1.7981
 5409TIP3    H240423   5.207   2.527   6.846 -0.2726  1.0722  0.4686
 5410TIP3   OH240424   2.713   1.754   8.875 -0.1026  0.3095 -0.2515
 5410TIP3    H140425   2.667   1.742   8.792  0.4243  0.3630 -0.5521
 5410TIP3    H240426   2.644   1.747   8.942 -0.4688 -0.1132 -0.6670
 5411TIP3   OH240427   4.789   1.745   6.415 -0.1199 -0.2020 -0.1930
 5411TIP3    H140428   4.742   1.786   6.341 -2.6715 -0.3667  1.2076
 5411TIP3    H240429   4.742   1.662   6.429  0.1392 -0.0617  1.7351
 5412TIP3   OH240430   4.346   1.652   6.134  0.7313  0.0700  0.2103
 5412TIP3    H140431   4.254   1.678   6.125  1.2040  2.1910  0.8503
 5412TIP3    H240432   4.379   1.649   6.044  0.1096 -0.4260 -0.0066
 5413TIP3   OH240433   0.980   6.371   6.089 -0.2861  0.5574 -0.1375
 5413TIP3    H140434   1.025   6.456   6.083  0.5980  0.3376  2.2762
 5413TIP3    H240435   0.893   6.387   6.051  0.0271  2.4075 -0.1690
 5414TIP3   OH240436   5.869   6.267   6.320 -0.8952  0.7738 -0.0621
 5414TIP3    H140437   5.860   6.360   6.344  0.4567  0.5079  1.7363
 5414TIP3    H240438   5.964   6.251   6.326 -1.3203 -1.3964  2.6590
 5415TIP3   OH240439   2.708   0.318   8.407 -0.0019 -0.7098  0.1246
 5415TIP3    H140440   2.775   0.279   8.464  1.3059  0.2742 -0.6985
 5415TIP3    H240441   2.670   0.243   8.361  0.8376 -1.2464  0.2808
 5416TIP3   OH240442   1.160   5.989   6.235 -0.1164  0.4914 -0.7037
 5416TIP3    H140443   1.198   5.910   6.197 -0.6485 -0.5644  0.8957
 5416TIP3    H240444   1.104   6.025   6.165  0.1498 -0.5021 -1.4516
 5417TIP3   OH240445   4.800   5.545   7.275  0.2897 -0.0185  0.0760
 5417TIP3    H140446   4.827   5.453   7.277 -2.5175 -0.9323  2.7706
 5417TIP3    H240447   4.855   5.588   7.341 -1.2624 -0.7659  1.9140
 5418TIP3   OH240448   2.117   5.911   7.483  0.5096 -0.2159 -0.1275
 5418TIP3    H140449   2.135   5.909   7.577  0.5908 -1.4685 -0.1567
 5418TIP3    H240450   2.204   5.909   7.442  0.5632  2.1040 -0.2549
 5419TIP3   OH240451   0.131   1.373   7.867  0.2004  0.8612  0.2434
 5419TIP3    H140452   0.145   1.424   7.788  1.6816  0.7291  0.4053
 5419TIP3    H240453   0.206   1.313   7.872 -1.5201 -1.4881 -0.0281
 5420TIP3   OH240454   1.554   3.566   6.290 -0.1300  0.3308 -0.0868
 5420TIP3    H140455   1.620   3.609   6.236  1.1065 -0.9808  0.3084
 5420TIP3    H240456   1.575   3.473   6.283 -0.6612  0.0469  1.7102
 5421TIP3   OH240457   1.938   3.130   7.116 -0.3733  0.3361  0.4612
 5421TIP3    H140458   1.897   3.068   7.176  0.5989 -1.3075 -0.5063
 5421TIP3    H240459   1.981   3.194   7.172 -0.5875 -0.4089  1.5003
 5422TIP3   OH240460   2.484   5.146   5.753  0.0611 -0.0469 -0.1384
 5422TIP3    H140461   2.460   5.189   5.835 -1.2351 -0.1642 -0.4351
 5422TIP3    H240462   2.483   5.053   5.774 -0.0709 -0.0666 -0.2273
 5423TIP3   OH240463   0.884   2.305   6.991  0.4225 -0.0224  0.1547
 5423TIP3    H140464   0.955   2.311   6.928  0.1649  2.2198  0.0150
 5423TIP3    H240465   0.908   2.231   7.048  2.9428  0.7615  0.2117
 5424TIP3   OH240466   4.304   2.280   7.157 -0.1821 -0.8256 -0.4538
 5424TIP3    H140467   4.329   2.363   7.197  0.9008 -0.9577 -0.8270
 5424TIP3    H240468   4.290   2.300   7.064  1.4769 -1.3058 -0.8319
 5425TIP3   OH240469   2.896   4.143   6.662 -0.0442 -0.1473 -0.4818
 5425TIP3    H140470   2.887   4.228   6.705  0.0101 -0.2670 -0.2311
 5425TIP3    H240471   2.985   4.141   6.628  0.2714 -0.4898  0.3519
 5426TIP3   OH240472   4.854   5.108   5.341 -0.3249  0.3835 -0.0745
 5426TIP3    H140473   4.833   5.058   5.263 -1.1434 -0.8358  0.8935
 5426TIP3    H240474   4.949   5.098   5.352 -0.2458  0.3808 -0.7744
 5427TIP3   OH240475   0.800   4.532   7.486 -0.0938 -0.6857 -0.5265
 5427TIP3    H140476   0.889   4.510   7.514 -0.1377  0.6777  0.8178
 5427TIP3    H240477   0.800   4.518   7.391  1.1063 -2.1014 -0.3536
 5428TIP3   OH240478   3.335   6.161   7.574  0.1767 -0.5595  0.7022
 5428TIP3    H140479   3.326   6.085   7.516  0.1537  0.5953 -0.8605
 5428TIP3    H240480   3.387   6.224   7.524 -1.4799  1.2446  1.1163
 5429TIP3   OH240481   5.144   1.978   6.380  0.1739 -0.2450 -0.5736
 5429TIP3    H140482   5.166   2.053   6.324  4.3747 -0.8201 -0.0728
 5429TIP3    H240483   5.188   1.998   6.463 -2.1987 -1.4308  1.0588
 5430TIP3   OH240484   1.849   5.962   7.709  0.5413 -0.0786 -0.3748
 5430TIP3    H140485   1.940   5.938   7.728  0.0217 -2.3208 -0.3808
 5430TIP3    H240486   1.812   5.987   7.794  0.3136 -2.4597  0.3012
 5431TIP3   OH240487   4.506   0.280   6.978  0.1546  0.2624 -0.2200
 5431TIP3    H140488   4.449   0.345   7.018 -0.3509 -1.5341  2.1858
 5431TIP3    H240489   4.515   0.211   7.044  1.2278 -1.7970 -2.3561
 5432TIP3   OH240490   5.042   2.716   8.873  0.0054  0.0579 -0.1671
 5432TIP3    H140491   5.022   2.655   8.944  3.3578 -1.2124 -0.1039
 5432TIP3    H240492   4.989   2.793   8.891 -0.2194 -0.7051  2.9947
 5433TIP3   OH240493   1.735   4.472   7.048  0.2992  0.1757  0.2362
 5433TIP3    H140494   1.815   4.480   7.101 -0.4357  0.6728  1.3023
 5433TIP3    H240495   1.737   4.383   7.015  0.5977 -0.2733  1.4156
 5434TIP3   OH240496   6.238   4.871   7.276  0.7427  0.0603  0.6008
 5434TIP3    H140497   6.235   4.963   7.248 -0.0495 -0.3143 -0.6124
 5434TIP3    H240498   6.308   4.833   7.224  1.3370  0.0517  1.3914
 5435TIP3   OH240499   5.377   0.335   8.067  0.3155 -0.3699 -0.0603
 5435TIP3    H140500   5.283   0.320   8.063  0.1852  0.5248 -0.3997
 5435TIP3    H240501   5.395   0.396   7.996  1.0443  0.0410  0.4678
 5436TIP3   OH240502   0.695   6.108   7.156  0.1546  0.6339 -0.2294
 5436TIP3    H140503   0.728   6.180   7.211 -0.8818 -0.2521  1.6845
 5436TIP3    H240504   0.652   6.049   7.219 -2.1503  0.1230 -2.1490
 5437TIP3   OH240505   2.186   6.598   8.204  0.2197 -0.1225  0.7016
 5437TIP3    H140506   2.231   6.670   8.249 -0.7931  1.0033 -0.0275
 5437TIP3    H240507   2.236   6.584   8.124 -1.1977  1.8537 -0.6446
 5438TIP3   OH240508   5.263   2.294   8.264  0.1288  0.1651  0.0366
 5438TIP3    H140509   5.264   2.255   8.352  0.0752 -1.0893 -0.4902
 5438TIP3    H240510   5.346   2.266   8.225 -0.3598 -0.2855 -0.7092
 5439TIP3   OH240511   2.409   1.315   7.383 -0.1143  0.2125 -0.0164
 5439TIP3    H140512   2.377   1.395   7.425 -2.1748 -0.1179 -0.8333
 5439TIP3    H240513   2.406   1.335   7.289  2.2745  0.1745 -0.1628
 5440TIP3   OH240514   1.361   2.715   8.072  0.2988 -0.5345 -0.0653
 5440TIP3    H140515   1.411   2.720   8.154  2.0421  2.0221 -1.1450
 5440TIP3    H240516   1.421   2.676   8.009  0.2498  0.6711 -0.9007
 5441TIP3   OH240517   1.271   3.040   7.948 -0.0288  0.3531 -0.3050
 5441TIP3    H140518   1.332   3.081   8.008  1.3740 -1.5505 -0.3350
 5441TIP3    H240519   1.311   3.050   7.861  0.6724 -1.5405 -0.2397
 5442TIP3   OH240520   3.872   1.731   7.905 -0.9494  0.3295  0.4054
 5442TIP3    H140521   3.888   1.637   7.897 -1.5654  0.2747 -0.2797
 5442TIP3    H240522   3.959   1.770   7.915 -0.5382 -0.1619 -0.9831
 5443TIP3   OH240523   3.752   5.831   7.586 -0.1141  0.1738 -0.2562
 5443TIP3    H140524   3.812   5.774   7.634  2.0986  1.2234 -1.5993
 5443TIP3    H240525   3.692   5.772   7.541 -1.0877 -0.8706  2.2752
 5444TIP3   OH240526   4.824   4.671   7.606  0.3979 -0.1747 -0.2496
 5444TIP3    H140527   4.891   4.626   7.554 -0.1348 -1.6698  0.3000
 5444TIP3    H240528   4.741   4.638   7.570  0.0088 -0.2855  0.7133
 5445TIP3   OH240529   6.247   4.549   5.461  0.8759  0.2001  0.3706
 5445TIP3    H140530   6.198   4.630   5.448 -1.0389 -0.7741  1.1361
 5445TIP3    H240531   6.335   4.577   5.484  0.6989  2.0293 -0.9402
 5446TIP3   OH240532   5.488   3.847   8.048  0.2698  0.5918  0.0148
 5446TIP3    H140533   5.575   3.806   8.044  0.9807  1.6573  2.4623
 5446TIP3    H240534   5.427   3.774   8.039  1.4925 -0.8588  2.4047
 5447TIP3   OH240535   0.916   0.423   8.672 -0.3821 -0.2247 -0.1476
 5447TIP3    H140536   0.959   0.344   8.705  0.6468  0.5347  0.3795
 5447TIP3    H240537   0.854   0.447   8.740  1.0535  0.7895  0.8660
 5448TIP3   OH240538   5.668   2.274   7.949 -0.0827  0.2772  0.3892
 5448TIP3    H140539   5.737   2.208   7.946 -1.3135 -1.0509  0.3170
 5448TIP3    H240540   5.656   2.299   7.857 -0.6772 -0.5605  0.2296
 5449TIP3   OH240541   4.993   4.057   8.922  0.4449  0.5505  0.2810
 5449TIP3    H140542   5.034   4.032   8.839  0.5923  0.9960  0.2167
 5449TIP3    H240543   4.975   4.151   8.913 -0.9151  0.2940  0.1742
 5450TIP3   OH240544   2.340   3.261   7.377 -0.3588 -0.0101 -0.1488
 5450TIP3    H140545   2.336   3.166   7.390 -0.5431  0.1793  1.4766
 5450TIP3    H240546   2.272   3.279   7.312 -1.3712 -0.8399  0.6476
 5451TIP3   OH240547   0.346   4.960   5.863  0.3748  0.4093 -0.1053
 5451TIP3    H140548   0.381   5.035   5.814  1.2092 -0.4677 -0.8825
 5451TIP3    H240549   0.254   4.955   5.835  0.7545  0.1208 -1.3532
 5452TIP3   OH240550   2.437   2.457   5.714 -0.2391  0.5589 -0.4697
 5452TIP3    H140551   2.532   2.465   5.709 -0.1069 -1.2523 -1.4056
 5452TIP3    H240552   2.410   2.436   5.625 -1.6002  1.5773 -0.3252
 5453TIP3   OH240553   3.444   5.311   7.066 -0.3541 -0.4583 -0.0737
 5453TIP3    H140554   3.473   5.236   7.117  1.8155 -0.6783 -1.4744
 5453TIP3    H240555   3.349   5.312   7.076 -0.4783 -3.4084 -0.0256
 5454TIP3   OH240556   1.843   5.086   8.927 -0.0989  0.2664  0.1883
 5454TIP3    H140557   1.913   5.139   8.889 -0.5273  0.6679 -0.0465
 5454TIP3    H240558   1.885   5.039   8.999  0.0711  1.6960  1.0666
 5455TIP3   OH240559   0.157   2.837   5.702  0.8798 -0.3178 -0.0663
 5455TIP3    H140560   0.095   2.840   5.629 -0.9092  0.8972  1.4120
 5455TIP3    H240561   0.243   2.831   5.660 -0.1689 -1.6935 -2.2100
 5456TIP3   OH240562   3.321   1.833   7.459  0.6732 -0.0790  0.0399
 5456TIP3    H140563   3.327   1.788   7.375 -1.1202 -0.6868  0.1991
 5456TIP3    H240564   3.412   1.846   7.486  1.2643 -2.5220 -0.5777
 5457TIP3   OH240565   3.553   3.039   5.428  0.0755  0.4262  0.5934
 5457TIP3    H140566   3.614   3.110   5.449  1.7877 -0.3571 -1.3475
 5457TIP3    H240567   3.606   2.959   5.432 -0.6162 -0.2414 -1.6566
 5458TIP3   OH240568   5.472   4.330   5.626 -0.6295  0.3476 -1.0475
 5458TIP3    H140569   5.418   4.251   5.637 -0.7193  0.3051 -1.7245
 5458TIP3    H240570   5.556   4.297   5.594 -0.2974  0.4401 -0.2882
 5459TIP3   OH240571   2.698   0.724   5.944 -0.2437  0.3316  0.0046
 5459TIP3    H140572   2.714   0.630   5.947 -1.6088  0.0354 -1.0266
 5459TIP3    H240573   2.712   0.754   6.034 -2.1278 -1.2856  0.9127
 5460TIP3   OH240574   2.415   6.342   7.427  0.2572  0.0629 -0.4109
 5460TIP3    H140575   2.508   6.355   7.443  0.2913 -0.1533 -0.4394
 5460TIP3    H240576   2.392   6.409   7.361  0.3918  0.1111 -0.4083
 5461TIP3   OH240577   2.607   4.058   6.373  0.0628  0.1062  0.7872
 5461TIP3    H140578   2.640   4.145   6.350 -1.2670  0.3057 -0.4428
 5461TIP3    H240579   2.682   4.015   6.414  1.4296  1.0534 -0.6022
 5462TIP3   OH240580   6.045   3.276   7.990 -0.1604  0.7372  0.0344
 5462TIP3    H140581   6.129   3.280   8.035 -1.5398 -0.3883  2.9696
 5462TIP3    H240582   6.058   3.326   7.909  3.2323  0.7144  0.4392
 5463TIP3   OH240583   6.125   6.436   6.046  0.2836  1.3418  0.6245
 5463TIP3    H140584   6.065   6.483   6.104 -1.2075  3.6833 -2.4962
 5463TIP3    H240585   6.069   6.399   5.978  1.9885 -0.7727  0.2317
 5464TIP3   OH240586   5.315   1.094   6.878 -0.1605 -0.3789 -0.2894
 5464TIP3    H140587   5.334   1.140   6.961 -0.7201 -2.3402  0.9952
 5464TIP3    H240588   5.272   1.160   6.824  0.3349  1.0004  0.9202
 5465TIP3   OH240589   0.551   4.142   6.978  0.2325  0.1712  0.4257
 5465TIP3    H140590   0.496   4.181   6.910  1.5515  2.2326  0.4682
 5465TIP3    H240591   0.632   4.118   6.932 -0.2996 -2.1007  0.5260
 5466TIP3   OH240592   6.008   3.911   8.419 -0.1585 -0.3343 -0.5821
 5466TIP3    H140593   6.048   3.827   8.441 -0.9501 -0.7289 -0.6289
 5466TIP3    H240594   5.942   3.890   8.354 -2.1756 -0.0718  1.2893
 5467TIP3   OH240595   5.629   1.998   6.177  0.6432  0.0181  0.3111
 5467TIP3    H140596   5.636   2.005   6.272  2.2860 -1.2128  0.3217
 5467TIP3    H240597   5.651   2.086   6.145  1.7938  0.0114  1.0241
 5468TIP3   OH240598   0.056   1.038   8.240 -0.1899 -0.1882 -0.0123
 5468TIP3    H140599  -0.013   1.047   8.175 -0.0646  0.0928 -0.1107
 5468TIP3    H240600   0.010   1.031   8.324 -0.3391  0.0178 -0.0747
 5469TIP3   OH240601   5.734   5.084   6.261  0.1832  0.0522  0.2572
 5469TIP3    H140602   5.767   5.099   6.350  0.3265  0.1739  0.1835
 5469TIP3    H240603   5.733   5.171   6.221 -2.1475  0.3961  0.9121
 5470TIP3   OH240604   6.560   0.926   9.007  0.8448  0.0789 -0.3298
 5470TIP3    H140605   6.589   1.013   9.034  1.9875 -0.5300  0.4902
 5470TIP3    H240606   6.470   0.920   9.039  1.6013  0.0205  1.9640
 5471TIP3   OH240607   1.465   4.347   6.274 -0.5799  0.0224  0.3087
 5471TIP3    H140608   1.404   4.421   6.277 -0.8593 -0.1948 -0.0173
 5471TIP3    H240609   1.487   4.337   6.181  1.6847  1.5089  0.5886
 5472TIP3   OH240610   3.792   6.320   7.422 -0.1140  0.3821  0.1517
 5472TIP3    H140611   3.730   6.373   7.371 -2.1101 -0.6873  1.3127
 5472TIP3    H240612   3.773   6.230   7.395  1.0305  0.0365  0.4726
 5473TIP3   OH240613   5.405   1.870   5.586  0.3000 -0.4660 -0.1175
 5473TIP3    H140614   5.320   1.912   5.600 -0.5923 -1.8326 -1.1927
 5473TIP3    H240615   5.429   1.894   5.496  0.3849 -1.1895 -0.2983
 5474TIP3   OH240616   5.823   2.985   8.296  0.6367  0.8509 -0.1073
 5474TIP3    H140617   5.735   2.970   8.261  0.9723 -1.4860 -0.0954
 5474TIP3    H240618   5.874   2.910   8.265  2.6298  2.1110 -0.0495
 5475TIP3   OH240619   6.627   1.272   8.898  0.0972  0.1295  0.0134
 5475TIP3    H140620   6.676   1.234   8.972  0.8633  1.1932  0.0720
 5475TIP3    H240621   6.591   1.354   8.933  1.4493  1.2384 -1.1016
 5476TIP3   OH240622   6.515   3.924   5.635 -0.4377 -0.1817  0.0046
 5476TIP3    H140623   6.533   3.918   5.541  0.0793 -0.2263  0.1060
 5476TIP3    H240624   6.478   4.012   5.646 -0.2586 -0.0786 -0.2022
 5477TIP3   OH240625   2.076   1.169   8.397 -0.0812  0.6508  0.5391
 5477TIP3    H140626   2.021   1.100   8.359  1.8377 -0.1330 -1.0367
 5477TIP3    H240627   2.041   1.182   8.484 -2.1861 -0.4168 -0.0752
 5478TIP3   OH240628   4.279   2.135   5.850 -0.7577  0.0191 -0.0596
 5478TIP3    H140629   4.257   2.150   5.942  0.1389  0.0572  0.1483
 5478TIP3    H240630   4.269   2.221   5.808  1.5612  0.6338  0.5636
 5479TIP3   OH240631   0.694   1.244   5.639  0.3610 -0.8297 -0.2819
 5479TIP3    H140632   0.752   1.236   5.564 -0.3335 -1.8106 -0.7351
 5479TIP3    H240633   0.708   1.163   5.689 -0.0333 -0.7149  0.0217
 5480TIP3   OH240634   3.033   5.719   6.221  0.5497  1.1580 -0.1360
 5480TIP3    H140635   2.973   5.784   6.183  1.0989  1.8869  0.2324
 5480TIP3    H240636   3.104   5.711   6.157  0.9647  1.6339  0.2635
 5481TIP3   OH240637   0.832   4.855   7.902 -0.1004 -0.5281 -0.1989
 5481TIP3    H140638   0.799   4.799   7.832 -2.2664  0.1114  0.2368
 5481TIP3    H240639   0.843   4.941   7.861 -0.2965 -0.4151 -0.0167
 5482TIP3   OH240640   0.910   1.277   7.024  0.1087 -0.6337 -0.5008
 5482TIP3    H140641   0.950   1.280   7.111 -1.6163  0.7610  0.2968
 5482TIP3    H240642   0.917   1.186   6.998 -0.1834 -1.2932  1.5213
 5483TIP3   OH240643   1.681   2.667   7.385 -0.0052 -0.0043  0.3509
 5483TIP3    H140644   1.721   2.590   7.344 -0.6976  0.6916 -1.7819
 5483TIP3    H240645   1.591   2.668   7.353  0.0974  1.8876 -0.0363
 5484TIP3   OH240646   4.801   4.551   6.635  0.0021 -0.3309 -0.1530
 5484TIP3    H140647   4.774   4.461   6.619  1.6547 -0.9932  0.6241
 5484TIP3    H240648   4.881   4.562   6.584  1.0815 -0.0526  1.5234
 5485TIP3   OH240649   2.388   5.802   8.524  0.1263 -0.3866  0.5179
 5485TIP3    H140650   2.457   5.832   8.464 -0.8010  0.2581 -0.2452
 5485TIP3    H240651   2.418   5.830   8.610  0.9842 -0.4225  0.2466
 5486TIP3   OH240652   3.511   1.986   8.538 -0.2901 -0.1526 -0.1840
 5486TIP3    H140653   3.438   2.004   8.598  0.1207 -0.6017  0.4610
 5486TIP3    H240654   3.477   1.921   8.477 -0.7026  0.2879 -0.4320
 5487TIP3   OH240655   5.082   2.746   8.259  0.2052 -0.1323  0.3200
 5487TIP3    H140656   5.161   2.795   8.281 -0.2165  0.9288 -0.4601
 5487TIP3    H240657   5.099   2.713   8.170  0.2225 -0.8812  0.5905
 5488TIP3   OH240658   6.635   5.810   5.813 -0.3129  0.2313 -0.2995
 5488TIP3    H140659   6.564   5.840   5.871 -2.4286 -0.9034 -2.1314
 5488TIP3    H240660   6.615   5.718   5.796  2.6538 -0.6569  0.4525
 5489TIP3   OH240661   1.156   1.637   9.342  0.5461 -0.4598  0.6221
 5489TIP3    H140662   1.205   1.720   9.336 -1.6378  0.9874  1.4484
 5489TIP3    H240663   1.199   1.589   9.413  0.3515  1.1454  1.9131
 5490TIP3   OH240664   6.659   4.330   6.925 -0.1823  0.3966 -0.2072
 5490TIP3    H140665   6.673   4.409   6.872 -0.8456  0.2740 -0.5786
 5490TIP3    H240666   6.565   4.331   6.944 -0.0259  0.2061  0.6077
 5491TIP3   OH240667   2.312   0.126   8.082  0.5085 -0.3587 -0.3831
 5491TIP3    H140668   2.400   0.162   8.080  0.3884  0.2018  1.7575
 5491TIP3    H240669   2.272   0.163   8.161 -1.1254 -1.7822 -0.4639
 5492TIP3   OH240670   2.726   1.561   7.403 -0.6010  0.3161 -0.4075
 5492TIP3    H140671   2.724   1.478   7.355  1.9048 -1.0985  1.6648
 5492TIP3    H240672   2.771   1.621   7.344  0.9698 -0.9186 -0.5384
 5493TIP3   OH240673   0.812   6.302   7.317  0.5834 -0.5526  0.1503
 5493TIP3    H140674   0.754   6.375   7.299 -0.1359 -1.5851 -2.0357
 5493TIP3    H240675   0.900   6.338   7.305  0.3328  0.4004  1.0329
 5494TIP3   OH240676   0.985   1.292   6.650  0.0046 -0.0362  0.0145
 5494TIP3    H140677   1.015   1.202   6.663  0.5743  0.3459  1.4982
 5494TIP3    H240678   0.985   1.303   6.555  0.5552 -1.3895 -0.1741
 5495TIP3   OH240679   0.931   3.560   5.738 -0.1871 -0.0234  0.2222
 5495TIP3    H140680   0.915   3.473   5.701  0.1023  0.2095 -0.4445
 5495TIP3    H240681   0.849   3.582   5.782  0.4733 -1.6646  2.5412
 5496TIP3   OH240682   4.392   4.538   5.783 -0.1345  0.0074 -0.1268
 5496TIP3    H140683   4.307   4.496   5.775 -0.2798  0.1091  0.7704
 5496TIP3    H240684   4.406   4.547   5.878 -0.4269  2.5944 -0.2640
 5497TIP3   OH240685   4.167   4.941   5.226  0.4213 -0.6026 -0.1146
 5497TIP3    H140686   4.185   5.030   5.194  1.8555 -0.3301  1.2459
 5497TIP3    H240687   4.211   4.884   5.163  1.9401 -0.1601  0.4747
 5498TIP3   OH240688   5.750   0.137   6.347 -0.0493  0.3559 -0.3963
 5498TIP3    H140689   5.746   0.221   6.393 -0.6651 -0.3472  0.8965
 5498TIP3    H240690   5.659   0.112   6.332  0.1053 -0.3505 -0.2302
 5499TIP3   OH240691   2.512   3.728   7.867 -0.0237  0.0090 -0.3280
 5499TIP3    H140692   2.438   3.687   7.910  0.3038  0.3156  0.5434
 5499TIP3    H240693   2.522   3.679   7.785  0.6842 -2.0215  0.8946
 5500TIP3   OH240694   6.055   2.687   5.755 -0.0711 -1.0822 -0.1126
 5500TIP3    H140695   5.976   2.740   5.761 -0.2699 -1.4768  0.8649
 5500TIP3    H240696   6.023   2.597   5.743  0.2598 -0.9863 -2.1872
 5501TIP3   OH240697   4.111   3.624   6.606  0.6377 -0.1757  0.1749
 5501TIP3    H140698   4.095   3.531   6.597 -0.4907  0.2234 -3.2290
 5501TIP3    H240699   4.159   3.649   6.527  0.4032  2.2220  0.6878
 5502TIP3   OH240700   0.664   5.336   7.962  0.2178  0.0140 -0.1462
 5502TIP3    H140701   0.657   5.423   7.924 -0.9215 -0.1738 -0.4010
 5502TIP3    H240702   0.575   5.301   7.958  0.3332 -0.5217  1.4808
 5503TIP3   OH240703   6.544   4.999   8.692 -0.1334  0.4350  0.0171
 5503TIP3    H140704   6.558   5.063   8.762  1.8512 -1.4402  1.5026
 5503TIP3    H240705   6.479   4.939   8.728  0.4701 -0.2129  0.0478
 5504TIP3   OH240706   3.212   2.280   7.827 -0.2784  0.2985 -0.1271
 5504TIP3    H140707   3.256   2.196   7.813  0.1097  0.2597  1.1573
 5504TIP3    H240708   3.281   2.345   7.819 -0.7381  0.5994 -1.9973
 5505TIP3   OH240709   5.186   0.550   5.946  0.4528  0.3438  0.1632
 5505TIP3    H140710   5.204   0.639   5.915  0.7253  0.2376  0.0161
 5505TIP3    H240711   5.144   0.563   6.031  0.1480  0.6225 -0.0298
 5506TIP3   OH240712   2.484   1.577   7.808  0.1895  0.2928  0.4968
 5506TIP3    H140713   2.398   1.570   7.849  0.5632 -1.3486  1.1067
 5506TIP3    H240714   2.478   1.522   7.730  0.7286  0.0086  0.6471
 5507TIP3   OH240715   0.765   0.519   7.866 -0.1027  0.2523 -0.4631
 5507TIP3    H140716   0.838   0.517   7.804 -0.3592  0.7225 -0.7822
 5507TIP3    H240717   0.802   0.486   7.947  0.2302 -0.3963 -0.8710
 5508TIP3   OH240718   0.147   5.233   6.892  0.6011 -0.7626 -0.3793
 5508TIP3    H140719   0.056   5.240   6.922  0.4545 -1.1524 -0.7229
 5508TIP3    H240720   0.168   5.321   6.860  0.8087 -0.3020  0.9740
 5509TIP3   OH240721   3.933   1.380   5.821 -0.1371  0.3965 -0.3649
 5509TIP3    H140722   3.958   1.288   5.817 -0.5342  0.3116 -0.9799
 5509TIP3    H240723   4.015   1.428   5.812  0.3208  0.1257  1.6873
 5510TIP3   OH240724   4.548   3.181   7.850  0.1983 -0.2659 -0.1594
 5510TIP3    H140725   4.552   3.162   7.756 -1.9656  0.8187 -0.5382
 5510TIP3    H240726   4.627   3.232   7.868  1.0977 -1.2367 -1.1758
 5511TIP3   OH240727   4.542   2.251   5.919 -0.1996 -0.3687  0.1168
 5511TIP3    H140728   4.556   2.220   6.008 -1.2395  0.1943  0.4906
 5511TIP3    H240729   4.494   2.181   5.876 -1.6561  0.2659  0.6643
 5512TIP3   OH240730   4.563   1.281   8.557  0.1737  0.1080 -0.2360
 5512TIP3    H140731   4.487   1.238   8.596  0.7005 -1.5673 -0.9560
 5512TIP3    H240732   4.638   1.236   8.594  0.7579  0.5467 -0.8605
 5513TIP3   OH240733   4.307   6.491   5.602  0.1292  0.2949 -0.1631
 5513TIP3    H140734   4.351   6.423   5.653  0.8914  1.2761  0.5421
 5513TIP3    H240735   4.354   6.571   5.624  0.9333  0.6961 -2.9054
 5514TIP3   OH240736   5.658   4.585   7.963  0.2733 -0.0172 -0.3682
 5514TIP3    H140737   5.739   4.536   7.969 -0.3154 -0.9117  0.5762
 5514TIP3    H240738   5.609   4.561   8.042  0.1724  2.4938  0.4366
 5515TIP3   OH240739   1.659   0.907   6.391  0.1445  0.0799 -0.2044
 5515TIP3    H140740   1.575   0.951   6.381 -0.2154 -0.2694  1.1442
 5515TIP3    H240741   1.679   0.874   6.303 -1.0257  0.3384 -0.5842
 5516TIP3   OH240742   4.172   3.737   5.560 -0.8341 -0.0811 -0.3160
 5516TIP3    H140743   4.198   3.654   5.520 -0.1275 -0.3411  0.6421
 5516TIP3    H240744   4.254   3.777   5.589 -1.2138  0.7214 -0.3222
 5517TIP3   OH240745   6.483   2.439  15.700 -0.4114 -0.3979  0.2758
 5517TIP3    H140746   6.564   2.447  15.649 -1.6426  2.1974 -1.5232
 5517TIP3    H240747   6.493   2.504  15.770 -1.0047  0.1753 -0.1509
 5518TIP3   OH240748   4.739   4.277   6.572 -0.1003 -0.6394 -0.1910
 5518TIP3    H140749   4.808   4.223   6.536 -0.6716 -1.0766 -0.6410
 5518TIP3    H240750   4.670   4.277   6.505 -1.0013 -1.1285  0.7004
 5519TIP3   OH240751   2.646   2.728   6.109 -0.1538 -0.3023  0.3523
 5519TIP3    H140752   2.561   2.730   6.153 -0.6147 -0.5373 -0.5042
 5519TIP3    H240753   2.671   2.636   6.110  0.4667 -0.1402  1.2769
 5520TIP3   OH240754   1.272   0.212   5.343  0.5676 -0.3671 -0.5587
 5520TIP3    H140755   1.185   0.238   5.373  1.7559  0.1423  2.8424
 5520TIP3    H240756   1.301   0.285   5.288  0.3606  1.4780  1.6209
 5521TIP3   OH240757   3.482   0.022   8.558  0.3009  0.1322 -0.4196
 5521TIP3    H140758   3.507  -0.043   8.624 -1.4214 -2.4597 -2.1355
 5521TIP3    H240759   3.520  -0.011   8.476  1.1313  2.4725 -1.0564
 5522TIP3   OH240760   4.388   6.223   6.971 -0.0111  0.3308 -0.0137
 5522TIP3    H140761   4.477   6.199   6.994  0.8553  1.6267 -1.7946
 5522TIP3    H240762   4.339   6.216   7.053  1.2916 -2.1145  0.6337
 5523TIP3   OH240763   1.295   1.867   9.289 -0.1321  0.2807 -0.4090
 5523TIP3    H140764   1.353   1.924   9.238 -1.7041  1.8321 -0.5428
 5523TIP3    H240765   1.340   1.857   9.373 -0.1383  2.3554 -0.1128
 5524TIP3   OH240766   4.016   0.479   6.249 -0.3173 -0.2264  0.1870
 5524TIP3    H140767   3.929   0.510   6.275  0.1804  1.3521  0.0446
 5524TIP3    H240768   4.076   0.544   6.283  0.5562  0.6402 -2.7165
 5525TIP3   OH240769   4.043   4.888   7.089  0.1171  0.1531  0.0614
 5525TIP3    H140770   4.051   4.953   7.158 -1.0801 -0.6546  0.9964
 5525TIP3    H240771   4.092   4.926   7.015  1.3559  1.0615  1.2928
 5526TIP3   OH240772   5.276   1.252   7.418 -0.4363 -0.1424 -0.4468
 5526TIP3    H140773   5.348   1.228   7.360 -0.2938 -2.1218  0.4704
 5526TIP3    H240774   5.224   1.172   7.426 -1.1302  0.4308  1.1823
 5527TIP3   OH240775   2.579   3.973   7.959  0.0415 -0.7718 -0.0979
 5527TIP3    H140776   2.566   3.885   7.924 -1.5483 -1.7666  2.7397
 5527TIP3    H240777   2.505   4.023   7.926  0.1348 -0.8800 -0.4841
 5528TIP3   OH240778   1.475   0.991   5.737 -0.0396 -0.4531 -0.3955
 5528TIP3    H140779   1.473   0.981   5.832 -0.2301 -0.8386 -0.4371
 5528TIP3    H240780   1.566   0.971   5.713 -0.1507 -1.0203 -0.3603
 5529TIP3   OH240781   1.572   5.015  14.688 -0.0385 -0.5160 -0.1169
 5529TIP3    H140782   1.635   5.050  14.751 -0.1212 -0.0043 -0.3142
 5529TIP3    H240783   1.505   4.973  14.742  0.0191 -0.2962  0.1241
 5530TIP3   OH240784   5.481   5.943   6.614  0.0826  0.6791  0.5079
 5530TIP3    H140785   5.517   5.908   6.696 -0.7214 -1.2873  0.0657
 5530TIP3    H240786   5.393   5.973   6.638 -1.5286 -3.0028 -0.1923
 5531TIP3   OH240787   4.479   6.653   6.831  0.2237 -0.1143 -0.1826
 5531TIP3    H140788   4.435   6.590   6.775  1.4335 -0.0061 -1.2979
 5531TIP3    H240789   4.484   6.611   6.917  1.0220 -1.5473 -0.9068
 5532TIP3   OH240790   1.336   5.165   6.448  0.1650 -0.2687 -0.2704
 5532TIP3    H140791   1.324   5.162   6.353 -0.6582  1.2703 -0.2552
 5532TIP3    H240792   1.298   5.083   6.480  0.2963 -0.7242 -1.2533
 5533TIP3   OH240793   3.921   5.858   6.688 -0.0663  0.2288 -0.6810
 5533TIP3    H140794   3.931   5.879   6.595  0.0813  2.4342 -0.2272
 5533TIP3    H240795   3.855   5.789   6.690 -1.6000  1.5539 -2.3218
 5534TIP3   OH240796   5.190   1.024   5.641 -0.2029  0.0547 -0.0085
 5534TIP3    H140797   5.255   0.981   5.585  1.7406  2.3750  0.2877
 5534TIP3    H240798   5.150   1.091   5.585 -1.8092 -0.8190  0.0463
 5535TIP3   OH240799   0.283   5.291   7.660 -0.2731 -0.1560 -0.0279
 5535TIP3    H140800   0.213   5.255   7.714  0.3691 -0.1134  0.8409
 5535TIP3    H240801   0.282   5.237   7.580 -1.1130 -0.3228  0.0916
 5536TIP3   OH240802   0.981   4.132   7.778 -0.1949  0.0524 -0.6162
 5536TIP3    H140803   1.020   4.117   7.692  0.4264  1.4942 -0.6130
 5536TIP3    H240804   1.030   4.205   7.814 -3.2126  2.4419 -0.8741
 5537TIP3   OH240805   4.494   5.124   7.368 -0.0663 -0.0180  0.5821
 5537TIP3    H140806   4.403   5.152   7.375 -0.1172 -0.2245  0.7626
 5537TIP3    H240807   4.522   5.155   7.282 -1.2168 -2.5411 -0.8137
 5538TIP3   OH240808   3.097   5.148   5.787 -0.0798 -0.0397  0.2066
 5538TIP3    H140809   3.166   5.194   5.836  0.6420 -0.2975 -0.5348
 5538TIP3    H240810   3.131   5.144   5.697  0.3401 -2.8235  0.3922
 5539TIP3   OH240811   6.675   5.068   5.623 -0.3553 -0.1604  0.1761
 5539TIP3    H140812   6.736   5.129   5.581 -0.3679  0.1791  0.6337
 5539TIP3    H240813   6.638   5.119   5.696  0.9302 -1.2445  1.6619
 5540TIP3   OH240814   2.059   3.787   8.403 -0.7096 -0.1633 -0.2345
 5540TIP3    H140815   2.010   3.777   8.485  1.1866 -0.0868  0.9747
 5540TIP3    H240816   2.010   3.735   8.339 -1.7837 -0.9240  1.1414
 5541TIP3   OH240817   4.790   3.631   6.249  0.1237  0.3178 -0.8859
 5541TIP3    H140818   4.868   3.657   6.201  1.7588 -0.8544  0.9506
 5541TIP3    H240819   4.749   3.565   6.194  1.4443 -0.3482 -1.1242
 5542TIP3   OH240820   6.420   5.548   8.335 -0.4251 -0.0589 -0.0730
 5542TIP3    H140821   6.397   5.465   8.378  0.5849  0.6087  1.8726
 5542TIP3    H240822   6.506   5.530   8.295 -1.0902 -0.4989 -1.3492
 5543TIP3   OH240823   6.356   0.238   6.964 -0.8836 -0.0218  0.5469
 5543TIP3    H140824   6.309   0.277   7.037 -0.1520  1.0076  0.4940
 5543TIP3    H240825   6.295   0.240   6.891 -1.0446  0.5068  0.6981
 5544TIP3   OH240826   4.726   5.275   7.348  0.2729 -0.5109  0.5964
 5544TIP3    H140827   4.756   5.218   7.277 -1.0400 -0.5604  0.0440
 5544TIP3    H240828   4.653   5.227   7.388 -1.6826  1.2281 -0.6620
 5545TIP3   OH240829   2.000   0.987   5.685 -0.2961  0.1923  0.0830
 5545TIP3    H140830   1.999   1.038   5.767 -1.9246  0.9824 -0.3803
 5545TIP3    H240831   2.072   0.925   5.696 -0.5344  0.2078  2.1624
 5546TIP3   OH240832   5.614   0.320   8.483  0.1574 -0.2168  0.5930
 5546TIP3    H140833   5.682   0.366   8.530 -0.8303  0.2366  1.6145
 5546TIP3    H240834   5.570   0.266   8.549 -0.3912 -0.6095 -0.0661
 5547TIP3   OH240835   4.770   0.146   6.010 -0.0517 -0.2637  0.1263
 5547TIP3    H140836   4.830   0.074   6.029 -0.0524 -0.1453  0.5838
 5547TIP3    H240837   4.827   0.219   5.986  0.0899  0.2676  1.8963
 5548TIP3   OH240838   5.442   1.175   6.421 -0.0135  0.4639  0.3479
 5548TIP3    H140839   5.487   1.151   6.502 -0.3422 -0.5039  0.2565
 5548TIP3    H240840   5.353   1.141   6.432 -0.3541  1.1998 -0.0206
 5549TIP3   OH240841   0.401   3.847   7.576 -0.5570 -0.0770 -0.0377
 5549TIP3    H140842   0.462   3.920   7.563 -2.4583  1.6035 -0.0510
 5549TIP3    H240843   0.424   3.811   7.662 -0.7646  1.8004  0.8487
 5550TIP3   OH240844   4.331   4.109   5.288  0.1973 -0.0607  0.3923
 5550TIP3    H140845   4.357   4.039   5.348  0.3516  0.8816  1.4699
 5550TIP3    H240846   4.235   4.107   5.288  0.2023 -1.1392 -0.6658
 5551TIP3   OH240847   4.587   5.167   6.136  0.1871 -0.9908  0.1911
 5551TIP3    H140848   4.591   5.237   6.071 -1.3990 -0.1690  0.9120
 5551TIP3    H240849   4.662   5.184   6.194  0.6671 -0.7753 -0.4845
 5552TIP3   OH240850   1.366   5.777   6.152  0.0803 -0.5855 -0.0861
 5552TIP3    H140851   1.426   5.845   6.181 -0.9284  0.6998 -0.8573
 5552TIP3    H240852   1.383   5.769   6.058 -2.0898  1.1082 -0.7136
 5553TIP3   OH240853   1.415   1.697   6.614  0.2469  0.4780  0.2411
 5553TIP3    H140854   1.395   1.734   6.528  2.4299  0.9661 -0.1212
 5553TIP3    H240855   1.408   1.602   6.601  2.5680  0.3914 -1.1477
 5554TIP3   OH240856   2.833   5.394   6.595 -0.3017 -0.1904  0.3397
 5554TIP3    H140857   2.802   5.318   6.645 -0.3971  0.0856  0.7008
 5554TIP3    H240858   2.882   5.355   6.522  0.5821 -0.5958  1.1203
 5555TIP3   OH240859   6.217   0.789   8.284  0.1915 -0.2390 -0.1265
 5555TIP3    H140860   6.288   0.735   8.316  0.8834  0.3326 -0.6739
 5555TIP3    H240861   6.257   0.874   8.265 -0.3453 -0.2873 -1.6671
 5556TIP3   OH240862   6.478   4.463   7.684 -0.5021  0.0303  0.2618
 5556TIP3    H140863   6.516   4.443   7.598 -0.9832  0.1715  0.0114
 5556TIP3    H240864   6.441   4.380   7.714 -0.9905  0.1473 -0.0063
 5557TIP3   OH240865   2.331   0.581   7.516  0.2126  0.3203 -0.3648
 5557TIP3    H140866   2.293   0.499   7.484  0.6694 -0.1784  0.3425
 5557TIP3    H240867   2.426   0.566   7.514  0.2716  0.2239  1.2619
 5558TIP3   OH240868   5.791   1.440   7.623 -0.3726  0.1759 -0.2064
 5558TIP3    H140869   5.857   1.378   7.655  0.1234  1.2578  0.9612
 5558TIP3    H240870   5.729   1.449   7.696  0.3251  2.0620  0.2002
 5559TIP3   OH240871   5.744   3.841   6.830 -0.5433 -0.2298 -0.5339
 5559TIP3    H140872   5.652   3.847   6.857  0.0171 -0.8829  1.7399
 5559TIP3    H240873   5.784   3.783   6.895  1.4159 -0.2259 -1.6795
 5560TIP3   OH240874   4.369   4.125   7.271  0.0061  0.1527  0.6352
 5560TIP3    H140875   4.348   4.116   7.178  0.8932 -1.0832  0.5187
 5560TIP3    H240876   4.324   4.052   7.313  0.5000  0.0521  1.0035
 5561TIP3   OH240877   4.738   3.137   5.957  0.4774 -0.9792 -0.7042
 5561TIP3    H140878   4.679   3.065   5.977 -0.9696  0.6404  1.3102
 5561TIP3    H240879   4.820   3.114   6.001 -0.0179 -1.3454  0.0373
 5562TIP3   OH240880   3.697   5.015   7.124  0.1420 -0.0619  0.3399
 5562TIP3    H140881   3.750   5.077   7.073 -0.2891  0.8526  0.9655
 5562TIP3    H240882   3.687   4.939   7.067  0.3785  0.5894 -0.6008
 5563TIP3   OH240883   2.372   5.206   6.271 -0.8044 -0.3403 -0.6813
 5563TIP3    H140884   2.280   5.189   6.292 -0.3904 -1.7752  0.1176
 5563TIP3    H240885   2.391   5.146   6.199  0.1198 -1.8475  0.7564
 5564TIP3   OH240886   6.117   5.808   7.687  0.4653 -0.6231  0.1615
 5564TIP3    H140887   6.099   5.751   7.613 -2.0663 -0.5902  0.6633
 5564TIP3    H240888   6.090   5.758   7.763 -0.2297  0.6177  0.7540
 5565TIP3   OH240889   3.551   0.083   7.659  0.3598  0.0958 -0.1291
 5565TIP3    H140890   3.546   0.086   7.755 -0.4192  1.1015 -0.1913
 5565TIP3    H240891   3.644   0.067   7.641  0.7247  1.0306  0.7920
 5566TIP3   OH240892   2.498   6.334   5.694 -0.2864  0.5147 -0.2930
 5566TIP3    H140893   2.476   6.426   5.707  0.1190  0.9723 -2.4608
 5566TIP3    H240894   2.587   6.336   5.657 -0.7763 -0.6382 -1.6091
 5567TIP3   OH240895   2.221   0.368   8.747 -0.7856 -0.6504  0.2040
 5567TIP3    H140896   2.140   0.395   8.792 -1.4654 -0.9163 -0.8139
 5567TIP3    H240897   2.291   0.408   8.798 -1.6809  2.2373 -0.6019
 5568TIP3   OH240898   0.816   4.259   5.862 -0.0086  0.5817 -0.4025
 5568TIP3    H140899   0.762   4.269   5.783 -0.2732 -0.4701 -0.3689
 5568TIP3    H240900   0.866   4.178   5.847 -1.5615 -0.7844  1.3483
 5569TIP3   OH240901   2.528   3.201   6.799 -1.0625 -0.0471 -0.1891
 5569TIP3    H140902   2.455   3.252   6.832  0.2262  0.8563  1.4196
 5569TIP3    H240903   2.506   3.110   6.823 -0.2805  0.5127  3.3154
 5570TIP3   OH240904   0.469   4.805   8.238 -0.2146 -0.1194  0.3511
 5570TIP3    H140905   0.449   4.898   8.226 -1.6055 -0.4806 -0.4308
 5570TIP3    H240906   0.546   4.790   8.183  2.0630  1.1902  2.9231
 5571TIP3   OH240907   5.563   1.162   6.168 -0.0535  0.5370 -0.0314
 5571TIP3    H140908   5.586   1.075   6.134 -0.4938  0.9466 -1.4450
 5571TIP3    H240909   5.534   1.146   6.258 -2.9687 -1.2176 -1.1734
 5572TIP3   OH240910   2.270   4.575   6.284 -0.3523  0.3888 -0.3394
 5572TIP3    H140911   2.363   4.556   6.292 -0.2717  0.5462 -0.8604
 5572TIP3    H240912   2.260   4.665   6.315 -0.4152  0.1921  0.2156
 5573TIP3   OH240913   2.132   5.118   9.037  0.5497  0.6281  0.3698
 5573TIP3    H140914   2.083   5.059   9.095 -0.1136  1.2290  0.4371
 5573TIP3    H240915   2.200   5.156   9.093  2.1575 -1.3805 -0.0868
 5574TIP3   OH240916   3.147   3.723   7.412  0.0439 -0.0281  0.2654
 5574TIP3    H140917   3.192   3.798   7.374 -1.0328 -0.1207 -1.3082
 5574TIP3    H240918   3.112   3.755   7.495  0.0253  1.0681 -0.1469
 5575TIP3   OH240919   1.142   2.380   6.579  0.2059 -0.3551 -0.1957
 5575TIP3    H140920   1.213   2.445   6.582  1.2877 -1.5131 -0.2671
 5575TIP3    H240921   1.114   2.380   6.487  1.8950 -1.7345 -0.7558
 5576TIP3   OH240922   1.903   1.636   8.883 -0.1880 -0.1168 -0.1168
 5576TIP3    H140923   1.812   1.610   8.893 -0.0032 -0.7134  0.0676
 5576TIP3    H240924   1.951   1.582   8.946  0.4710 -0.9153 -1.2410
 5577TIP3   OH240925   6.543   4.277   7.497 -0.0801 -0.0879 -0.2827
 5577TIP3    H140926   6.594   4.323   7.431  2.0444 -0.6583  0.8592
 5577TIP3    H240927   6.580   4.189   7.498 -1.9183 -0.9047 -0.1970
 5578TIP3   OH240928   3.247   6.567   5.918 -0.7136 -0.2839  0.5290
 5578TIP3    H140929   3.196   6.578   5.837 -0.3373  2.1919  0.5368
 5578TIP3    H240930   3.287   6.481   5.909 -2.4898 -1.0389 -0.8534
 5579TIP3   OH240931   5.001   3.137   8.218 -0.5943 -0.3954  0.0147
 5579TIP3    H140932   4.983   3.227   8.191  1.0818  0.1801  0.6704
 5579TIP3    H240933   5.054   3.147   8.298 -2.2491 -1.9895  1.3969
 5580TIP3   OH240934   0.520   6.313   7.068 -0.1962  0.6631 -0.1105
 5580TIP3    H140935   0.488   6.330   7.157  0.6876  2.1802 -0.0439
 5580TIP3    H240936   0.597   6.258   7.081 -0.4111  0.3940  0.0252
 5581TIP3   OH240937   1.275   5.457   6.032  0.3480  0.4002  0.0872
 5581TIP3    H140938   1.300   5.479   5.942 -1.3631 -0.5204 -0.6386
 5581TIP3    H240939   1.188   5.494   6.042 -0.3911 -1.4064  0.6045
 5582TIP3   OH240940   4.860   0.359   7.824  0.8817  0.2511 -0.4137
 5582TIP3    H140941   4.856   0.271   7.785  1.0873  0.9877 -2.1665
 5582TIP3    H240942   4.778   0.401   7.796  1.5764  1.1965 -1.0605
 5583TIP3   OH240943   1.396   4.591   7.150 -0.2115 -0.0023 -0.3597
 5583TIP3    H140944   1.409   4.590   7.055  1.9482  0.2130 -0.1068
 5583TIP3    H240945   1.375   4.682   7.170 -0.7635 -0.0644 -0.6256
 5584TIP3   OH240946   5.984   2.119   9.065 -0.0926  0.4717 -0.0000
 5584TIP3    H140947   5.980   2.190   9.130 -1.1345 -0.1416  0.6380
 5584TIP3    H240948   5.907   2.066   9.084  1.6512 -1.9401  0.8012
 5585TIP3   OH240949   3.017   1.750   5.601 -0.4831 -0.4031  0.1870
 5585TIP3    H140950   3.078   1.700   5.655  0.8558  0.6093 -0.3225
 5585TIP3    H240951   2.974   1.685   5.546  0.4446 -1.1082  0.2793
 5586TIP3   OH240952   2.423   5.417   7.446 -0.1540 -0.1866  0.4373
 5586TIP3    H140953   2.384   5.504   7.452 -0.3949 -0.2138 -0.5464
 5586TIP3    H240954   2.511   5.433   7.411  0.0859 -0.2759  0.9914
 5587TIP3   OH240955   2.562   0.440   7.102  0.1314  0.4330 -0.3383
 5587TIP3    H140956   2.494   0.426   7.167  0.7545  0.4451  0.3240
 5587TIP3    H240957   2.539   0.381   7.030 -0.2563  0.0135  0.1245
 5588TIP3   OH240958   0.809   6.323   5.652  0.1616 -0.2172 -0.2830
 5588TIP3    H140959   0.813   6.418   5.660 -1.2585 -0.2411  1.1572
 5588TIP3    H240960   0.897   6.293   5.674  0.5139  0.7384 -0.3496
 5589TIP3   OH240961   0.575   0.825   8.538 -0.2610 -0.3293 -0.1571
 5589TIP3    H140962   0.653   0.867   8.501  0.6912 -0.9521  1.0876
 5589TIP3    H240963   0.604   0.788   8.621 -1.3457 -2.4457 -0.6415
 5590TIP3   OH240964   2.807   5.897   6.474 -0.0773  0.0645 -0.4135
 5590TIP3    H140965   2.821   5.986   6.507 -1.2531 -0.1800  0.8621
 5590TIP3    H240966   2.885   5.849   6.499 -0.1815  0.3324  0.4658
 5591TIP3   OH240967   4.750   6.649   8.461 -0.7090  0.1760  0.2625
 5591TIP3    H140968   4.712   6.711   8.524 -0.5116  0.0868  0.4695
 5591TIP3    H240969   4.682   6.639   8.394 -1.0660 -0.0017  0.6431
 5592TIP3   OH240970   4.619   5.922   7.360  0.1596 -0.1702 -0.2994
 5592TIP3    H140971   4.698   5.952   7.405 -1.0616  0.5627  1.4743
 5592TIP3    H240972   4.549   5.975   7.397 -1.4080 -1.9526 -0.5700
 5593TIP3   OH240973   5.096   1.776   6.722  0.3893 -0.3871 -0.2027
 5593TIP3    H140974   5.181   1.762   6.680  0.2511 -1.7132 -0.0811
 5593TIP3    H240975   5.117   1.820   6.804  1.0244 -1.1881  0.0790
 5594TIP3   OH240976   2.932   3.077   8.887 -0.4454  0.2685 -0.1574
 5594TIP3    H140977   2.969   3.161   8.860 -0.2564  0.0814 -0.4914
 5594TIP3    H240978   2.848   3.100   8.927  0.2654  0.7490  1.1326
 5595TIP3   OH240979   5.665   2.062   7.276  0.7024  0.0310  0.1927
 5595TIP3    H140980   5.681   1.972   7.247 -1.1341  0.4518 -2.5146
 5595TIP3    H240981   5.741   2.111   7.245  1.8200 -0.5628  1.8792
 5596TIP3   OH240982   0.382   1.759   5.913 -0.1720 -0.3261  0.6693
 5596TIP3    H140983   0.295   1.718   5.912 -0.7628  0.6753 -2.8559
 5596TIP3    H240984   0.437   1.699   5.862  0.6899  0.0453  1.1477
 5597TIP3   OH240985   4.085   0.777   6.332 -0.0413 -0.4211 -0.6393
 5597TIP3    H140986   4.037   0.753   6.253  0.3825 -0.7580 -0.7999
 5597TIP3    H240987   4.019   0.779   6.401 -0.6361  1.0826 -1.2159
 5598TIP3   OH240988   4.785   4.798   6.804  0.2005  0.3491  0.2420
 5598TIP3    H140989   4.727   4.778   6.877  0.0493  0.1968  0.0795
 5598TIP3    H240990   4.776   4.724   6.744  0.3136  0.4792  0.0607
 5599TIP3   OH240991   4.384   5.318   6.369  0.0891 -1.0914 -0.3730
 5599TIP3    H140992   4.341   5.305   6.284 -1.6729 -0.6444  0.4025
 5599TIP3    H240993   4.345   5.252   6.426 -1.7183  1.0788  1.0643
 5600TIP3   OH240994   3.305   3.946   7.357 -0.2625  0.3791 -0.1190
 5600TIP3    H140995   3.388   3.899   7.346 -0.2710  0.6645 -1.6215
 5600TIP3    H240996   3.321   4.033   7.323 -0.8633  0.8185  0.6776
 5601TIP3   OH240997   1.603   0.534   7.789 -0.2671  0.2493 -0.4589
 5601TIP3    H140998   1.584   0.469   7.857 -1.0603 -0.3797 -1.2616
 5601TIP3    H240999   1.694   0.516   7.764 -0.5782 -0.7775 -0.9002
 5602TIP3   OH241000   5.192   6.276   8.502  0.6726 -0.3147  0.2453
 5602TIP3    H141001   5.117   6.328   8.528  0.5494  0.7708 -2.0583
 5602TIP3    H241002   5.161   6.223   8.429  1.8448 -0.7185  0.0161
 5603TIP3   OH241003   1.881   4.278   6.638 -0.1943  0.5722 -0.1066
 5603TIP3    H141004   1.807   4.238   6.591  1.9810 -1.0309 -2.4199
 5603TIP3    H241005   1.958   4.235   6.602  1.8978  1.7837  2.5818
 5604TIP3   OH241006   5.461   1.149   5.925 -0.0258  0.5564  0.0852
 5604TIP3    H141007   5.499   1.143   6.013  0.3917  0.6795 -0.0843
 5604TIP3    H241008   5.511   1.218   5.882  0.4038 -0.1417 -0.5652
 5605TIP3   OH241009   5.696   6.341   7.080  0.0296 -0.3521 -0.2249
 5605TIP3    H141010   5.682   6.274   7.013  0.3285 -0.1591 -0.4819
 5605TIP3    H241011   5.728   6.292   7.156 -0.2824 -0.5677 -0.2294
 5606TIP3   OH241012   3.389   5.853   7.189 -0.5849  0.5615 -1.4710
 5606TIP3    H141013   3.321   5.897   7.139  0.1478 -0.3409 -3.3582
 5606TIP3    H241014   3.401   5.768   7.146  0.3862 -0.0927 -0.0119
 5607TIP3   OH241015   3.053   0.688   5.733 -0.0311 -0.3045 -0.8415
 5607TIP3    H141016   3.126   0.630   5.710  0.1448 -0.1769 -0.6120
 5607TIP3    H241017   3.094   0.768   5.764 -0.2810  0.0916 -1.5218
 5608TIP3   OH241018   5.196   5.399   6.156 -0.0456  0.4131  0.1556
 5608TIP3    H141019   5.235   5.331   6.101 -0.6759 -0.5097  0.8224
 5608TIP3    H241020   5.239   5.390   6.241 -0.4127  0.5841  0.3646
 5609TIP3   OH241021   4.565   2.696   8.129  0.2558 -0.3091  0.1757
 5609TIP3    H141022   4.553   2.630   8.197  0.5945 -1.0653 -0.4928
 5609TIP3    H241023   4.613   2.652   8.059 -0.0638  0.4598 -0.5543
 5610TIP3   OH241024   5.323   2.064   6.186 -0.0107  0.0517  0.0759
 5610TIP3    H141025   5.392   2.129   6.202 -1.9495  2.0699  0.7093
 5610TIP3    H241026   5.363   2.001   6.126  2.0673  1.6488 -0.3348
 5611TIP3   OH241027   6.100   1.761   7.448  0.2690 -0.0995 -0.1644
 5611TIP3    H141028   6.088   1.842   7.498  0.7395  0.2297 -0.5753
 5611TIP3    H241029   6.123   1.695   7.513  1.2466  0.4059  0.0150
 5612TIP3   OH241030   0.865   0.556   7.236 -0.2300 -0.2547 -0.0992
 5612TIP3    H141031   0.957   0.544   7.209 -0.1471 -0.0281  0.0766
 5612TIP3    H241032   0.865   0.534   7.329 -0.2352  0.2962  0.0384
 5613TIP3   OH241033   0.921   6.609   8.539  0.4139 -0.3245 -0.1297
 5613TIP3    H141034   0.866   6.687   8.538  2.0415  0.8966  0.5216
 5613TIP3    H241035   0.881   6.549   8.476  0.6704  2.1465 -2.8099
 5614TIP3   OH241036   6.142   1.460   6.033  0.1064  1.1778  0.1253
 5614TIP3    H141037   6.065   1.446   6.088  0.4073 -0.2708  0.2236
 5614TIP3    H241038   6.209   1.492   6.094  0.3160 -0.0249  0.5497
 5615TIP3   OH241039   4.484   4.280   5.648  0.0792  0.5066  0.8087
 5615TIP3    H141040   4.447   4.192   5.641  1.3970 -0.0069 -0.0893
 5615TIP3    H241041   4.408   4.338   5.648 -0.7577 -0.4974 -0.9939
 5616TIP3   OH241042   0.485   4.509   7.088 -0.1414 -0.1592 -0.8356
 5616TIP3    H141043   0.509   4.500   6.996  0.4312 -2.2055 -0.5416
 5616TIP3    H241044   0.399   4.467   7.094  1.0540 -2.6777  0.0093
 5617TIP3   OH241045   1.137   4.837   8.461  0.6355  0.2723  0.4275
 5617TIP3    H141046   1.054   4.840   8.413 -1.1977  0.0526  3.3536
 5617TIP3    H241047   1.139   4.750   8.500  1.8702  0.5550  1.0603
 5618TIP3   OH241048   0.995   2.894   5.971  0.0733 -0.1224 -0.0927
 5618TIP3    H141049   1.073   2.880   6.025 -0.6764 -0.9279  0.8240
 5618TIP3    H241050   0.924   2.857   6.023 -1.2759  2.5727  0.1268
 5619TIP3   OH241051   2.947   1.473   6.869  0.5825 -0.1446  0.3600
 5619TIP3    H141052   2.952   1.446   6.961 -0.4821 -0.4674  0.3377
 5619TIP3    H241053   2.919   1.394   6.822  0.4685  0.1916 -0.1475
 5620TIP3   OH241054   0.201   4.553   7.946  0.3649 -0.4809  0.1762
 5620TIP3    H141055   0.129   4.492   7.961  0.4628 -0.4554  0.7755
 5620TIP3    H241056   0.198   4.612   8.021 -0.2627  0.7909 -0.7960
 5621TIP3   OH241057   3.538   1.974   5.927  0.6214 -0.0153  0.2340
 5621TIP3    H141058   3.556   2.038   5.858  0.5913  1.5984  1.6596
 5621TIP3    H241059   3.456   2.004   5.966  0.3393 -1.2390  0.6106
 5622TIP3   OH241060   0.539   4.962   7.607 -0.1811 -0.0852  0.1675
 5622TIP3    H141061   0.542   4.978   7.702  0.9015 -0.4974  0.2248
 5622TIP3    H241062   0.588   5.035   7.569 -0.3783 -0.0677 -0.0548
 5623TIP3   OH241063   4.594   0.247   5.786 -0.2000  0.4994  0.8952
 5623TIP3    H141064   4.618   0.202   5.868  1.3856  0.5096  0.4552
 5623TIP3    H241065   4.627   0.336   5.796 -0.0679  0.5245  0.2649
 5624TIP3   OH241066   3.651   1.730   6.822 -0.4089 -0.2916  0.4960
 5624TIP3    H141067   3.713   1.741   6.894 -0.6164  1.2362  0.4843
 5624TIP3    H241068   3.582   1.675   6.858  0.4666 -1.2293  0.8038
 5625TIP3   OH241069   5.371   4.378   6.236  0.3818 -0.6071  0.0154
 5625TIP3    H141070   5.306   4.435   6.195  0.4679 -0.9823 -0.6495
 5625TIP3    H241071   5.337   4.364   6.325  0.3711  0.4774  0.1932
 5626TIP3   OH241072   0.178   3.718   8.000 -0.2076 -0.4003 -0.2270
 5626TIP3    H141073   0.263   3.761   7.997  0.0888 -0.9713 -0.2736
 5626TIP3    H241074   0.115   3.789   8.014  0.3717 -0.0841  0.9496
 5627TIP3   OH241075   0.821   6.105   8.003  0.5449  0.5300 -1.0137
 5627TIP3    H141076   0.798   6.032   7.946 -1.3527  0.4227 -0.1612
 5627TIP3    H241077   0.869   6.065   8.075  0.7618  0.3340 -1.2643
 5628TIP3   OH241078   6.096   2.780   8.681  0.0107 -0.2051 -0.1724
 5628TIP3    H141079   6.147   2.727   8.621  1.7523  1.4251 -0.2351
 5628TIP3    H241080   6.161   2.820   8.740 -1.2364  1.3657  0.2248
 5629TIP3   OH241081   6.272   0.151   5.428 -0.2843 -0.4287  0.9432
 5629TIP3    H141082   6.321   0.168   5.508 -0.5986 -0.4522  1.1413
 5629TIP3    H241083   6.180   0.152   5.455 -0.4808  1.0892  0.3184
 5630TIP3   OH241084   4.089   3.767   6.835 -0.2006  0.0861  0.1478
 5630TIP3    H141085   4.092   3.859   6.806 -1.4582  0.0745 -0.0754
 5630TIP3    H241086   4.115   3.717   6.759  0.4817  0.2448  0.2658
 5631TIP3   OH241087   5.344   2.338   6.010  0.6555 -0.2472  0.2637
 5631TIP3    H141088   5.261   2.386   6.010 -0.5128 -2.1365 -0.2250
 5631TIP3    H241089   5.329   2.264   5.951  2.1792 -1.4816  1.3399
 5632TIP3   OH241090   2.865   4.073   6.144  0.0498  0.1412 -0.0287
 5632TIP3    H141091   2.804   3.999   6.145 -0.2094  0.3555  0.4256
 5632TIP3    H241092   2.941   4.040   6.097  0.1500 -0.5898  0.6153
 5633TIP3   OH241093   3.188   4.690   6.272  0.5430 -0.3853  0.2756
 5633TIP3    H141094   3.158   4.693   6.181 -0.2017  0.2401  0.5285
 5633TIP3    H241095   3.275   4.650   6.268  0.7919  0.2355 -0.7865
 5634TIP3   OH241096   3.508   2.221   7.135 -0.0792  0.4247  0.2396
 5634TIP3    H141097   3.454   2.293   7.169 -0.1501  0.3657  0.2522
 5634TIP3    H241098   3.464   2.195   7.054 -0.0972  0.3437  0.2755
 5635TIP3   OH241099   6.361   4.141   6.936 -0.0693 -0.3324  0.0247
 5635TIP3    H141100   6.407   4.162   7.017  1.6251  0.3568 -1.0457
 5635TIP3    H241101   6.308   4.219   6.918  0.0728 -0.2111  0.1257
 5636TIP3   OH241102   5.445   5.707   5.720  0.0612  0.0679  0.3536
 5636TIP3    H141103   5.459   5.682   5.811  2.0062 -0.3406 -0.0106
 5636TIP3    H241104   5.378   5.646   5.689  0.0731 -0.4189  1.2561
 5637TIP3   OH241105   2.037   6.023   6.637  0.2416 -0.6391 -0.5224
 5637TIP3    H141106   2.076   5.940   6.667  1.3319 -1.5353 -3.9125
 5637TIP3    H241107   1.967   5.996   6.578 -0.1570  0.8855 -0.7835
 5638TIP3   OH241108   3.542   1.332   7.032  0.5233  0.3472  0.0623
 5638TIP3    H141109   3.505   1.407   6.986  0.8627 -0.2600 -1.2413
 5638TIP3    H241110   3.468   1.275   7.048  0.3224  0.7872  0.7401
 5639TIP3   OH241111   0.424   0.158   6.779 -0.1617  0.3130  0.0437
 5639TIP3    H141112   0.403   0.072   6.816 -1.7345  1.2165  1.3969
 5639TIP3    H241113   0.486   0.196   6.842 -0.3940  0.6285  0.0826
 5640TIP3   OH241114   2.602   5.451   6.424  0.0272  0.5815  0.0342
 5640TIP3    H141115   2.678   5.422   6.473  0.7456 -0.0924 -1.4104
 5640TIP3    H241116   2.637   5.513   6.360 -0.6388  0.3197 -0.5970
 5641TIP3   OH241117   4.417   0.022   5.753 -0.3811  0.6139  0.5438
 5641TIP3    H141118   4.445   0.113   5.754 -1.9162  1.0973  0.9800
 5641TIP3    H241119   4.481  -0.023   5.808  0.1283  1.5021  0.6930
 5642TIP3   OH241120   3.982   6.507   5.966  0.1520 -0.5253 -0.1542
 5642TIP3    H141121   3.934   6.539   5.890  0.0362  1.7416  0.7847
 5642TIP3    H241122   3.921   6.448   6.010 -0.2335 -0.8907 -1.1634
 5643TIP3   OH241123   2.727   4.923   7.172 -0.1434  0.2347  0.1128
 5643TIP3    H141124   2.732   4.892   7.262  4.1595 -0.3843 -0.1378
 5643TIP3    H241125   2.711   4.844   7.120  0.3189  0.1005  0.1691
 5644TIP3   OH241126   3.331   1.787   6.458 -0.0348  0.1997 -0.3179
 5644TIP3    H141127   3.308   1.874   6.427 -1.9541 -0.4569 -0.8401
 5644TIP3    H241128   3.324   1.731   6.380  0.3726 -0.5716  0.1852
 5645TIP3   OH241129   1.694   3.733   8.518 -0.2792 -0.2988  0.1534
 5645TIP3    H141130   1.682   3.802   8.452 -1.8641  0.6732  1.3960
 5645TIP3    H241131   1.783   3.747   8.551 -0.4590  0.9526  0.1553
 5646TIP3   OH241132   1.668   4.824   9.550 -0.2232 -0.0847  0.4578
 5646TIP3    H141133   1.711   4.799   9.469  2.6098 -0.9449  2.0724
 5646TIP3    H241134   1.611   4.749   9.570 -0.0367 -0.3959 -0.1414
 5647TIP3   OH241135   3.503   4.978   6.332 -0.3579  0.4170 -0.7120
 5647TIP3    H141136   3.532   5.052   6.385 -1.7249 -0.2834  1.1114
 5647TIP3    H241137   3.458   4.920   6.394  0.4418 -1.8343 -2.1247
 5648TIP3   OH241138   0.512   1.571   9.324 -0.4128 -0.1013  0.5031
 5648TIP3    H141139   0.476   1.660   9.331 -0.1459  0.2116 -1.5076
 5648TIP3    H241140   0.532   1.561   9.231  0.0212 -2.1055  0.7776
 5649TIP3   OH241141   2.170   2.006   8.219  0.6201 -0.5675 -0.1871
 5649TIP3    H141142   2.181   2.058   8.299  1.7659  1.7140 -1.6949
 5649TIP3    H241143   2.244   2.033   8.163  1.3225 -3.9670 -1.0869
 5650TIP3   OH241144   4.163   1.663   6.753 -0.0981  0.3153 -0.2763
 5650TIP3    H141145   4.198   1.685   6.667  1.1411 -1.3730 -0.2640
 5650TIP3    H241146   4.094   1.727   6.768 -0.8964  0.1836 -2.8677
 5651TIP3   OH241147   4.886   0.710   8.344 -0.1658 -0.2915  0.4313
 5651TIP3    H141148   4.937   0.742   8.419  0.8540 -0.1786 -0.2858
 5651TIP3    H241149   4.924   0.624   8.326 -0.1449 -0.1537 -0.1924
 5652TIP3   OH241150   2.949   4.378   8.263 -0.4607  0.1879 -0.5923
 5652TIP3    H141151   2.889   4.410   8.330  0.6805  0.4403  0.3368
 5652TIP3    H241152   2.929   4.432   8.186  1.6862  3.6095  1.0240
 5653TIP3   OH241153   5.426   6.473   7.738 -0.0679  0.4111  0.0977
 5653TIP3    H141154   5.462   6.535   7.676  1.4800 -1.0294 -0.5159
 5653TIP3    H241155   5.333   6.494   7.742  0.2948  2.3259 -0.5453
 5654TIP3   OH241156   6.497   2.033   6.129 -0.0575  0.6800  0.0862
 5654TIP3    H141157   6.534   2.097   6.069  1.0072  1.2234  1.2697
 5654TIP3    H241158   6.454   2.085   6.196  0.0126  0.1383  0.5621
 5655TIP3   OH241159   2.762   3.833   8.813  0.0828  0.4742 -0.0994
 5655TIP3    H141160   2.718   3.913   8.845  0.1438  0.8703 -0.9908
 5655TIP3    H241161   2.855   3.854   8.815  0.4449 -0.8011  3.0247
 5656TIP3   OH241162   2.979   3.029   6.176  0.2392 -0.1848  0.1931
 5656TIP3    H141163   3.023   2.970   6.238 -0.8226  0.0654  1.2106
 5656TIP3    H241164   3.050   3.083   6.141  1.0811 -1.3348  0.0269
 5657TIP3   OH241165   3.181   5.670   5.982 -0.1728 -0.2277 -0.1434
 5657TIP3    H141166   3.230   5.745   5.947 -0.4808  1.1136  2.0919
 5657TIP3    H241167   3.200   5.599   5.921  3.2933  0.6241 -0.2684
 5658TIP3   OH241168   1.666   1.294   8.386  0.5250 -0.2406  0.1734
 5658TIP3    H141169   1.679   1.204   8.418 -3.3149 -1.4337 -1.0926
 5658TIP3    H241170   1.625   1.339   8.459  0.7657 -0.0219  0.1763
 5659TIP3   OH241171   5.099   0.087   6.608  0.3110 -0.2955 -0.1920
 5659TIP3    H141172   5.054   0.013   6.568 -1.2137 -0.4104  1.6216
 5659TIP3    H241173   5.032   0.155   6.616  0.9867  0.2875  0.7046
 5660TIP3   OH241174   4.112   1.985   6.784  0.6793  0.2005 -0.2593
 5660TIP3    H141175   4.058   1.937   6.721  1.5004 -0.8671 -0.1887
 5660TIP3    H241176   4.173   2.036   6.730  1.6560 -1.0329 -0.3629
 5661TIP3   OH241177   5.659   5.146   8.049 -0.0041 -0.0158 -0.3239
 5661TIP3    H141178   5.747   5.126   8.082 -0.2891 -0.7502  0.0141
 5661TIP3    H241179   5.606   5.160   8.128 -0.0563  1.0960 -0.5333
 5662TIP3   OH241180   3.845   1.260   8.721  0.2672 -0.0359  0.3250
 5662TIP3    H141181   3.916   1.197   8.705 -0.9242 -1.7151  1.2540
 5662TIP3    H241182   3.845   1.272   8.815 -0.7232 -0.1459  0.3490
 5663TIP3   OH241183   3.334   0.521   5.962 -0.3985 -0.1002  0.2020
 5663TIP3    H141184   3.370   0.598   6.006  1.4774 -0.5287 -0.4777
 5663TIP3    H241185   3.342   0.451   6.027 -0.9720  0.0169  0.4015
 5664TIP3   OH241186   2.280   0.994   7.055 -0.0435 -0.6333  0.0840
 5664TIP3    H141187   2.358   0.938   7.056 -0.2428 -0.9109  0.3293
 5664TIP3    H241188   2.248   0.990   6.965  0.6876  0.1331 -0.2227
 5665TIP3   OH241189   2.736   2.071   5.452  0.1205 -0.0951  0.2772
 5665TIP3    H141190   2.829   2.091   5.461 -0.2343  1.2320  1.2471
 5665TIP3    H241191   2.706   2.129   5.382  0.5851 -2.6489 -2.2187
 5666TIP3   OH241192   2.496   3.213   8.771 -0.0370  0.7291 -0.1719
 5666TIP3    H141193   2.413   3.240   8.810  0.3103  1.9471 -0.2394
 5666TIP3    H241194   2.509   3.124   8.804 -0.1342  1.4247  1.9153
 5667TIP3   OH241195   1.473   0.747   5.331  0.3474  0.1802  0.2251
 5667TIP3    H141196   1.453   0.761   5.239 -1.2147 -1.4904  0.2498
 5667TIP3    H241197   1.406   0.796   5.379 -0.1232 -0.6215  0.4118
 5668TIP3   OH241198   6.174   4.406   6.792  0.5811  0.1088 -0.1260
 5668TIP3    H141199   6.218   4.483   6.827  0.1347  0.5875 -0.6101
 5668TIP3    H241200   6.233   4.373   6.725  0.8065 -0.0163  0.1323
 5669TIP3   OH241201   2.452   5.627   6.592 -0.8158  0.1660 -0.1761
 5669TIP3    H141202   2.512   5.561   6.626  0.1115  1.0553 -0.0010
 5669TIP3    H241203   2.381   5.578   6.552  0.1100 -0.9380 -0.5221
 5670TIP3   OH241204   4.960   5.733   7.781  1.0069  0.5571 -0.2343
 5670TIP3    H141205   4.893   5.671   7.809  1.1656  0.0335 -1.0020
 5670TIP3    H241206   4.937   5.815   7.825  0.8087 -0.0438  0.8018
 5671TIP3   OH241207   3.361   0.926   7.162 -0.0511  0.4192 -0.2429
 5671TIP3    H141208   3.422   0.908   7.090  0.1765  0.7742 -0.1389
 5671TIP3    H241209   3.371   0.852   7.221  1.2037  1.0863  0.4039
 5672TIP3   OH241210   3.553   0.888   6.954 -0.3337  0.5161 -0.4739
 5672TIP3    H141211   3.488   0.863   6.889 -0.4425  0.8384 -0.4882
 5672TIP3    H241212   3.619   0.937   6.906  0.1010 -0.0965 -0.5234
 5673TIP3   OH241213   1.908   4.873   5.692 -0.2884  0.0697  0.1056
 5673TIP3    H141214   1.819   4.840   5.695 -0.7944  1.3633  0.0069
 5673TIP3    H241215   1.903   4.960   5.733  0.8393  0.3155 -0.2415
 5674TIP3   OH241216   4.398   3.856   7.617 -0.0469  0.2241 -0.4832
 5674TIP3    H141217   4.434   3.943   7.599  0.1965  0.1809 -0.2227
 5674TIP3    H241218   4.450   3.797   7.563 -0.4555  0.2786 -0.9378
 5675TIP3   OH241219   2.988   5.023   6.228 -0.4507 -0.1972 -0.0724
 5675TIP3    H141220   3.068   4.974   6.208 -1.2227 -1.3991 -0.3535
 5675TIP3    H241221   2.973   5.078   6.152 -0.3987 -0.6860 -0.4432
 5676TIP3   OH241222   6.026   0.897   7.268  0.4110  0.2734  0.4200
 5676TIP3    H141223   6.071   0.941   7.195  0.4798  0.5334  0.6185
 5676TIP3    H241224   5.941   0.872   7.231  0.0377  1.3132  0.5343
 5677TIP3   OH241225   4.734   2.623   5.968 -0.0336 -0.4503  0.5297
 5677TIP3    H141226   4.801   2.692   5.966 -1.4880  0.9950 -0.3091
 5677TIP3    H241227   4.776   2.551   6.015  2.0991  0.4068  0.0608
 5678TIP3   OH241228   3.803   2.168   7.924 -0.0854  0.1180 -0.4080
 5678TIP3    H141229   3.794   2.189   8.017  0.8043 -0.0086 -0.2794
 5678TIP3    H241230   3.763   2.243   7.878 -2.8710 -0.9712  0.0485
 5679TIP3   OH241231   1.070   0.447   8.078 -0.4867 -0.1379  0.1311
 5679TIP3    H141232   1.152   0.405   8.106  0.3918 -0.4500 -2.6346
 5679TIP3    H241233   1.097   0.533   8.048 -1.6080  0.7285  1.4950
 5680TIP3   OH241234   5.198   1.070   6.487 -0.1496  0.3976 -0.0842
 5680TIP3    H141235   5.135   1.141   6.496 -0.2213  0.2594  0.5681
 5680TIP3    H241236   5.170   1.005   6.551  0.0911 -0.0878 -0.4653
 5681TIP3   OH241237   4.120   5.058   7.658  0.2514  0.3365  0.3271
 5681TIP3    H141238   4.098   5.062   7.565 -0.1008  0.9230  0.4376
 5681TIP3    H241239   4.062   4.991   7.694  2.1112 -1.8030 -0.3464
 5682TIP3   OH241240   0.995   2.758   9.407  0.4729 -0.1979 -0.1895
 5682TIP3    H141241   0.932   2.757   9.335  0.4007 -0.9490 -0.1285
 5682TIP3    H241242   0.941   2.761   9.486  0.5483  0.4482 -0.1573
 5683TIP3   OH241243   5.925   6.343   5.878  0.0676 -0.0835  0.0795
 5683TIP3    H141244   5.855   6.291   5.840 -1.6126  1.2525  1.1809
 5683TIP3    H241245   5.939   6.415   5.816 -0.9288  0.7154  0.7501
 5684TIP3   OH241246   4.367   4.611   7.435  0.3807  0.2701  0.2082
 5684TIP3    H141247   4.404   4.698   7.415  0.5520  0.2950  0.6274
 5684TIP3    H241248   4.420   4.550   7.383  1.7842  0.1884  1.6665
 5685TIP3   OH241249   2.982   6.615   7.647 -0.4479 -0.1536  0.4175
 5685TIP3    H141250   2.990   6.659   7.562  0.2957 -2.2509 -0.6565
 5685TIP3    H241251   3.069   6.578   7.663 -1.2636 -1.9993  0.8128
 5686TIP3   OH241252   0.754   2.216   9.031  0.5220  0.3647 -0.6261
 5686TIP3    H141253   0.810   2.205   8.954  0.4779  0.7366 -0.7121
 5686TIP3    H241254   0.705   2.296   9.014 -1.5425 -0.9948 -1.4824
 5687TIP3   OH241255   3.790   0.081   6.228  0.2420 -0.1024  0.0918
 5687TIP3    H141256   3.707   0.127   6.244  0.3584  1.1987 -2.5563
 5687TIP3    H241257   3.857   0.140   6.264  0.1595 -0.0385  0.1420
 5688TIP3   OH241258   1.032   5.221   6.305  0.0906  0.3840  0.3567
 5688TIP3    H141259   1.001   5.308   6.276 -1.3435 -0.0490  0.4883
 5688TIP3    H241260   0.969   5.195   6.372  0.6730 -0.6474  0.5145
 5689TIP3   OH241261   0.082   1.677   5.988  0.2229  0.5112 -1.0385
 5689TIP3    H141262  -0.002   1.643   6.018  0.4337  1.3730  0.6504
 5689TIP3    H241263   0.117   1.609   5.931 -0.4886 -0.9813  0.2327
 5690TIP3   OH241264   1.242   4.286   5.925 -0.3796 -0.3115 -0.3690
 5690TIP3    H141265   1.241   4.197   5.889  1.3345 -0.5325  0.0468
 5690TIP3    H241266   1.193   4.338   5.861 -0.0068 -1.2593 -1.4636
 5691TIP3   OH241267   1.560   1.216   7.580  0.2504 -0.2091 -0.5782
 5691TIP3    H141268   1.496   1.278   7.615 -0.2644 -0.8806 -0.3165
 5691TIP3    H241269   1.580   1.249   7.492  1.9745  1.8211  0.4830
 5692TIP3   OH241270   1.229   5.411   6.645 -0.2160 -0.2163 -0.0654
 5692TIP3    H141271   1.317   5.410   6.682  0.4104  3.2045 -1.1619
 5692TIP3    H241272   1.241   5.393   6.552 -1.0046 -1.8162  0.0947
 5693TIP3   OH241273   2.771   1.302   6.703 -0.2530  0.3630 -0.2725
 5693TIP3    H141274   2.740   1.324   6.614 -0.6533 -1.9444 -0.7537
 5693TIP3    H241275   2.812   1.217   6.693  1.2877  0.8578  1.4710
 5694TIP3   OH241276   2.297   0.688   8.369  0.0801 -0.3724  0.1431
 5694TIP3    H141277   2.308   0.693   8.274 -2.2317 -1.1513 -0.2417
 5694TIP3    H241278   2.359   0.621   8.397  0.9878  0.0634 -0.7569
 5695TIP3   OH241279   0.344   1.316   9.240 -0.2448 -0.2423 -0.3463
 5695TIP3    H141280   0.417   1.360   9.281 -0.1504 -0.5208 -0.2121
 5695TIP3    H241281   0.278   1.384   9.229 -0.8736 -0.4574  1.6545
 5696TIP3   OH241282   2.044   4.836   8.688 -0.3669  0.3751 -0.1885
 5696TIP3    H141283   2.098   4.911   8.663 -1.9460  1.0609 -1.7439
 5696TIP3    H241284   1.955   4.871   8.690 -0.9217 -1.0309  0.9712
 5697TIP3   OH241285   1.561   2.277   8.878  0.2689  0.1957  0.0358
 5697TIP3    H141286   1.575   2.298   8.786  0.1252  0.8311  0.1518
 5697TIP3    H241287   1.624   2.332   8.925 -0.8352  1.1715  0.4137
 5698TIP3   OH241288   6.364   2.480   6.967  0.0047 -0.2915 -0.1407
 5698TIP3    H141289   6.441   2.504   7.019 -0.1826 -0.0938  0.0471
 5698TIP3    H241290   6.310   2.559   6.967 -1.1093 -1.0015  1.3324
 5699TIP3   OH241291   3.378   1.676   7.195 -0.1547  0.3734  0.3138
 5699TIP3    H141292   3.434   1.752   7.211  0.3136  0.0610  0.1775
 5699TIP3    H241293   3.316   1.706   7.129  0.3890  0.4717 -0.1682
 5700TIP3   OH241294   6.501   3.233   6.729 -0.5229 -0.3566  0.6243
 5700TIP3    H141295   6.494   3.313   6.781 -1.0734  1.0754 -1.5538
 5700TIP3    H241296   6.594   3.212   6.730 -0.1393  1.1776  0.0346
 5701TIP3   OH241297   3.463   3.602   5.653  0.1880 -0.8756 -0.0632
 5701TIP3    H141298   3.518   3.593   5.731 -1.1203  0.1747  1.0385
 5701TIP3    H241299   3.374   3.586   5.685 -0.6601  1.8972 -0.8086
 5702TIP3   OH241300   6.559   3.403   6.493  0.1728  0.3255  0.1275
 5702TIP3    H141301   6.576   3.480   6.548  0.1374 -0.3611  1.1073
 5702TIP3    H241302   6.466   3.384   6.506 -0.1114  0.8011 -1.0271
 5703TIP3   OH241303   5.949   2.541   6.793  0.5412  0.5961 -0.3023
 5703TIP3    H141304   6.012   2.600   6.752  1.1015  1.7188  1.9887
 5703TIP3    H241305   5.943   2.572   6.884 -2.3380 -0.3007 -0.0907
 5704TIP3   OH241306   2.025   1.433   5.552  0.1476 -0.0789  0.3053
 5704TIP3    H141307   1.942   1.434   5.599 -0.5712  0.8280 -0.9049
 5704TIP3    H241308   2.003   1.463   5.464  1.8969  1.0584  0.1893
 5705TIP3   OH241309   1.271   3.844   6.557  0.0921  0.2001  0.5723
 5705TIP3    H141310   1.207   3.772   6.554 -0.0754  0.3721 -0.2208
 5705TIP3    H241311   1.354   3.802   6.534  0.2024  0.0580  1.1944
 5706TIP3   OH241312   3.524   5.563   8.192  0.5672 -0.0597 -0.4189
 5706TIP3    H141313   3.490   5.643   8.152 -0.2627  0.2006  0.7475
 5706TIP3    H241314   3.570   5.593   8.270  1.3587 -0.6334 -0.6502
 5707TIP3   OH241315   0.490   0.845   5.993  0.1036  0.3737 -0.8492
 5707TIP3    H141316   0.407   0.892   5.980 -0.1045  0.1090 -0.4895
 5707TIP3    H241317   0.504   0.847   6.087  3.1504  4.9266 -1.1230
 5708TIP3   OH241318   0.570   2.321   8.019 -0.0343  0.3451  0.2172
 5708TIP3    H141319   0.572   2.362   7.932  0.8935 -2.1898 -1.0610
 5708TIP3    H241320   0.497   2.259   8.014  0.7218 -0.6158  0.8319
 5709TIP3   OH241321   2.798   0.089   6.584  0.2173  0.2733 -0.1142
 5709TIP3    H141322   2.840   0.170   6.555  1.3918  0.1872  1.2594
 5709TIP3    H241323   2.780   0.102   6.677 -3.5035  0.5554 -0.7166
 5710TIP3   OH241324   6.568   0.974   6.349 -0.3419 -0.6442  0.4276
 5710TIP3    H141325   6.531   1.002   6.433  1.5461  0.7462  0.8654
 5710TIP3    H241326   6.564   1.052   6.294 -1.2647 -1.4604 -0.7175
 5711TIP3   OH241327   6.284   2.570   8.562  0.0988 -0.3334 -0.6657
 5711TIP3    H141328   6.335   2.528   8.631 -0.9937 -1.8775 -0.7328
 5711TIP3    H241329   6.349   2.608   8.504  1.1603 -1.5884 -0.3473
 5712TIP3   OH241330   5.803   2.924   6.922 -0.4680  0.0940 -0.1556
 5712TIP3    H141331   5.814   2.921   7.018  1.5507  1.4997 -0.2712
 5712TIP3    H241332   5.845   3.005   6.896 -0.5270 -0.5133 -2.3141
 5713TIP3   OH241333   2.291   0.993   9.332 -0.2242 -0.4603 -0.2435
 5713TIP3    H141334   2.281   0.963   9.242 -1.7731 -2.4085  0.5044
 5713TIP3    H241335   2.242   0.930   9.384  0.4997  0.6925  1.9725
 5714TIP3   OH241336   5.808   6.151   5.330  0.3024  0.0321 -0.4030
 5714TIP3    H141337   5.779   6.060   5.327  0.8463 -0.1247 -1.0671
 5714TIP3    H241338   5.730   6.200   5.355  0.0950 -0.6535  0.3331
 5715TIP3   OH241339   2.462   1.436   6.434  0.0949  0.5112  0.3891
 5715TIP3    H141340   2.422   1.515   6.397 -2.6052 -0.3523  1.2228
 5715TIP3    H241341   2.440   1.367   6.371 -0.3473 -0.1231  1.2316
 5716TIP3   OH241342   0.076   2.197   8.116 -0.1082 -0.1918  0.2396
 5716TIP3    H141343   0.154   2.221   8.166 -0.9966  0.5681  1.3023
 5716TIP3    H241344   0.019   2.154   8.180 -0.9114  0.0117 -0.3262
 5717TIP3   OH241345   1.805   5.625   8.543  0.0040  0.2065  0.0599
 5717TIP3    H141346   1.794   5.686   8.615  0.2132  1.9961 -1.3600
 5717TIP3    H241347   1.878   5.569   8.569  0.3539  1.1016  1.0525
 5718TIP3   OH241348   0.390   3.888   6.285  0.5451  0.3968 -0.6875
 5718TIP3    H141349   0.452   3.957   6.260 -0.1965  1.3829  0.1072
 5718TIP3    H241350   0.304   3.930   6.281  0.2551  0.2958  2.1567
 5719TIP3   OH241351   2.501   5.886   6.376 -1.1209 -0.0859 -0.3151
 5719TIP3    H141352   2.473   5.968   6.416  1.3405  1.5187 -1.6447
 5719TIP3    H241353   2.455   5.883   6.292 -2.6225 -1.0752  0.4875
 5720TIP3   OH241354   3.947   0.251   7.273  0.5167  0.2456 -0.1454
 5720TIP3    H141355   4.036   0.248   7.239 -0.2820 -0.1341 -2.3511
 5720TIP3    H241356   3.911   0.334   7.241 -0.2303 -0.0564 -0.1256
 5721TIP3   OH241357   3.083   6.298   8.308 -0.0547 -0.0867  0.1821
 5721TIP3    H141358   2.996   6.259   8.292  0.2815 -1.2599  1.0637
 5721TIP3    H241359   3.143   6.242   8.259  0.2316  0.6917 -0.3776
 5722TIP3   OH241360   1.747   5.492   9.512  0.8233 -0.0112 -0.5272
 5722TIP3    H141361   1.663   5.475   9.553  0.9049  1.6049  0.3939
 5722TIP3    H241362   1.804   5.422   9.543  0.3863  0.1408  0.6726
 5723TIP3   OH241363   5.797   4.957   5.329  0.5046  0.0179 -0.5447
 5723TIP3    H141364   5.701   4.956   5.322  0.4825  1.9332 -0.9567
 5723TIP3    H241365   5.818   5.044   5.362  2.1861  0.2064 -1.9564
 5724TIP3   OH241366   4.994   3.628   7.124  0.0824  0.5303 -0.3284
 5724TIP3    H141367   5.064   3.573   7.090 -0.0875  0.4135 -0.4847
 5724TIP3    H241368   4.938   3.569   7.174  0.3824  0.7134  0.2405
 5725TIP3   OH241369   1.106   1.517   5.785  0.1652  0.3517 -0.0968
 5725TIP3    H141370   1.096   1.423   5.772  1.4713  0.3777 -1.4488
 5725TIP3    H241371   1.171   1.525   5.855 -0.4302  0.2771  0.4846
 5726TIP3   OH241372   5.061   0.523   6.271 -0.3100 -0.6918 -0.3375
 5726TIP3    H141373   5.096   0.588   6.332 -0.4023 -1.5255  0.6141
 5726TIP3    H241374   4.973   0.504   6.303 -1.2249  0.4599 -1.9928
 5727TIP3   OH241375   4.718   1.488   6.515  0.6269  0.6675  0.2697
 5727TIP3    H141376   4.809   1.498   6.543  0.6891 -1.5605  1.0143
 5727TIP3    H241377   4.711   1.397   6.485 -1.3448  0.8020  0.1531
 5728TIP3   OH241378   1.965   2.357   6.640  0.2194 -0.6925 -0.4420
 5728TIP3    H141379   1.905   2.292   6.676 -2.5771  0.5620 -2.4961
 5728TIP3    H241380   2.006   2.397   6.717 -2.0324 -1.2325  1.1289
 5729TIP3   OH241381   0.658   0.997   6.234 -0.0809 -0.4809 -0.2732
 5729TIP3    H141382   0.599   0.950   6.293  0.3845 -0.2327  0.4057
 5729TIP3    H241383   0.688   0.929   6.173 -0.4303 -0.7864 -0.1115
 5730TIP3   OH241384   5.377   4.285   8.287 -0.2229  0.0820  0.0781
 5730TIP3    H141385   5.328   4.203   8.295  1.5399 -0.9216  1.4011
 5730TIP3    H241386   5.398   4.309   8.378  0.0622  1.5280 -0.3420
 5731TIP3   OH241387   5.710   4.233   5.998 -0.4586  0.1120  0.1249
 5731TIP3    H141388   5.760   4.279   5.931 -0.6018  0.2163  0.0892
 5731TIP3    H241389   5.684   4.301   6.060 -1.1167  0.1695 -0.2028
 5732TIP3   OH241390   0.473   3.737   7.820  0.2620  0.2331  0.5137
 5732TIP3    H141391   0.429   3.658   7.852  0.4706  0.1114  0.4972
 5732TIP3    H241392   0.525   3.767   7.895  2.1663 -1.0444 -0.2240
 5733TIP3   OH241393   3.666   6.348   5.861  0.0030 -0.0812  0.0940
 5733TIP3    H141394   3.602   6.342   5.790 -1.8873 -1.1448  1.7879
 5733TIP3    H241395   3.696   6.439   5.858 -1.0810  0.2728 -1.1829
 5734TIP3   OH241396   0.972   5.369   6.999 -0.4550  0.3612  0.5016
 5734TIP3    H141397   0.962   5.410   7.085  0.1589  0.6779  0.4247
 5734TIP3    H241398   1.056   5.401   6.966 -0.2566 -0.4631  0.1727
 5735TIP3   OH241399   1.646   1.744   5.675  0.2828 -0.0309 -0.0987
 5735TIP3    H141400   1.725   1.694   5.694  0.2542 -0.7462 -1.7295
 5735TIP3    H241401   1.584   1.679   5.643 -0.6492  0.6709  0.2367
 5736TIP3   OH241402   0.173   4.169   6.045  0.1439 -0.0058 -0.5129
 5736TIP3    H141403   0.114   4.244   6.038  0.7882  0.6270  0.5177
 5736TIP3    H241404   0.183   4.138   5.955 -0.2314  1.0799 -0.9442
 5737TIP3   OH241405   3.920   0.128   8.597 -0.1949 -0.3163 -0.0334
 5737TIP3    H141406   3.883   0.169   8.675 -0.1951 -0.3215 -0.0309
 5737TIP3    H241407   3.857   0.060   8.573 -0.7159  0.3663 -0.6483
 5738TIP3   OH241408   2.649   5.660   8.009 -0.5438 -0.9506  0.0996
 5738TIP3    H141409   2.654   5.689   8.100  1.5889  0.2442 -0.3297
 5738TIP3    H241410   2.628   5.739   7.959  1.7656 -0.7836 -0.7380
 5739TIP3   OH241411   1.930   6.464   7.950 -0.0661 -0.1614  1.1103
 5739TIP3    H141412   1.929   6.560   7.950  1.8964 -0.0170 -1.9825
 5739TIP3    H241413   1.853   6.439   7.901  1.1957  0.0539 -1.0947
 5740TIP3   OH241414   0.729   0.282   6.288 -0.3855 -0.5904  0.0506
 5740TIP3    H141415   0.645   0.237   6.299 -1.3272  1.1340  0.2940
 5740TIP3    H241416   0.720   0.330   6.206  0.2283 -0.1431  0.2354
 5741TIP3   OH241417   2.818   2.461   8.396  0.3573 -0.1336  0.3200
 5741TIP3    H141418   2.785   2.461   8.486  0.1970  0.9108  0.2730
 5741TIP3    H241419   2.900   2.412   8.401  1.0843  1.1256  1.3292
 5742TIP3   OH241420   4.413   0.330   7.947 -0.5474 -0.6280  0.3390
 5742TIP3    H141421   4.424   0.238   7.923 -0.4712 -1.0113  1.7583
 5742TIP3    H241422   4.420   0.331   8.043 -1.2588  0.7602  0.4000
 5743TIP3   OH241423   1.115   1.591  15.426  0.6193 -0.1733 -0.1875
 5743TIP3    H141424   1.022   1.589  15.403  0.5559  2.5193 -0.4020
 5743TIP3    H241425   1.158   1.545  15.353 -0.3099  1.2169 -1.6690
 5744TIP3   OH241426   4.632   4.021   6.200  0.1493  0.1626 -0.5034
 5744TIP3    H141427   4.718   4.064   6.197  0.9315 -1.3314 -1.0335
 5744TIP3    H241428   4.581   4.067   6.133  0.6207  0.8954 -0.3790
 5745TIP3   OH241429   5.043   4.746   6.957 -0.4767 -0.1560 -0.0550
 5745TIP3    H141430   5.103   4.790   6.897  1.2015 -0.6928  1.1336
 5745TIP3    H241431   4.956   4.775   6.931  0.4081  2.0448 -0.7565
 5746TIP3   OH241432   4.970   1.934   7.277  0.5245 -0.1569  0.0616
 5746TIP3    H141433   4.888   1.913   7.323 -0.0593  1.7258 -0.0313
 5746TIP3    H241434   5.027   1.860   7.296 -0.3194 -0.3362  2.3018
 5747TIP3   OH241435   3.746   5.619   6.723  0.0327 -0.0753  0.4803
 5747TIP3    H141436   3.749   5.597   6.816  0.6033 -0.6205  0.3366
 5747TIP3    H241437   3.673   5.566   6.688 -1.3680  1.4565  0.9388
 5748TIP3   OH241438   1.106   6.073   7.047 -0.0194  0.0720  0.4695
 5748TIP3    H141439   1.015   6.102   7.044  0.1867  0.6710 -0.0912
 5748TIP3    H241440   1.124   6.040   6.959  0.7944  1.4899  0.0742
 5749TIP3   OH241441   5.173   1.762   7.822  0.4696  0.3839  0.4965
 5749TIP3    H141442   5.137   1.829   7.879 -0.0160  2.0404 -1.6006
 5749TIP3    H241443   5.110   1.756   7.750 -0.1214 -3.2338  1.1189
 5750TIP3   OH241444   3.388   4.301   6.573 -0.3016 -0.0730  0.0892
 5750TIP3    H141445   3.429   4.349   6.502  0.8810  0.6444  1.2058
 5750TIP3    H241446   3.428   4.336   6.652  0.7430 -2.9647  0.9890
 5751TIP3   OH241447   2.266   6.056   6.909  0.3669  0.6403  0.0498
 5751TIP3    H141448   2.255   5.986   6.844  2.1336 -0.3350  0.7428
 5751TIP3    H241449   2.221   6.023   6.987 -2.1718  2.0148 -0.7140
 5752TIP3   OH241450   3.056   0.457   6.280 -0.0865  0.5946  0.2527
 5752TIP3    H141451   3.109   0.385   6.245 -0.9927 -0.6545  1.3145
 5752TIP3    H241452   3.028   0.506   6.203  0.1705 -0.4789 -0.5557
 5753TIP3   OH241453   5.148   5.097   7.726 -0.3746 -1.1024 -0.7432
 5753TIP3    H141454   5.112   5.180   7.756 -1.5898 -2.3098  1.4412
 5753TIP3    H241455   5.112   5.086   7.638 -2.3525 -0.4914 -0.0731
 5754TIP3   OH241456   0.646   0.364   9.283 -0.3357 -0.0584 -0.5442
 5754TIP3    H141457   0.697   0.349   9.363 -0.5715 -0.5460 -0.4832
 5754TIP3    H241458   0.699   0.426   9.232  0.0379 -0.1098 -0.2239
 5755TIP3   OH241459   6.069   4.671   6.235 -0.0093 -0.0438 -0.0065
 5755TIP3    H141460   6.147   4.666   6.290 -0.0754 -0.3364  0.0624
 5755TIP3    H241461   6.074   4.757   6.194  0.5531 -0.2144 -0.3047
 5756TIP3   OH241462   2.327   4.900   7.930  0.3699 -0.2487 -0.4712
 5756TIP3    H141463   2.405   4.936   7.889 -0.0896  0.1858 -0.9660
 5756TIP3    H241464   2.347   4.901   8.024 -0.0199  2.2999 -0.3454
 5757TIP3   OH241465   5.465   6.544   6.040  0.5648 -0.1414 -0.3348
 5757TIP3    H141466   5.495   6.514   5.954  1.9193 -1.8083  0.6474
 5757TIP3    H241467   5.459   6.464   6.092  0.9123  0.9420  1.4474
 5758TIP3   OH241468   2.246   0.905   6.499  0.0553  0.0202  0.0007
 5758TIP3    H141469   2.274   0.978   6.445  0.8611  0.5031  1.0346
 5758TIP3    H241470   2.155   0.924   6.521 -0.9196 -1.0934 -2.6190
 5759TIP3   OH241471   0.600   5.214   6.978  0.0086  0.8309  0.1853
 5759TIP3    H141472   0.592   5.149   6.909  2.0838  0.1072  0.5557
 5759TIP3    H241473   0.578   5.297   6.935  1.7236  0.4621 -1.5107
 5760TIP3   OH241474   2.888   0.259   7.853  0.1427  0.1309  0.2793
 5760TIP3    H141475   2.913   0.276   7.762  0.8119  0.5600  0.5383
 5760TIP3    H241476   2.845   0.173   7.851  1.4946 -0.5534 -0.2012
 5761TIP3   OH241477   3.026   2.885   7.101  0.0325 -0.0457  0.0753
 5761TIP3    H141478   2.952   2.892   7.161  0.5628 -1.6537  0.9612
 5761TIP3    H241479   2.987   2.884   7.014 -0.9041  0.0067  0.4881
 5762TIP3   OH241480   2.543   4.489   7.288  0.1617  0.3299  0.5704
 5762TIP3    H141481   2.630   4.486   7.247  0.4033 -0.0677  1.0954
 5762TIP3    H241482   2.521   4.397   7.303 -0.6315  0.3980 -0.1318
 5763TIP3   OH241483   1.434   4.040   7.003  0.0485 -0.3626  0.1212
 5763TIP3    H141484   1.370   3.970   7.014  0.6507 -0.9209  0.0991
 5763TIP3    H241485   1.462   4.033   6.912  0.0363 -0.0225  0.0900
 5764TIP3   OH241486   0.190   4.078   5.755  0.8008 -0.6773  0.3741
 5764TIP3    H141487   0.138   4.134   5.697  1.4457 -0.3516  0.1003
 5764TIP3    H241488   0.140   3.997   5.760 -0.5762  0.1775  1.4287
 5765TIP3   OH241489   6.629   2.933   8.340  0.4103 -0.0810 -0.0930
 5765TIP3    H141490   6.662   2.873   8.407 -1.2255  0.3689  1.1733
 5765TIP3    H241491   6.559   2.883   8.296 -2.4220  1.4296  2.3394
 5766TIP3   OH241492   3.489   1.412   8.438 -0.2915  0.3304 -0.0928
 5766TIP3    H141493   3.440   1.334   8.466  1.9150 -1.0858  0.0721
 5766TIP3    H241494   3.473   1.476   8.507 -0.7744 -0.5827  0.6747
 5767TIP3   OH241495   1.682   3.647   6.053 -0.7086 -0.0749  0.2437
 5767TIP3    H141496   1.775   3.647   6.075 -0.9609  0.1544  1.4023
 5767TIP3    H241497   1.664   3.739   6.030 -0.6117 -0.1605 -0.1860
 5768TIP3   OH241498   5.514   5.909   7.385 -0.4599  0.4711  0.3464
 5768TIP3    H141499   5.544   5.821   7.408  2.5555  1.0020 -1.0815
 5768TIP3    H241500   5.433   5.894   7.336 -2.2300 -1.1415  3.4557
 5769TIP3   OH241501   1.209   4.047   6.366  0.1481  0.3882 -0.3495
 5769TIP3    H141502   1.144   3.993   6.321  0.8382  0.3551 -1.3451
 5769TIP3    H241503   1.238   3.993   6.440 -0.4918  0.1553 -0.2599
 5770TIP3   OH241504   1.672   6.078   8.386  0.2894  0.3319  0.3504
 5770TIP3    H141505   1.750   6.133   8.397  0.9081  0.1217 -2.2261
 5770TIP3    H241506   1.601   6.141   8.372  0.3494  0.5106  0.8493
 5771TIP3   OH241507   2.050   1.504   9.070 -0.0164 -0.4652  0.3105
 5771TIP3    H141508   2.123   1.475   9.015 -0.3062  0.0744 -0.3709
 5771TIP3    H241509   2.026   1.426   9.120 -1.5811 -1.8265 -2.3615
 5772TIP3   OH241510   0.837   1.236   5.391 -0.2311  0.5682 -0.1466
 5772TIP3    H141511   0.877   1.322   5.402 -0.2570  0.4713  0.7604
 5772TIP3    H241512   0.748   1.255   5.361 -0.2455  0.8620  0.0804
 5773TIP3   OH241513   3.235   2.684   8.269 -0.0372  0.8670  0.2068
 5773TIP3    H141514   3.290   2.634   8.208  0.7866 -1.0424  2.3662
 5773TIP3    H241515   3.277   2.673   8.354 -2.4488  1.3735  1.5683
 5774TIP3   OH241516   0.466   2.624   7.055  0.0517  0.1968 -0.2597
 5774TIP3    H141517   0.555   2.597   7.033  0.3533 -0.2873  1.4612
 5774TIP3    H241518   0.475   2.712   7.092 -0.1289 -0.0430  0.3593
 5775TIP3   OH241519   4.554   6.110   6.316 -0.7247  0.1280 -0.0120
 5775TIP3    H141520   4.462   6.129   6.334 -0.5626 -0.2452  1.3332
 5775TIP3    H241521   4.556   6.015   6.302 -0.3837 -0.0583  1.1906
 5776TIP3   OH241522   1.887   2.089   8.002 -0.3873 -0.1918 -0.5728
 5776TIP3    H141523   1.873   2.113   7.910 -2.0862  2.4320  0.2281
 5776TIP3    H241524   1.807   2.043   8.026  0.0002 -0.7594 -0.3708
 5777TIP3   OH241525   6.636   0.606   6.046  0.6337 -0.2284  0.3827
 5777TIP3    H141526   6.709   0.611   6.107  0.1452  0.3549  0.9309
 5777TIP3    H241527   6.622   0.696   6.017 -0.0923 -0.2793  0.5514
 5778TIP3   OH241528   2.229   1.368   8.323  0.2693  0.4984 -0.4220
 5778TIP3    H141529   2.177   1.441   8.356 -0.9373  0.2437 -1.6589
 5778TIP3    H241530   2.194   1.291   8.367  0.4120  0.4740 -0.3530
 5779TIP3   OH241531   0.125   2.364   8.555 -0.0516  0.1860 -0.5984
 5779TIP3    H141532   0.169   2.287   8.520 -0.5060 -0.4629  0.2398
 5779TIP3    H241533   0.034   2.355   8.527 -0.2481  0.0672  0.0621
 5780TIP3   OH241534   1.382   3.510   5.910 -0.4598  0.1708 -0.4838
 5780TIP3    H141535   1.314   3.453   5.875  1.0403 -1.3773 -1.0161
 5780TIP3    H241536   1.459   3.453   5.917  0.9136  1.9729 -0.3559
 5781TIP3   OH241537   0.081   1.311   7.006  0.3588 -0.6159 -0.4030
 5781TIP3    H141538   0.124   1.343   7.085 -0.6647 -0.0516 -0.0422
 5781TIP3    H241539   0.048   1.390   6.964 -0.8948 -1.0577 -0.2977
 5782TIP3   OH241540   0.547   0.114   7.520 -0.3302 -0.4426  0.5796
 5782TIP3    H141541   0.488   0.188   7.528  1.4963  1.0894  0.7278
 5782TIP3    H241542   0.525   0.074   7.436  0.1083  1.6785 -0.6202
 5783TIP3   OH241543   5.580   6.485   5.811 -0.3021  0.0505  0.0219
 5783TIP3    H141544   5.644   6.445   5.753 -0.2237 -1.0989  0.8699
 5783TIP3    H241545   5.515   6.525   5.752  1.5135  1.8910 -0.8829
 5784TIP3   OH241546   2.865   1.732   7.218  0.0706  0.4883  0.4033
 5784TIP3    H141547   2.781   1.730   7.173  1.7748  0.2364 -3.0642
 5784TIP3    H241548   2.882   1.825   7.232 -1.5268  0.5083  2.9617
 5785TIP3   OH241549   1.395   1.089   8.439  0.0088 -0.1507  0.0036
 5785TIP3    H141550   1.404   1.015   8.500 -1.0055 -1.1377 -0.9920
 5785TIP3    H241551   1.344   1.053   8.366  1.9993  0.7114 -1.8939
 5786TIP3   OH241552   3.831   1.977   7.291  0.2490  0.0618  0.0955
 5786TIP3    H141553   3.863   1.943   7.207 -0.0216  0.4952 -0.1829
 5786TIP3    H241554   3.899   1.953   7.354  0.2496 -0.6541 -0.1669
 5787TIP3   OH241555   2.159   0.665   7.718 -0.8738 -0.3761 -0.0203
 5787TIP3    H141556   2.102   0.734   7.685 -2.7535 -2.9675 -2.7737
 5787TIP3    H241557   2.214   0.641   7.643 -0.5709 -2.0835  0.6896
 5788TIP3   OH241558   3.476   1.869   7.827  0.1198  0.4749 -0.3638
 5788TIP3    H141559   3.542   1.907   7.885 -2.1997  1.3659  1.9501
 5788TIP3    H241560   3.421   1.944   7.802 -0.4064 -0.3166 -1.6405
 5789TIP3   OH241561   1.730   4.622   6.787 -0.1426  0.1467 -0.1881
 5789TIP3    H141562   1.711   4.583   6.872  0.5353  1.1958  0.4622
 5789TIP3    H241563   1.680   4.568   6.724 -0.2560 -0.9403  0.8024
 5790TIP3   OH241564   4.868   0.635   7.578  0.2767  0.4677  0.1605
 5790TIP3    H141565   4.852   0.639   7.673  0.6248  0.3572  0.2252
 5790TIP3    H241566   4.796   0.685   7.540  0.1887  0.5982  0.4905
 5791TIP3   OH241567   1.181   5.079   5.973  0.1565  0.1109  0.2371
 5791TIP3    H141568   1.227   5.057   5.892  1.4003 -0.9753  1.2013
 5791TIP3    H241569   1.244   5.130   6.023 -0.1054 -0.4007  1.1022
 5792TIP3   OH241570   4.245   5.941   8.068 -0.5752 -0.1960 -0.4263
 5792TIP3    H141571   4.333   5.903   8.059 -0.7480 -0.8085  0.3572
 5792TIP3    H241572   4.256   6.033   8.044  0.6095  0.1119  1.1347
 5793TIP3   OH241573   4.496   5.354   7.829  0.6860 -0.2457 -0.0524
 5793TIP3    H141574   4.424   5.399   7.785 -0.8336 -1.0500  1.5030
 5793TIP3    H241575   4.473   5.261   7.823  0.1835 -0.3831  2.6832
 5794TIP3   OH241576   5.699   1.617   7.010 -0.3405  0.3997 -0.7892
 5794TIP3    H141577   5.785   1.657   7.027 -0.0619  0.1686 -1.6381
 5794TIP3    H241578   5.704   1.531   7.051  0.5174 -0.3620 -2.4087
 5795TIP3   OH241579   1.479   0.342   7.106  0.2504  0.2181 -0.1445
 5795TIP3    H141580   1.400   0.308   7.146 -0.1955  1.5985  0.1811
 5795TIP3    H241581   1.491   0.288   7.027 -1.7877  0.8599 -0.9502
 5796TIP3   OH241582   1.261   0.967   8.216 -0.6446 -0.0180  0.2165
 5796TIP3    H141583   1.242   1.055   8.185 -1.0115  0.2839  1.2789
 5796TIP3    H241584   1.176   0.932   8.243 -0.6695 -1.0709 -1.1098
 5797TIP3   OH241585   1.666   0.099   6.747 -0.2987  0.3952 -0.1313
 5797TIP3    H141586   1.760   0.079   6.749  0.3347  2.9833 -0.2438
 5797TIP3    H241587   1.624   0.016   6.769  2.0099 -0.8107  0.1262
 5798TIP3   OH241588   2.028   0.545   6.052 -0.3784  0.2898 -0.1981
 5798TIP3    H141589   2.086   0.618   6.076 -0.5538  0.1255  0.7787
 5798TIP3    H241590   2.016   0.497   6.134 -0.2146 -0.8743 -0.8421
 5799TIP3   OH241591   0.686   1.551   8.757  0.9392 -0.5021  0.6694
 5799TIP3    H141592   0.752   1.491   8.791  0.5726 -0.9272  0.6278
 5799TIP3    H241593   0.603   1.519   8.792  0.7496  0.0361  0.7259
 5800TIP3   OH241594   0.542   2.089   8.224 -0.0193 -0.0178  0.0791
 5800TIP3    H141595   0.613   2.058   8.281  0.3206  0.5771 -0.0121
 5800TIP3    H241596   0.538   2.024   8.153  0.0918 -0.3254  0.3519
 5801TIP3   OH241597   1.520   4.293   5.579  0.0543  0.1857  0.1623
 5801TIP3    H141598   1.469   4.226   5.534  1.1681  0.8673 -2.2803
 5801TIP3    H241599   1.592   4.245   5.621  0.7446 -0.2149 -1.4180
 5802TIP3   OH241600   1.739   5.784   5.899 -0.2692  0.0242 -0.7799
 5802TIP3    H141601   1.760   5.843   5.827 -2.4372  2.0373  0.1045
 5802TIP3    H241602   1.683   5.717   5.859  0.0085  0.0919 -1.2955
 5803TIP3   OH241603   0.784   2.609   8.168  0.2635 -0.1220  0.0512
 5803TIP3    H141604   0.798   2.682   8.229 -1.0398 -0.2379  0.5173
 5803TIP3    H241605   0.742   2.648   8.092 -1.3747 -0.4971  0.7158
 5804TIP3   OH241606   0.969   0.239   7.961 -0.0452  0.1065  0.3510
 5804TIP3    H141607   1.015   0.316   7.995  0.5599 -0.3073  0.4864
 5804TIP3    H241608   0.972   0.176   8.032  2.4663 -1.2903 -0.8355
 5805TIP3   OH241609   0.051   3.717   6.401 -0.2317  0.7816  0.0784
 5805TIP3    H141610   0.094   3.672   6.329 -1.4377 -1.3515  0.5995
 5805TIP3    H241611   0.108   3.703   6.476 -0.0217  1.1531 -0.0123
 5806TIP3   OH241612   5.809   3.710   7.075  0.1099  0.0681 -0.0827
 5806TIP3    H141613   5.719   3.677   7.074 -0.1154  0.6559 -1.4048
 5806TIP3    H241614   5.844   3.682   7.159 -0.6820 -1.8451 -0.3464
 5807TIP3   OH241615   3.068   4.795   8.245 -0.0199  0.3109  0.3583
 5807TIP3    H141616   3.039   4.779   8.155  0.5073  1.0088  0.0518
 5807TIP3    H241617   3.090   4.888   8.247 -1.5896  0.7084  1.6767
 5808TIP3   OH241618   4.882   2.596   6.618 -0.0680  0.1909 -0.0702
 5808TIP3    H141619   4.817   2.653   6.576  0.7787  1.8274  0.7542
 5808TIP3    H241620   4.849   2.507   6.603 -0.9804  0.8169 -2.1638
 5809TIP3   OH241621   5.917   0.659   6.629  0.3095 -0.0055  0.0575
 5809TIP3    H141622   5.875   0.601   6.565  0.9975 -0.1636 -0.2651
 5809TIP3    H241623   5.958   0.727   6.576  0.9610 -0.1843  0.3223
 5810TIP3   OH241624   3.904   2.742   7.896  0.5045 -0.1211 -0.0957
 5810TIP3    H141625   3.814   2.708   7.897  1.3745 -2.6154  0.1454
 5810TIP3    H241626   3.955   2.672   7.854  2.4710  0.8877  0.5215
 5811TIP3   OH241627   1.831   1.126   7.537 -0.4735 -0.1987  0.0445
 5811TIP3    H141628   1.863   1.045   7.576 -0.4319 -0.5508 -0.7122
 5811TIP3    H241629   1.751   1.146   7.586 -1.2882 -1.4842 -0.7273
 5812TIP3   OH241630   0.849   0.790   7.048 -0.6493  0.3180 -0.2989
 5812TIP3    H141631   0.850   0.732   6.971  1.9295  0.4457 -0.4316
 5812TIP3    H241632   0.830   0.731   7.122 -2.0224  0.0148 -0.8474
 5813TIP3   OH241633   4.700   4.797   4.922 -1.0286 -0.4019  0.2744
 5813TIP3    H141634   4.750   4.774   4.845  1.3332 -2.4216  2.2330
 5813TIP3    H241635   4.673   4.713   4.960 -2.1414  0.5092  1.6527
 5814TIP3   OH241636   0.397   3.538   5.757 -0.4513  0.1007 -0.6989
 5814TIP3    H141637   0.411   3.450   5.723  0.6782  0.0567 -0.1629
 5814TIP3    H241638   0.302   3.545   5.768 -0.4355 -1.8690  1.3316
 5815TIP3   OH241639   6.309   3.929   7.881 -0.1451  0.3261  0.0936
 5815TIP3    H141640   6.343   3.965   7.800 -2.0361  0.6101 -0.6399
 5815TIP3    H241641   6.385   3.892   7.926  1.2940  2.1597 -0.7417
 5816TIP3   OH241642   1.516   0.048   7.682  0.1742  0.0047  0.6326
 5816TIP3    H141643   1.519   0.090   7.767  2.3783  1.9597 -0.3079
 5816TIP3    H241644   1.428   0.068   7.648 -0.8734 -1.1424  2.5167
 5817TIP3   OH241645   4.705   2.128   6.432  0.2292 -0.0434  0.2164
 5817TIP3    H141646   4.708   2.216   6.471  0.5995 -0.3092  0.7965
 5817TIP3    H241647   4.795   2.096   6.439  0.1075 -0.4477 -0.0511
 5818TIP3   OH241648   5.876   4.586   5.585  0.3752 -0.4040  0.2835
 5818TIP3    H141649   5.782   4.602   5.575  0.1405  0.7852  3.4694
 5818TIP3    H241650   5.911   4.599   5.496 -2.1391  1.5238 -0.5621
 5819TIP3   OH241651   1.641   3.927   6.523  0.2634  0.3452 -0.6123
 5819TIP3    H141652   1.633   3.966   6.436 -0.1399 -0.1486 -0.7986
 5819TIP3    H241653   1.734   3.906   6.530  0.3504  0.6522 -0.8076
 5820TIP3   OH241654   0.481   1.691   6.300 -0.2182  0.0092 -0.0135
 5820TIP3    H141655   0.536   1.661   6.227  0.5410  0.8344  0.1963
 5820TIP3    H241656   0.526   1.660   6.378 -1.1503 -1.0644  0.1168
 5821TIP3   OH241657   6.113   2.856   6.007  0.5810  0.4578 -0.0766
 5821TIP3    H141658   6.061   2.935   5.991 -0.9415 -0.1045  1.6578
 5821TIP3    H241659   6.080   2.792   5.944 -0.6103  0.2377  0.7295
 5822TIP3   OH241660   0.255   5.701   7.624  0.3176 -0.2801  0.4583
 5822TIP3    H141661   0.197   5.713   7.548  0.7575 -0.5898  0.0706
 5822TIP3    H241662   0.306   5.623   7.603  2.3206  1.1067 -0.1325
 5823TIP3   OH241663   6.367   4.793   6.653  0.6454  0.0003 -0.4039
 5823TIP3    H141664   6.459   4.776   6.634  0.9310 -0.9230  1.4975
 5823TIP3    H241665   6.368   4.836   6.739 -0.6732 -0.0323 -0.3522
 5824TIP3   OH241666   3.530   4.349   5.578  0.0677  0.2181 -0.0154
 5824TIP3    H141667   3.453   4.386   5.621 -0.7538 -0.5406 -0.7867
 5824TIP3    H241668   3.591   4.330   5.650 -0.2533  1.2849  0.5547
 5825TIP3   OH241669   4.002   3.825   5.376 -0.0651 -0.4640  0.2421
 5825TIP3    H141670   4.068   3.794   5.438  0.8571 -0.6360 -0.7841
 5825TIP3    H241671   3.939   3.753   5.371 -1.0880  0.2285  2.2196
 5826TIP3   OH241672   1.514   4.516   5.748  0.4474  0.1517 -0.4711
 5826TIP3    H141673   1.439   4.567   5.779  0.3359 -0.3105  0.0372
 5826TIP3    H241674   1.481   4.465   5.675  0.1364 -0.4178  0.0611
 5827TIP3   OH241675   5.717   3.753   5.726 -0.2957  0.1729 -0.0754
 5827TIP3    H141676   5.750   3.705   5.802  0.3537 -0.9350 -1.0226
 5827TIP3    H241677   5.784   3.821   5.710 -0.9325  1.0661  0.9193
 5828TIP3   OH241678   0.759   0.764   8.271 -0.0551 -0.0363 -0.1225
 5828TIP3    H141679   0.762   0.850   8.313  1.3278 -1.2119  2.3494
 5828TIP3    H241680   0.788   0.703   8.338 -2.9971 -2.7779 -1.0977
 5829TIP3   OH241681   0.566   0.388   6.658 -0.3798 -0.2359  0.7343
 5829TIP3    H141682   0.496   0.323   6.646 -0.7823  0.5589 -1.9257
 5829TIP3    H241683   0.641   0.352   6.612 -0.2803  0.7077  0.1404
 5830TIP3   OH241684   3.010   2.431   7.441 -0.2924 -0.0589  0.3981
 5830TIP3    H141685   3.057   2.472   7.513 -1.0205  0.3476  0.6447
 5830TIP3    H241686   3.027   2.488   7.366  1.8725 -1.3724 -0.2001
 5831TIP3   OH241687   0.581   2.424   8.516 -0.0863 -0.2109  1.0472
 5831TIP3    H141688   0.495   2.456   8.488  0.3268  2.2196  2.2454
 5831TIP3    H241689   0.583   2.333   8.488 -3.2332 -0.4943  1.3665
 5832TIP3   OH241690   6.499   2.083   6.832 -0.0931 -0.3246  0.6203
 5832TIP3    H141691   6.509   2.077   6.737  0.0623  3.1576  0.2712
 5832TIP3    H241692   6.569   2.142   6.859 -0.3351 -1.0025  2.8744
 5833TIP3   OH241693   6.050   4.483   8.517  0.5514 -0.2858 -1.0150
 5833TIP3    H141694   6.043   4.412   8.581  0.7994  0.2837 -0.3393
 5833TIP3    H241695   6.049   4.563   8.570  0.3637  0.2158 -1.7547
 5834TIP3   OH241696   4.482   3.462   5.702 -0.0104 -0.3671  0.5413
 5834TIP3    H141697   4.560   3.479   5.649 -1.1240 -0.6221 -1.2638
 5834TIP3    H241698   4.461   3.547   5.742 -0.3740  0.4110 -1.2060
 5835TIP3   OH241699   3.607   5.751   5.350 -0.3880 -0.3460  0.7206
 5835TIP3    H141700   3.610   5.724   5.258 -0.0531  1.6041  0.0938
 5835TIP3    H241701   3.681   5.707   5.391 -0.0553 -0.6116 -0.1450
 5836TIP3   OH241702   1.216   1.540   6.938 -0.2380  0.1204  0.5625
 5836TIP3    H141703   1.260   1.489   7.006  1.4020  0.8152  0.0820
 5836TIP3    H241704   1.124   1.515   6.944  0.3680 -2.2487  0.8882
 5837TIP3   OH241705   2.384   0.445   8.971 -0.1115  0.4233 -0.0591
 5837TIP3    H141706   2.479   0.455   8.964 -0.1623  0.0148 -1.7294
 5837TIP3    H241707   2.352   0.535   8.983  0.5227  0.4582  1.7911
 5838TIP3   OH241708   4.125   4.608   7.110 -0.3555  0.6882  0.3227
 5838TIP3    H141709   4.127   4.701   7.089  1.1410  0.6935  0.4272
 5838TIP3    H241710   4.198   4.570   7.060  0.0086 -0.1619  1.4655
 5839TIP3   OH241711   1.488   1.221   7.941  0.2459 -0.1234  0.0946
 5839TIP3    H141712   1.464   1.245   8.030 -2.3819  1.7147 -0.9826
 5839TIP3    H241713   1.438   1.142   7.922 -1.3951  1.0099 -0.5599
 5840TIP3   OH241714   2.713   2.475   6.223  0.5354  0.3185 -0.2382
 5840TIP3    H141715   2.717   2.451   6.316 -0.1194  1.0821  0.0028
 5840TIP3    H241716   2.765   2.408   6.179 -1.5095 -1.7850  0.3301
 5841TIP3   OH241717   1.727   6.026   7.983 -0.1169  0.0512 -0.0392
 5841TIP3    H141718   1.683   5.947   8.013 -0.6533  1.0354  1.9624
 5841TIP3    H241719   1.656   6.089   7.969  0.4613  0.8893  0.7342
 5842TIP3   OH241720   4.201   1.629   6.451  0.6227  0.0307 -0.2052
 5842TIP3    H141721   4.185   1.538   6.430  0.7228 -0.0416  0.0263
 5842TIP3    H241722   4.132   1.677   6.405  0.4303 -0.1789 -0.1381
 5843TIP3   OH241723   3.658   6.047   6.291 -0.5063 -0.3732 -0.1729
 5843TIP3    H141724   3.691   5.974   6.239 -0.0880  0.5247 -1.1925
 5843TIP3    H241725   3.735   6.085   6.332 -0.4032  0.8595 -1.4393
 5844TIP3   OH241726   0.185   1.948   8.255  0.1497 -0.6862  0.5140
 5844TIP3    H141727   0.279   1.947   8.236  0.3389 -0.1479  1.3817
 5844TIP3    H241728   0.150   1.876   8.203  1.2359 -1.7052  1.1336
 5845TIP3   OH241729   5.254   0.042   6.871  0.0765 -0.1456 -0.0977
 5845TIP3    H141730   5.253   0.003   6.784  0.5472 -0.8689  0.2152
 5845TIP3    H241731   5.256   0.136   6.855  1.0388 -0.2845 -0.8809
 5846TIP3   OH241732   6.360   1.787   5.704 -0.3770  0.1043  0.1498
 5846TIP3    H141733   6.428   1.784   5.636 -0.7327 -0.5177 -0.1842
 5846TIP3    H241734   6.404   1.826   5.779  0.7041 -1.3942  0.3421
 5847TIP3   OH241735   2.795   4.946   6.501  0.2394  0.0157 -0.2639
 5847TIP3    H141736   2.770   4.997   6.425 -0.0304 -1.3689 -1.1266
 5847TIP3    H241737   2.849   4.875   6.466 -0.1310 -0.8127  0.8002
 5848TIP3   OH241738   5.963   5.072   6.966 -0.2859  0.2717 -0.2124
 5848TIP3    H141739   5.876   5.088   6.929  0.0356  1.0167 -0.6706
 5848TIP3    H241740   6.023   5.116   6.906  0.4194 -0.3162  0.0483
 5849TIP3   OH241741   4.853   1.177   6.714  0.2251  0.2357  0.0694
 5849TIP3    H141742   4.800   1.216   6.783 -0.9254  0.9068 -1.1465
 5849TIP3    H241743   4.903   1.109   6.758 -2.8020 -1.5637  1.0617
 5850TIP3   OH241744   3.933   5.522   7.773 -0.2195 -0.3145  0.2359
 5850TIP3    H141745   3.986   5.602   7.772  0.0130 -0.4505  1.0272
 5850TIP3    H241746   3.867   5.538   7.840 -1.4809  0.0285 -1.0374
 5851TIP3   OH241747   6.330   4.941   6.904 -0.2353 -0.3613 -0.3939
 5851TIP3    H141748   6.367   4.876   6.963 -0.3952 -1.1526 -1.1342
 5851TIP3    H241749   6.235   4.926   6.908 -0.3075  0.0936 -0.2783
 5852TIP3   OH241750   4.503   5.021   8.746 -0.2009 -0.4076  0.1164
 5852TIP3    H141751   4.587   5.054   8.778 -0.5780  0.1697  0.5553
 5852TIP3    H241752   4.521   4.933   8.715  0.9888  0.3998 -1.6633
 5853TIP3   OH241753   0.382   3.153   8.010 -0.2565  0.3448 -0.5050
 5853TIP3    H141754   0.425   3.234   8.039 -1.5936  0.6104  0.9339
 5853TIP3    H241755   0.310   3.142   8.072  0.0408 -2.1076 -0.5105
 5854TIP3   OH241756   0.631   5.755   8.016  0.4582  0.2003 -0.3770
 5854TIP3    H141757   0.564   5.771   7.949 -0.6857 -2.4585 -0.0156
 5854TIP3    H241758   0.683   5.683   7.980 -0.0405 -1.1198  1.4281
 5855TIP3   OH241759   6.015   4.111   8.157  0.0431  0.2303 -0.4648
 5855TIP3    H141760   6.090   4.086   8.210  0.0577  0.7661 -0.2300
 5855TIP3    H241761   6.027   4.064   8.074 -0.2548 -1.0329  0.1807
 5856TIP3   OH241762   2.169   1.726   7.319  0.0895 -0.6106 -0.4387
 5856TIP3    H141763   2.168   1.799   7.380  0.4746 -0.9023 -0.0779
 5856TIP3    H241764   2.119   1.657   7.362  0.9870 -1.0783 -0.1030
 5857TIP3   OH241765   2.880   0.102   5.741 -0.0899  0.1342  0.3854
 5857TIP3    H141766   2.933   0.144   5.808 -1.3237 -0.8620  2.0794
 5857TIP3    H241767   2.806   0.065   5.789 -1.6011  0.2905 -1.6855
 5858TIP3   OH241768   1.468   4.896   6.053  0.4385  0.1056 -0.3287
 5858TIP3    H141769   1.533   4.939   6.107 -1.7369  1.2706  1.5619
 5858TIP3    H241770   1.439   4.963   5.990  0.6920 -0.2442 -0.8269
 5859TIP3   OH241771   1.527   2.104   5.872  0.0518 -0.1136 -0.4914
 5859TIP3    H141772   1.553   2.190   5.842 -0.6064 -0.2247 -1.4223
 5859TIP3    H241773   1.607   2.065   5.906  0.3182  0.9185  0.0988
 5860TIP3   OH241774   1.243   5.593   6.396 -0.2863 -0.2862 -0.3702
 5860TIP3    H141775   1.316   5.616   6.339 -1.4276  0.0643 -1.7235
 5860TIP3    H241776   1.166   5.625   6.351 -1.3752 -1.4143  0.6172
 5861TIP3   OH241777   5.332   4.566   8.641 -0.1037  0.5311 -0.4062
 5861TIP3    H141778   5.285   4.644   8.611  0.1281  0.5457 -0.7383
 5861TIP3    H241779   5.271   4.494   8.626 -0.0745  0.5678 -0.7124
 5862TIP3   OH241780   3.372   3.615   8.690 -0.8978  0.1894 -0.2828
 5862TIP3    H141781   3.395   3.632   8.781  1.9879  1.0069 -1.0793
 5862TIP3    H241782   3.285   3.654   8.680 -1.0121  0.6359  1.9405
 5863TIP3   OH241783   6.666   0.068   6.365 -0.2558  0.1008  0.3474
 5863TIP3    H141784   6.658   0.153   6.323 -1.8105 -0.5228 -0.6931
 5863TIP3    H241785   6.718   0.016   6.304 -1.1699 -0.3353 -0.0732
 5864TIP3   OH241786   5.508   5.457   8.068  0.0066 -0.3035  0.9446
 5864TIP3    H141787   5.512   5.464   8.163 -3.3189  0.9100  1.1449
 5864TIP3    H241788   5.556   5.533   8.036  0.7656 -0.4769  1.6499
 5865TIP3   OH241789   1.954   1.026   6.547  0.1636 -0.4831 -0.3163
 5865TIP3    H141790   1.978   1.017   6.455  0.1012 -0.4932 -0.3317
 5865TIP3    H241791   1.962   1.119   6.565 -1.3626 -0.2406 -0.7588
 5866TIP3   OH241792   0.917   3.350   6.081 -0.1239  0.4764 -0.1905
 5866TIP3    H141793   0.984   3.282   6.074 -1.1700 -0.7818  1.5536
 5866TIP3    H241794   0.901   3.376   5.990  1.5799 -0.3068 -0.7622
 5867TIP3   OH241795   2.607   0.686   5.495 -0.7298  0.1207  0.1250
 5867TIP3    H141796   2.658   0.703   5.416 -2.1147  2.3008 -0.3851
 5867TIP3    H241797   2.670   0.695   5.566 -0.1791  2.0876 -0.5231
 5868TIP3   OH241798   3.012   4.470   5.577 -0.4095 -0.0544 -0.7729
 5868TIP3    H141799   3.018   4.391   5.631 -0.4611  0.3322 -0.1930
 5868TIP3    H241800   2.919   4.489   5.572 -0.4408 -0.3125 -1.3446
 5869TIP3   OH241801   0.156   6.698   5.638 -0.5839  0.4412  0.2496
 5869TIP3    H141802   0.131   6.738   5.555  2.7943  0.3009 -0.9912
 5869TIP3    H241803   0.162   6.772   5.699 -1.7091  0.7316  0.0392
 5870TIP3   OH241804   0.565   2.448   7.779 -0.1655  0.5147 -0.2723
 5870TIP3    H141805   0.571   2.534   7.738 -0.8378  0.4105 -0.5998
 5870TIP3    H241806   0.500   2.401   7.727 -0.8543  0.2929  0.7599
 5871TIP3   OH241807   2.185   2.738   7.933  0.5570 -0.2135  0.0832
 5871TIP3    H141808   2.137   2.795   7.873  0.8678  0.5048  0.5013
 5871TIP3    H241809   2.250   2.694   7.878  0.3992 -0.0665 -0.2207
 5872TIP3   OH241810   5.117   2.525   9.101  0.7786  0.2599 -0.7495
 5872TIP3    H141811   5.167   2.588   9.151  1.8200  0.0157 -1.4488
 5872TIP3    H241812   5.062   2.480   9.166  0.5855  1.3455 -0.1484
 5873TIP3   OH241813   0.611   5.217   7.248 -0.0556  0.1458  0.1164
 5873TIP3    H141814   0.605   5.223   7.153 -0.2779  0.4852  0.1495
 5873TIP3    H241815   0.686   5.160   7.265  1.2888  1.7618 -0.2296
 5874TIP3   OH241816   6.171   1.555   7.628  0.1198 -0.2153 -0.3963
 5874TIP3    H141817   6.156   1.623   7.694 -3.6565  2.1896 -3.3209
 5874TIP3    H241818   6.113   1.483   7.654  2.3938 -1.5508  1.4189
 5875TIP3   OH241819   1.172   0.733   7.275 -0.3487 -0.2172 -0.5750
 5875TIP3    H141820   1.245   0.709   7.332 -1.4627  0.4119  1.2042
 5875TIP3    H241821   1.203   0.714   7.186  1.7899 -0.3585  0.1572
 5876TIP3   OH241822   3.612   4.110   5.479 -0.4180  0.1906 -0.1360
 5876TIP3    H141823   3.557   4.185   5.501  0.0715  0.5388 -0.0796
 5876TIP3    H241824   3.594   4.045   5.547  0.2979  0.8541  0.7111
 5877TIP3   OH241825   3.130   1.127   6.173  0.4008  0.4941 -0.5227
 5877TIP3    H141826   3.108   1.038   6.199 -1.7574  1.8752  3.2521
 5877TIP3    H241827   3.050   1.161   6.135  1.0758  0.9905 -1.5421
 5878TIP3   OH241828   0.093   1.171   9.084  0.3355 -0.5020  0.0235
 5878TIP3    H141829   0.165   1.213   9.131 -1.4240  2.1013  0.6079
 5878TIP3    H241830   0.018   1.178   9.143 -0.6252 -2.3429 -0.8972
 5879TIP3   OH241831   5.019   2.766   6.819 -0.0212 -0.3127  0.1230
 5879TIP3    H141832   4.990   2.855   6.798 -0.8018 -0.2744  1.2556
 5879TIP3    H241833   4.976   2.711   6.754  0.3460  0.1205 -0.4931
 5880TIP3   OH241834   2.212   5.618   8.285  0.3819 -0.1329  0.3245
 5880TIP3    H141835   2.274   5.573   8.228 -0.2832  0.1700 -0.6770
 5880TIP3    H241836   2.266   5.676   8.339  0.9342  0.6562 -1.0264
 5881TIP3   OH241837   1.674   0.789   7.676 -0.6445  0.5951 -0.1353
 5881TIP3    H141838   1.618   0.844   7.622 -0.3307  1.8785  0.8066
 5881TIP3    H241839   1.615   0.725   7.716 -1.2692  1.2627  0.0151
 5882TIP3   OH241840   0.452   2.104   7.866 -0.3813  0.3790  0.5336
 5882TIP3    H141841   0.460   2.178   7.805 -0.1581 -0.4514 -0.4747
 5882TIP3    H241842   0.417   2.033   7.813  3.2662 -1.5178  0.2914
 5883TIP3   OH241843   0.903   0.932   6.050 -0.0967  0.3422  0.4183
 5883TIP3    H141844   0.925   0.860   5.990  0.6025 -0.2922  1.4131
 5883TIP3    H241845   0.979   0.990   6.046 -0.7714  1.2004 -0.5869
 5884TIP3   OH241846   0.827   3.683   8.481 -0.4887 -0.0212 -0.2501
 5884TIP3    H141847   0.894   3.637   8.431  1.2118 -0.0479  1.8809
 5884TIP3    H241848   0.779   3.734   8.416  1.2379 -0.4422 -1.9515
 5885TIP3   OH241849   0.765   3.151   8.036  0.1650 -0.2130  0.5500
 5885TIP3    H141850   0.684   3.124   8.079 -0.7945  1.5242 -0.0511
 5885TIP3    H241851   0.807   3.209   8.100 -0.2359  0.7184 -0.0140
 5886TIP3   OH241852   2.370   0.574   6.091 -0.6201 -0.6742  0.1776
 5886TIP3    H141853   2.307   0.640   6.120  0.2312 -0.1297  0.8441
 5886TIP3    H241854   2.456   0.610   6.115 -0.0054 -1.1857 -1.1135
 5887TIP3   OH241855   6.024   1.287   7.698 -0.3438  0.5022  0.0085
 5887TIP3    H141856   5.956   1.238   7.744 -0.0793 -0.8925 -1.0166
 5887TIP3    H241857   6.106   1.243   7.723 -0.0410  0.7979 -0.4543
 5888TIP3   OH241858   5.715   5.486   5.278  0.3755 -0.0766  0.5825
 5888TIP3    H141859   5.706   5.392   5.268  0.5670 -0.0846  0.4763
 5888TIP3    H241860   5.626   5.521   5.264  0.7491  0.0020 -2.2549
 5889TIP3   OH241861   0.136   5.631   6.671 -1.1475  0.0777 -0.2883
 5889TIP3    H141862   0.203   5.698   6.681 -0.1479 -0.6755 -1.6762
 5889TIP3    H241863   0.073   5.670   6.610 -0.8983  0.0133 -0.5912
 5890TIP3   OH241864   3.455   2.571   5.829 -0.0008 -0.2836 -0.1215
 5890TIP3    H141865   3.545   2.558   5.798  0.0086 -1.6212  0.3955
 5890TIP3    H241866   3.464   2.635   5.900  0.4574  0.0287 -0.4490
 5891TIP3   OH241867   2.958   6.191   7.887 -0.4984 -0.3272  0.5261
 5891TIP3    H141868   2.910   6.123   7.934  1.5494 -1.1511  1.5666
 5891TIP3    H241869   3.045   6.153   7.872  0.0336  1.2886 -0.7410
 5892TIP3   OH241870   5.572   4.940   8.339  0.1530 -0.4890  0.5169
 5892TIP3    H141871   5.601   5.030   8.346  0.0138 -0.3732 -0.3039
 5892TIP3    H241872   5.503   4.932   8.405  0.9223 -0.3239  1.3720
 5893TIP3   OH241873   6.078   1.765   8.593 -0.4536 -0.3262 -0.2329
 5893TIP3    H141874   6.078   1.853   8.631 -3.2006 -0.9533  1.5212
 5893TIP3    H241875   6.170   1.742   8.587  0.3224  2.3152  0.0848
 5894TIP3   OH241876   5.478   2.469   8.576  0.5854 -0.4492  0.0085
 5894TIP3    H141877   5.386   2.492   8.558  0.4476 -0.3031  0.8848
 5894TIP3    H241878   5.482   2.375   8.560  0.7050 -0.1903 -1.7366
 5895TIP3   OH241879   6.551   1.365   6.392 -0.1002 -0.3549  0.6499
 5895TIP3    H141880   6.598   1.313   6.458  1.7142  1.6840  1.1122
 5895TIP3    H241881   6.478   1.405   6.440  0.5785  0.2595  1.2030
 5896TIP3   OH241882   1.452   6.221   8.085 -0.0039  0.3783  0.1373
 5896TIP3    H141883   1.530   6.246   8.135  0.5124 -3.4017  1.5743
 5896TIP3    H241884   1.392   6.185   8.151 -1.3625 -0.2685 -1.3785
 5897TIP3   OH241885   5.504   5.272   6.947  0.3122 -0.0979 -0.2965
 5897TIP3    H141886   5.474   5.324   7.021 -0.1844 -1.7666  0.7336
 5897TIP3    H241887   5.548   5.334   6.889  0.7956  1.2395  1.4520
 5898TIP3   OH241888   5.428   6.272   6.121 -0.2412 -0.0094  0.0167
 5898TIP3    H141889   5.414   6.195   6.176  1.0910  1.6871  2.9587
 5898TIP3    H241890   5.519   6.264   6.091 -0.6001 -0.3422 -1.0172
 5899TIP3   OH241891   5.982   6.711   6.931 -0.0756  0.4341 -0.2859
 5899TIP3    H141892   6.060   6.674   6.972  0.9643  0.9373 -1.7358
 5899TIP3    H241893   6.010   6.734   6.842 -1.3152  2.4928 -0.1982
 5900TIP3   OH241894   2.808   4.080   5.588  0.6228  0.1273  0.7330
 5900TIP3    H141895   2.860   4.122   5.657  0.3674  2.3126 -0.3010
 5900TIP3    H241896   2.863   4.084   5.510  0.7523 -1.9660  0.6757
 5901TIP3   OH241897   6.081   0.112   8.273  0.4927 -0.6187 -0.2078
 5901TIP3    H141898   6.031   0.132   8.352 -1.3336  0.0446 -1.4505
 5901TIP3    H241899   6.172   0.106   8.302 -0.2340 -1.3744  2.0809
 5902TIP3   OH241900   0.978   4.113   5.667 -0.3494  0.1150 -0.0893
 5902TIP3    H141901   0.954   4.166   5.591 -0.4765  0.0143 -0.1195
 5902TIP3    H241902   0.958   4.023   5.641 -1.0062  0.1383  0.2983
 5903TIP3   OH241903   4.424   4.786   6.758  0.0872  0.3019  0.6110
 5903TIP3    H141904   4.450   4.729   6.831 -1.3001 -1.1686  0.0045
 5903TIP3    H241905   4.334   4.811   6.778  0.0800  0.8125 -0.0403
 5904TIP3   OH241906   2.695   1.956   7.895  0.0158 -0.0368  0.0588
 5904TIP3    H141907   2.615   1.988   7.852 -1.4154 -1.5517  1.4048
 5904TIP3    H241908   2.718   2.026   7.957 -1.5900 -0.4320  1.1907
 5905TIP3   OH241909   5.821   0.062   6.089  0.3045 -0.0144 -0.6791
 5905TIP3    H141910   5.844   0.070   6.182  1.5770 -1.2519 -0.8605
 5905TIP3    H241911   5.741   0.115   6.080  0.9506  1.3179  0.8031
 5906TIP3   OH241912   5.735   4.259   5.538 -0.7456  0.4334 -0.3375
 5906TIP3    H141913   5.805   4.260   5.603 -0.3312  1.4078 -0.7730
 5906TIP3    H241914   5.708   4.167   5.533  1.0079 -0.1002 -0.7071
 5907TIP3   OH241915   1.242   1.428   5.538 -0.5278 -0.6065  0.7383
 5907TIP3    H141916   1.215   1.339   5.563 -1.6206 -0.4758  0.1272
 5907TIP3    H241917   1.160   1.470   5.509  0.2048  0.1227 -0.3606
 5908TIP3   OH241918   1.198   5.084   8.794 -0.0989 -0.3999  0.6190
 5908TIP3    H141919   1.282   5.121   8.767 -0.4807  0.4869  0.6080
 5908TIP3    H241920   1.133   5.127   8.737 -0.6485 -0.3803  1.2464
 5909TIP3   OH241921   4.241   6.417   8.048 -0.3021  0.0646  0.8853
 5909TIP3    H141922   4.147   6.424   8.033 -0.3520  1.1598  1.6205
 5909TIP3    H241923   4.256   6.464   8.130  0.8542 -0.3211  0.9159
 5910TIP3   OH241924   5.130   0.484   7.724  0.2389  0.0026 -0.1679
 5910TIP3    H141925   5.038   0.463   7.707 -0.1702  0.2961  1.5138
 5910TIP3    H241926   5.174   0.400   7.721  0.0061 -0.1068 -1.3205
 5911TIP3   OH241927   2.447   0.151   5.959 -0.0184 -0.1437 -0.0435
 5911TIP3    H141928   2.523   0.093   5.956 -0.8758 -1.5322  2.2577
 5911TIP3    H241929   2.449   0.197   5.876  2.3495 -1.3849 -0.7760
 5912TIP3   OH241930   4.045   5.087   8.847  0.2084 -0.1732 -0.3064
 5912TIP3    H141931   3.997   5.152   8.898  1.8052  1.8554 -1.2045
 5912TIP3    H241932   4.006   5.091   8.760  0.9915  0.3946 -0.6449
 5913TIP3   OH241933   5.222   4.890   6.792  0.3618  0.8579 -0.6331
 5913TIP3    H141934   5.282   4.824   6.825  2.2933  3.1153  0.7341
 5913TIP3    H241935   5.253   4.909   6.704  0.4237  0.6414 -0.6581
 5914TIP3   OH241936   3.464   0.750   7.844  0.0245 -0.1198 -0.1033
 5914TIP3    H141937   3.461   0.768   7.749  1.0087  1.3410  0.1056
 5914TIP3    H241938   3.531   0.682   7.854  0.2480  0.0498 -0.4209
 5915TIP3   OH241939   1.615   0.758   6.632 -0.7988  0.0674 -0.2757
 5915TIP3    H141940   1.527   0.721   6.643 -0.9339  0.4113 -0.1495
 5915TIP3    H241941   1.608   0.811   6.553 -0.3557 -0.8870 -0.9683
 5916TIP3   OH241942   3.342   1.247   5.593 -0.1955 -0.2954  0.2270
 5916TIP3    H141943   3.328   1.153   5.584  0.2362 -0.2441 -1.3349
 5916TIP3    H241944   3.255   1.282   5.615 -0.9713 -0.7876 -1.8311
 5917TIP3   OH241945   5.336   0.561   6.998  0.4143 -0.2154 -0.1046
 5917TIP3    H141946   5.421   0.581   7.037  1.1521 -0.5137 -1.4880
 5917TIP3    H241947   5.306   0.644   6.961  1.0263 -0.4961 -1.2836
 5918TIP3   OH241948   4.801   3.988   7.499 -0.3765  0.0713  0.2947
 5918TIP3    H141949   4.773   4.069   7.543 -0.8129  0.3576 -0.4867
 5918TIP3    H241950   4.758   3.991   7.414 -1.3616 -1.5639  0.6947
 5919TIP3   OH241951   1.240   6.376   8.749  0.2056 -0.4042  0.0176
 5919TIP3    H141952   1.330   6.390   8.778 -0.2193  0.9764  0.7607
 5919TIP3    H241953   1.188   6.386   8.828 -0.7117  0.1471 -0.6408
 5920TIP3   OH241954   0.306   5.265   7.390  0.0470  0.0714 -0.0360
 5920TIP3    H141955   0.385   5.234   7.346 -0.1584 -1.3856  0.5596
 5920TIP3    H241956   0.236   5.254   7.326  0.3119  1.4806 -0.6078
 5921TIP3   OH241957   0.969   6.049   5.985  0.3779  0.0232  0.1172
 5921TIP3    H141958   0.945   6.112   5.916  1.5602  0.9894  0.5522
 5921TIP3    H241959   0.941   6.091   6.066 -0.4858 -0.8574  0.2920
 5922TIP3   OH241960   6.325   3.476   7.577  0.2561  0.8422 -0.1335
 5922TIP3    H141961   6.381   3.495   7.652 -0.2193 -0.6378  0.6414
 5922TIP3    H241962   6.318   3.559   7.530  0.2652  1.9121  1.6697
 5923TIP3   OH241963   3.296   6.179   7.236 -0.4719 -0.0672  0.2573
 5923TIP3    H141964   3.370   6.179   7.175 -1.0869 -0.9711 -0.5003
 5923TIP3    H241965   3.263   6.090   7.235 -2.5159  0.6375 -0.5852
 5924TIP3   OH241966   3.618   3.691   6.302 -0.5368 -0.3132 -0.2848
 5924TIP3    H141967   3.570   3.772   6.288  0.5225  0.4081  0.1104
 5924TIP3    H241968   3.706   3.709   6.267  0.0820 -0.8532  0.9280
 5925TIP3   OH241969   4.625   5.888   6.699 -0.6273  0.1211  0.0624
 5925TIP3    H141970   4.709   5.843   6.685 -1.1977 -0.7113 -0.7922
 5925TIP3    H241971   4.612   5.884   6.794 -0.0490 -0.3902  0.1293
 5926TIP3   OH241972   4.430   0.508   7.162 -0.4416  0.3539  0.4836
 5926TIP3    H141973   4.349   0.513   7.111 -0.4194  2.1342  0.5777
 5926TIP3    H241974   4.497   0.545   7.106  0.6008 -2.1362 -0.0297
 5927TIP3   OH241975   4.826   1.113   7.635  0.4686 -0.3397 -0.0788
 5927TIP3    H141976   4.752   1.104   7.696  0.4947  1.0230  0.1985
 5927TIP3    H241977   4.785   1.132   7.551  0.4484 -1.7993 -0.4203
 5928TIP3   OH241978   1.658   1.208   8.662  0.2079 -0.2431 -0.2511
 5928TIP3    H141979   1.597   1.178   8.730 -0.3034 -0.2559 -0.7117
 5928TIP3    H241980   1.666   1.302   8.677 -0.6502 -0.0866 -0.7652
 5929TIP3   OH241981   5.398   3.775   7.618 -0.2667  0.5066  0.0077
 5929TIP3    H141982   5.333   3.841   7.640 -1.2383 -0.5433  0.3599
 5929TIP3    H241983   5.467   3.824   7.572 -0.5923  1.8788  0.9205
 5930TIP3   OH241984   0.019   1.925   7.665  0.0371 -0.0862 -0.3077
 5930TIP3    H141985   0.059   1.994   7.611 -1.1932  1.2126  0.3740
 5930TIP3    H241986   0.036   1.953   7.755  1.2583 -1.7453  0.0214
 5931TIP3   OH241987   2.667   2.109   7.347 -0.3244  0.5825 -0.9805
 5931TIP3    H141988   2.709   2.084   7.430  0.2866 -0.1233 -1.4950
 5931TIP3    H241989   2.651   2.203   7.356  2.6194  1.1879 -1.3042
 5932TIP3   OH241990   4.333   0.100   8.129 -0.8930 -0.0924 -0.0050
 5932TIP3    H141991   4.386   0.077   8.053 -1.1079 -0.2765 -0.0984
 5932TIP3    H241992   4.386   0.164   8.176  1.3712 -3.2708  2.1719
 5933TIP3   OH241993   3.430   2.170   8.363  0.2168  0.2587  0.3016
 5933TIP3    H141994   3.471   2.121   8.434  0.7394 -0.5035 -0.4939
 5933TIP3    H241995   3.419   2.258   8.397 -0.9273 -0.4369  1.8605
 5934TIP3   OH241996   1.427   1.085   5.494 -0.0087 -0.1589 -0.0428
 5934TIP3    H141997   1.507   1.133   5.473 -0.3115  0.7144  0.6963
 5934TIP3    H241998   1.432   1.069   5.588 -0.5468 -0.3730 -0.0434
 5935TIP3   OH241999   4.005   6.499   6.768 -0.1483  0.3857 -0.2814
 5935TIP3    H142000   3.998   6.515   6.862  1.2247  0.3766 -0.1684
 5935TIP3    H242001   3.950   6.567   6.728 -0.7114  0.4146  0.5137
 5936TIP3   OH242002   4.840   6.342   5.946 -0.5845  0.0087  0.7435
 5936TIP3    H142003   4.786   6.329   5.868 -1.0429  0.4531  0.9810
 5936TIP3    H242004   4.929   6.326   5.917 -0.8405 -0.7278  0.3428
 5937TIP3   OH242005   1.756   0.805   6.162 -0.2063  0.2029 -0.2202
 5937TIP3    H142006   1.803   0.885   6.141  0.8263  0.5883  2.9524
 5937TIP3    H242007   1.817   0.755   6.217 -1.2621 -2.2328 -1.1460
 5938TIP3   OH242008   1.466   3.799   9.213 -0.0108  0.7752 -0.4840
 5938TIP3    H142009   1.518   3.869   9.251  0.4889  0.0784  0.1323
 5938TIP3    H242010   1.397   3.782   9.277 -0.0222  0.5727 -0.5484
 5939TIP3   OH242011   3.906   6.598   7.003  0.1135  0.4361  0.7198
 5939TIP3    H142012   3.939   6.679   6.965  1.3171 -0.0543  0.6773
 5939TIP3    H242013   3.970   6.574   7.070  1.4634 -2.0421 -1.2879
 5940TIP3   OH242014   3.913   4.783   8.462  0.1361  0.3641  0.1725
 5940TIP3    H142015   3.985   4.784   8.525  0.6243  0.2665 -0.3804
 5940TIP3    H242016   3.834   4.780   8.516  0.4666  2.2561  0.8293
 5941TIP3   OH242017   0.675   4.640   6.837 -0.1656 -0.1224 -0.3928
 5941TIP3    H142018   0.650   4.732   6.843 -0.1776 -0.1759  0.4717
 5941TIP3    H242019   0.760   4.635   6.882 -0.1838 -0.5412 -0.3986
 5942TIP3   OH242020   1.876   3.819   8.198 -0.2750  0.4151 -0.3677
 5942TIP3    H142021   1.914   3.899   8.233 -1.3800  0.3828  1.0104
 5942TIP3    H242022   1.786   3.843   8.176 -0.3912 -0.2496 -0.6332
 5943TIP3   OH242023   0.107   3.558   7.777 -0.2636  0.0421 -0.2013
 5943TIP3    H142024   0.154   3.595   7.852  1.8632 -1.4766 -0.6990
 5943TIP3    H242025   0.067   3.478   7.811 -0.9087  0.3299 -0.2605
 5944TIP3   OH242026   3.887   5.004   6.112  0.1009 -0.5772  0.1844
 5944TIP3    H142027   3.906   4.918   6.075 -3.1875 -1.8276  1.0201
 5944TIP3    H242028   3.970   5.033   6.149  1.7477 -2.5385 -1.7314
 5945TIP3   OH242029   0.432   3.827   8.507  0.3193  0.1201  0.0351
 5945TIP3    H142030   0.441   3.750   8.564  0.9121  0.5236  0.5124
 5945TIP3    H242031   0.430   3.901   8.568 -1.1283  0.4322 -0.3719
 5946TIP3   OH242032   1.958   0.509   5.787  0.0075 -0.0244 -0.2572
 5946TIP3    H142033   1.983   0.526   5.878  1.9367  1.0065 -0.9305
 5946TIP3    H242034   2.016   0.565   5.736 -2.4587  1.0419 -2.0746
 5947TIP3   OH242035   0.136   2.607   7.894 -0.4994  0.5665  0.2552
 5947TIP3    H142036   0.102   2.528   7.938  0.3538  0.8955  1.5774
 5947TIP3    H242037   0.128   2.588   7.801 -0.4009 -1.0533  0.5479
 5948TIP3   OH242038   1.330   6.520   6.937  0.0758  0.2535 -0.7488
 5948TIP3    H142039   1.354   6.453   7.000  1.5234 -0.1870 -1.7212
 5948TIP3    H242040   1.242   6.547   6.963 -0.1051 -1.2380  0.3093
 5949TIP3   OH242041   0.988   3.304   6.466  0.2484 -0.0473 -0.0974
 5949TIP3    H142042   1.073   3.349   6.462  0.3043 -0.2145 -1.5953
 5949TIP3    H242043   0.943   3.344   6.540  0.7932  1.5878 -0.5965
 5950TIP3   OH242044   5.680   1.142   6.916 -0.8987  0.1559 -0.4121
 5950TIP3    H142045   5.622   1.109   6.847 -0.6453 -0.0932 -0.5072
 5950TIP3    H242046   5.733   1.209   6.873 -1.3513  0.6390 -0.2410
 5951TIP3   OH242047   5.227   0.766   8.362 -0.0607 -0.9820  0.1356
 5951TIP3    H142048   5.257   0.715   8.437 -0.9944 -0.4522  0.9040
 5951TIP3    H242049   5.175   0.705   8.310 -1.6718 -0.7170  1.3648
 5952TIP3   OH242050   0.044   6.438   6.860 -0.3328 -0.7643  0.3148
 5952TIP3    H142051   0.057   6.436   6.955  0.3598  2.2893  0.3851
 5952TIP3    H242052   0.130   6.417   6.824  0.2606  1.1562  0.4860
 5953TIP3   OH242053   4.772   4.924   8.527  0.1221 -0.3756  0.6853
 5953TIP3    H142054   4.835   4.853   8.515 -0.4290 -0.6794 -0.5998
 5953TIP3    H242055   4.688   4.880   8.536 -0.0970  0.0836  0.9544
 5954TIP3   OH242056   5.905   1.278   7.115  0.1215  0.2336 -0.3013
 5954TIP3    H142057   5.905   1.222   7.036  0.9458 -0.2942  0.0576
 5954TIP3    H242058   5.951   1.357   7.088  0.2110  0.1432 -0.4174
 5955TIP3   OH242059   5.885   0.059   7.711 -1.0283  0.3266  0.2743
 5955TIP3    H142060   5.887  -0.035   7.727  1.4108  0.1477 -0.7682
 5955TIP3    H242061   5.872   0.068   7.617  0.0554  0.9706  0.1642
 5956TIP3   OH242062   5.829   5.774  15.487 -0.4354 -0.0700  0.3213
 5956TIP3    H142063   5.876   5.827  15.552  2.0561  0.5591 -1.7942
 5956TIP3    H242064   5.867   5.687  15.495 -1.9449 -0.6708  1.3495
 5957TIP3   OH242065   3.512   4.195   7.551 -0.5499  0.0225  0.0956
 5957TIP3    H142066   3.471   4.109   7.563 -0.0817 -0.2133  0.0213
 5957TIP3    H242067   3.582   4.179   7.488 -0.2586  0.4006  0.3223
 5958TIP3   OH242068   2.470   2.911   7.836  0.0158 -0.3431  0.5960
 5958TIP3    H142069   2.383   2.893   7.800  0.9251 -0.3763 -1.7584
 5958TIP3    H242070   2.500   2.826   7.869 -0.6445 -0.4378  0.9637
 5959TIP3   OH242071   3.068   1.198   7.470 -0.0147 -0.6306  0.1877
 5959TIP3    H142072   2.974   1.207   7.456  0.3658  1.9227 -1.4082
 5959TIP3    H242073   3.090   1.270   7.529  0.8407 -1.7188  1.2369
 5960TIP3   OH242074   3.881   0.480   5.696 -0.0467  0.2427 -0.0154
 5960TIP3    H142075   3.835   0.502   5.615  1.6891  2.0345 -0.5977
 5960TIP3    H242076   3.894   0.385   5.692 -0.0984  0.2905 -1.7781
 5961TIP3   OH242077   0.372   1.390   8.596 -0.3535  0.1907  0.1145
 5961TIP3    H142078   0.396   1.444   8.671 -0.3989 -1.5646  1.4400
 5961TIP3    H242079   0.280   1.371   8.608 -0.2903 -0.3497 -0.2289
 5962TIP3   OH242080   0.651   4.173   8.334  0.2165 -0.8764  0.4699
 5962TIP3    H142081   0.633   4.152   8.242  2.4669 -2.4925  0.3002
 5962TIP3    H242082   0.713   4.246   8.330  0.0739 -0.7444  0.6988
 5963TIP3   OH242083   1.606   5.295   7.859 -0.2612 -0.1575  0.0408
 5963TIP3    H142084   1.525   5.344   7.876 -1.0058 -1.7373  1.3118
 5963TIP3    H242085   1.661   5.312   7.936  0.6552  0.8895 -0.8059
 5964TIP3   OH242086   3.110   4.713   6.015  0.2289  0.7056  0.9167
 5964TIP3    H142087   3.029   4.756   5.987  0.2054  0.6758  0.9379
 5964TIP3    H242088   3.178   4.751   5.959  0.2422  0.9254  1.0798
 5965TIP3   OH242089   0.586   1.707   8.383 -0.2327  0.3864  0.2951
 5965TIP3    H142090   0.656   1.648   8.410 -0.0210  0.7829  0.6225
 5965TIP3    H242091   0.520   1.700   8.453  0.2604  1.3202  0.8707
 5966TIP3   OH242092   4.797   0.550   6.318 -0.2468 -0.0149  0.3586
 5966TIP3    H142093   4.710   0.540   6.280 -1.0751  0.3670  2.0788
 5966TIP3    H242094   4.800   0.640   6.349  1.2577  0.3785 -0.7577
 5967TIP3   OH242095   4.579   6.491   6.155  0.7377  0.1626 -0.7554
 5967TIP3    H142096   4.500   6.544   6.154 -0.3965 -1.3978  0.4431
 5967TIP3    H242097   4.548   6.401   6.153  2.5984 -0.5278 -3.1060
 5968TIP3   OH242098   1.006   2.137   8.084  0.0194  0.5469  0.3446
 5968TIP3    H142099   0.947   2.068   8.114 -0.0381  0.2763 -0.3749
 5968TIP3    H242100   0.958   2.218   8.100 -0.3812  0.3518  0.1350
 5969TIP3   OH242101   1.739   2.649   6.064 -0.3504 -0.1214  0.1718
 5969TIP3    H142102   1.821   2.663   6.016 -0.0771 -0.8966  0.3899
 5969TIP3    H242103   1.670   2.661   5.999 -0.1792  2.2253  0.3349
 5970TIP3   OH242104   0.849   6.243   6.424  0.2831 -0.2132 -0.1245
 5970TIP3    H142105   0.828   6.215   6.334  0.4747 -1.5450  0.2290
 5970TIP3    H242106   0.944   6.236   6.429  0.1958 -1.0495  0.4633
 5971TIP3   OH242107   2.842   5.143   7.017  0.1907 -0.2989 -0.0159
 5971TIP3    H142108   2.810   5.054   7.032  1.6128 -1.0628 -1.2398
 5971TIP3    H242109   2.889   5.166   7.097  1.2290 -1.3255 -0.3125
 5972TIP3   OH242110   3.803   1.839   8.758  0.2194 -0.0457  0.6171
 5972TIP3    H142111   3.801   1.868   8.667  1.9593  3.1806  1.4560
 5972TIP3    H242112   3.824   1.918   8.808  0.4786 -1.9180  3.7402
 5973TIP3   OH242113   1.350   1.764   6.890 -0.2054  0.2024  0.0801
 5973TIP3    H142114   1.374   1.731   6.804  3.5002  0.0653  1.0013
 5973TIP3    H242115   1.332   1.686   6.942 -4.1043  0.3098 -0.7826
 5974TIP3   OH242116   2.368   1.303   7.107 -0.6469 -0.5636 -0.2803
 5974TIP3    H142117   2.434   1.267   7.048 -0.0023  2.3146 -1.4639
 5974TIP3    H242118   2.288   1.256   7.085  0.1416 -1.3235 -1.6404
 5975TIP3   OH242119   0.218   0.105   8.125 -0.7311  0.0385 -0.5525
 5975TIP3    H142120   0.151   0.041   8.100 -1.2527  0.6730 -0.8190
 5975TIP3    H242121   0.198   0.127   8.216 -0.9372  0.2894 -0.6576
 5976TIP3   OH242122   5.375   2.303   6.939  0.9077  0.3791 -0.4830
 5976TIP3    H142123   5.399   2.259   7.020  0.3718 -0.7787 -0.9386
 5976TIP3    H242124   5.456   2.346   6.910  1.8597 -1.5293 -0.7954
 5977TIP3   OH242125   1.085   0.440   5.352  0.1498  0.8554 -0.0175
 5977TIP3    H142126   1.048   0.526   5.370 -0.5625  0.6502 -0.4604
 5977TIP3    H242127   1.179   0.455   5.344  0.0097  1.6197 -0.2749
 5978TIP3   OH242128   1.188   4.347   6.735 -0.4908 -0.2711 -0.4794
 5978TIP3    H142129   1.249   4.306   6.673 -2.7455 -0.4292 -2.7448
 5978TIP3    H242130   1.141   4.274   6.775  0.0330 -0.1106  0.4534
 5979TIP3   OH242131   6.613   2.760   6.085  0.1033 -0.0641  0.6915
 5979TIP3    H142132   6.641   2.688   6.028  0.8384  1.4742 -0.9876
 5979TIP3    H242133   6.694   2.809   6.104  0.0917 -1.0525  3.9889
 5980TIP3   OH242134   3.858   1.566   7.283  0.6769  0.0809 -0.9697
 5980TIP3    H142135   3.863   1.626   7.357  0.6774 -0.5062 -0.4828
 5980TIP3    H242136   3.842   1.480   7.323 -0.1270 -0.1192 -1.6999
 5981TIP3   OH242137   4.279   1.284   7.552  0.1072  0.2264  0.3397
 5981TIP3    H142138   4.294   1.331   7.634  1.7620  1.3869 -0.5552
 5981TIP3    H242139   4.258   1.353   7.488 -1.4373 -0.6765 -0.1791
 5982TIP3   OH242140   6.000   0.216   7.469  0.3889 -0.2387  0.4320
 5982TIP3    H142141   5.938   0.143   7.469  1.6795 -1.3742  0.5971
 5982TIP3    H242142   6.028   0.223   7.378 -0.2853  0.5667  0.2722
 5983TIP3   OH242143   5.502   6.669   8.953 -0.6121 -0.0637 -0.1848
 5983TIP3    H142144   5.483   6.740   9.014 -1.7454  0.0618 -0.6697
 5983TIP3    H242145   5.444   6.685   8.878  0.0698 -0.7517 -0.8786
 5984TIP3   OH242146   5.161   1.375   8.269  0.3594 -0.2651 -0.1627
 5984TIP3    H142147   5.215   1.441   8.313 -0.0716 -1.9167  3.1430
 5984TIP3    H242148   5.081   1.422   8.243 -0.6140  0.3598  3.4896
 5985TIP3   OH242149   5.556   2.978   8.209 -0.3087  0.2902 -0.2562
 5985TIP3    H142150   5.520   3.066   8.218 -2.2951 -0.4379 -0.5382
 5985TIP3    H242151   5.555   2.962   8.114 -1.2013 -0.5044 -0.1210
 5986TIP3   OH242152   4.932   1.161   8.919  0.3561 -0.9950 -0.4544
 5986TIP3    H142153   4.881   1.210   8.984  0.1661 -0.3579 -1.0692
 5986TIP3    H242154   4.881   1.082   8.904  0.0909 -0.8591 -0.2798
 5987TIP3   OH242155   5.775   3.880   8.281  0.5088  0.0754  0.3548
 5987TIP3    H142156   5.788   3.826   8.202 -0.4494 -0.6781  0.6937
 5987TIP3    H242157   5.760   3.816   8.351  0.8421  0.7573  1.0620
 5988TIP3   OH242158   5.908   1.952   6.668 -0.3157 -0.6126  0.1330
 5988TIP3    H142159   5.938   1.967   6.578  1.7427 -1.3866  0.6323
 5988TIP3    H242160   5.989   1.938   6.718 -1.1540  2.2215  2.6134
 5989TIP3   OH242161   5.347   5.177   7.982  0.3487  0.9221 -0.1484
 5989TIP3    H142162   5.311   5.091   7.960 -0.3203  1.5356 -1.6198
 5989TIP3    H242163   5.431   5.180   7.935 -0.5474  1.7919 -1.8056
 5990TIP3   OH242164   0.935   4.081   7.514 -0.3832 -0.2913  0.2201
 5990TIP3    H142165   0.900   4.139   7.446  1.1861  0.3562 -0.0691
 5990TIP3    H242166   1.009   4.037   7.472  1.2446  0.8525  1.7746
 5991TIP3   OH242167   5.485   2.956   7.601 -0.6660 -0.2537  0.4490
 5991TIP3    H142168   5.399   2.970   7.641 -1.1604 -0.5787 -0.4615
 5991TIP3    H242169   5.471   2.973   7.508  0.0941 -0.9912  0.1895
 5992TIP3   OH242170   2.575   0.187   8.020 -0.0067 -0.8528 -0.0694
 5992TIP3    H142171   2.593   0.161   8.110 -0.5927  0.1334  0.3605
 5992TIP3    H242172   2.652   0.159   7.970  1.0672 -0.0074  1.0330
 5993TIP3   OH242173   2.739   1.200   5.649 -0.3128  0.3953 -0.2253
 5993TIP3    H142174   2.817   1.155   5.682 -1.0813 -1.1705 -0.4446
 5993TIP3    H242175   2.768   1.241   5.567  0.4665  0.4870  0.0891
 5994TIP3   OH242176   1.288   4.835   7.088  0.8562  0.3934 -0.3327
 5994TIP3    H142177   1.218   4.859   7.028  0.3799  0.7447  0.3542
 5994TIP3    H242178   1.367   4.875   7.050  0.5184  0.8142 -0.5973
 5995TIP3   OH242179   1.627   3.875   7.970  0.4748 -0.0967 -0.5789
 5995TIP3    H142180   1.569   3.914   8.035  1.5838 -1.3632  1.2574
 5995TIP3    H242181   1.583   3.890   7.886 -1.5549  0.6050  0.5538
 5996TIP3   OH242182   1.383   1.341   7.088  0.6781 -0.0439  0.0171
 5996TIP3    H142183   1.397   1.350   7.182  1.1411 -1.7262  0.1437
 5996TIP3    H242184   1.471   1.347   7.050  0.6813 -0.9104 -0.1386
 5997TIP3   OH242185   1.437   0.418   8.473  0.1317 -0.1960 -0.3562
 5997TIP3    H142186   1.358   0.365   8.457  0.1551 -0.0444 -0.9983
 5997TIP3    H242187   1.448   0.416   8.568 -0.0078 -1.1446 -0.3504
 5998TIP3   OH242188   2.739   2.379   7.431  0.4451  0.1787  0.6879
 5998TIP3    H142189   2.724   2.383   7.525  0.5271 -4.6116  1.1440
 5998TIP3    H242190   2.835   2.378   7.422  0.4375  0.0600  0.6171
 5999TIP3   OH242191   2.894   5.456   7.045  0.7652  0.6952  0.1881
 5999TIP3    H142192   2.953   5.400   6.994 -1.1959  0.2650 -1.7752
 5999TIP3    H242193   2.868   5.401   7.119  0.1640 -0.4346 -0.8191
 6000TIP3   OH242194   1.414   2.336   5.615 -0.6422  0.9625  0.0334
 6000TIP3    H142195   1.460   2.399   5.559 -1.6489  1.0336 -0.7543
 6000TIP3    H242196   1.469   2.328   5.693  1.0394  0.5287 -1.1400
 6001TIP3   OH242197   0.054   3.400   7.541 -0.3367 -0.1471 -0.8011
 6001TIP3    H142198   0.067   3.447   7.458 -1.0376  0.2758 -0.6876
 6001TIP3    H242199   0.085   3.462   7.608 -2.9502  0.9929 -0.5063
 6002TIP3   OH242200   5.302   6.364   5.420  0.0329  0.2334  0.5711
 6002TIP3    H142201   5.232   6.412   5.464 -0.8227 -1.8976  1.6724
 6002TIP3    H242202   5.263   6.280   5.396  1.1139  0.4320 -2.3874
 6003TIP3   OH242203   3.056   4.114   8.046  0.4130  0.0578 -0.7015
 6003TIP3    H142204   3.143   4.103   8.084 -0.2449  0.2071  0.9172
 6003TIP3    H242205   3.060   4.199   8.001  1.1594 -0.0526 -0.8623
 6004TIP3   OH242206   4.502   3.791   7.050  0.5430 -0.0939 -0.5655
 6004TIP3    H142207   4.540   3.705   7.067  2.0345  0.2712 -1.7919
 6004TIP3    H242208   4.570   3.838   7.001 -1.4272  0.6448 -2.7811
 6005TIP3   OH242209   6.416   4.565   7.246 -0.3354 -0.5651 -0.2729
 6005TIP3    H142210   6.461   4.581   7.329  0.2096  0.2728 -0.7116
 6005TIP3    H242211   6.343   4.507   7.268 -1.1597  0.9037  1.0799
 6006TIP3   OH242212   5.805   3.888   8.625  0.7234 -0.8405  0.4541
 6006TIP3    H142213   5.724   3.935   8.606  1.6600  1.8320  2.3865
 6006TIP3    H242214   5.839   3.862   8.539 -0.9764  0.0391 -0.5378
 6007TIP3   OH242215   4.830   5.309   8.279 -0.0055  0.1089  0.7874
 6007TIP3    H142216   4.778   5.285   8.356  0.4041  2.2210  1.8042
 6007TIP3    H242217   4.766   5.346   8.218 -0.1140 -0.0945  0.7765
 6008TIP3   OH242218   3.999   3.621   9.313 -0.0513 -0.3848 -0.5720
 6008TIP3    H142219   4.032   3.532   9.326  0.0504 -0.1695  0.7298
 6008TIP3    H242220   3.937   3.635   9.384  2.4531  1.7639  1.3996
 6009TIP3   OH242221   0.729   4.204   7.829  0.6906 -0.2808 -0.0677
 6009TIP3    H142222   0.752   4.297   7.828  0.5248 -0.2459 -1.0569
 6009TIP3    H242223   0.813   4.159   7.824  0.6733 -0.1577 -2.1803
 6010TIP3   OH242224   2.079   2.473   6.857 -0.0537 -0.5230  0.0044
 6010TIP3    H142225   2.040   2.550   6.899  1.7109  0.8194 -0.6612
 6010TIP3    H242226   2.098   2.413   6.929  1.2278  0.9404  0.9608
 6011TIP3   OH242227   1.527   4.563   8.027  0.1522  0.3583  0.4404
 6011TIP3    H142228   1.453   4.586   8.083  0.9547  2.4754  0.7110
 6011TIP3    H242229   1.547   4.643   7.979  2.8826  0.1967  1.1418
 6012TIP3   OH242230   0.182   2.983   8.194  0.7613 -0.2081  0.3513
 6012TIP3    H142231   0.140   2.968   8.110  0.6836  0.0930  0.3345
 6012TIP3    H242232   0.122   2.944   8.258 -1.3448  3.1289  0.6713
 6013TIP3   OH242233   5.563   1.457   6.851  0.3046  0.4008  0.4373
 6013TIP3    H142234   5.621   1.514   6.900  0.6194 -1.4158  2.3323
 6013TIP3    H242235   5.598   1.456   6.762  1.1417  1.9361  0.7260
 6014TIP3   OH242236   0.366   1.401   6.922 -0.1569  0.1334 -0.3009
 6014TIP3    H142237   0.331   1.449   6.847 -2.1559 -0.7242  0.0141
 6014TIP3    H242238   0.323   1.442   6.998  1.4037  0.6170  0.3740
 6015TIP3   OH242239   2.091   4.949   7.043  0.2709 -0.4719  0.5621
 6015TIP3    H142240   2.071   4.914   7.130  1.0314 -1.3642  0.3888
 6015TIP3    H242241   2.086   4.874   6.984  1.0691 -0.1372  0.0467
 6016TIP3   OH242242   3.616   3.672   8.260  0.1510 -0.2375  0.5266
 6016TIP3    H142243   3.689   3.668   8.321  0.5595 -0.3115  0.0418
 6016TIP3    H242244   3.612   3.584   8.222 -1.3134 -0.7834  1.8235
 6017TIP3   OH242245   0.133   3.363   5.947 -0.2116  0.1990  0.4695
 6017TIP3    H142246   0.125   3.311   6.027  1.1356 -0.2816  0.3112
 6017TIP3    H242247   0.090   3.309   5.880 -1.0699  0.4644  0.7906
 6018TIP3   OH242248   0.395   2.760   8.285  0.5132 -0.0884  0.1310
 6018TIP3    H142249   0.311   2.715   8.295  0.1989  0.4985  0.1773
 6018TIP3    H242250   0.396   2.825   8.356 -0.0436  1.5113 -1.2828
 6019TIP3   OH242251   2.519   4.201   5.951 -0.1578  0.0738  0.0313
 6019TIP3    H142252   2.474   4.276   5.988 -1.4057  0.5613 -2.2742
 6019TIP3    H242253   2.493   4.128   6.007 -0.7090  1.0010  1.0169
 6020TIP3   OH242254   5.714   6.167   6.576 -0.0841  0.0653 -0.2311
 6020TIP3    H142255   5.769   6.105   6.527  1.7260  0.5045  1.1307
 6020TIP3    H242256   5.731   6.251   6.534 -0.6400  0.0265 -0.5384
 6021TIP3   OH242257   1.339   2.135   8.954 -0.4940 -0.0087  0.7220
 6021TIP3    H142258   1.427   2.170   8.939 -0.1318 -1.2856 -0.3210
 6021TIP3    H242259   1.281   2.210   8.944  0.2699  0.3681 -1.3109
 6022TIP3   OH242260   5.459   0.939   7.224 -0.3532 -0.0224 -0.6405
 6022TIP3    H142261   5.371   0.903   7.231  0.6261 -2.2204  2.6479
 6022TIP3    H242262   5.450   1.029   7.256 -1.0662 -1.1987  3.0073
 6023TIP3   OH242263   6.257   3.719   7.422 -0.4694 -0.0375 -0.6597
 6023TIP3    H142264   6.198   3.733   7.496  1.6271  0.3693  1.0101
 6023TIP3    H242265   6.265   3.806   7.381  2.4182  1.0837  1.9051
 6024TIP3   OH242266   4.261   2.940   7.450 -0.2090 -0.0237  0.4527
 6024TIP3    H142267   4.276   2.993   7.528  0.8628 -0.9173  0.8781
 6024TIP3    H242268   4.246   3.004   7.380 -1.3473  0.7890  1.3943
 6025TIP3   OH242269   5.858   6.508   7.994 -0.3912 -0.1049 -0.2222
 6025TIP3    H142270   5.904   6.532   7.913  0.0533  0.9070  0.3113
 6025TIP3    H242271   5.768   6.535   7.979 -0.2509  0.3427 -0.2801
 6026TIP3   OH242272   1.065   2.399   6.316 -0.3453 -0.5018  0.1620
 6026TIP3    H142273   0.976   2.422   6.288 -0.3904 -0.9513 -0.0654
 6026TIP3    H242274   1.121   2.434   6.247 -0.2284  1.0071  0.9766
 6027TIP3   OH242275   1.217   5.538   7.191 -0.1407 -0.0772 -0.4392
 6027TIP3    H142276   1.300   5.499   7.218 -0.0168  0.2431 -0.3623
 6027TIP3    H242277   1.223   5.543   7.096 -0.8075 -1.7398 -0.6160
 6028TIP3   OH242278   1.289   2.290   8.157 -0.4525 -0.0761 -0.3321
 6028TIP3    H142279   1.258   2.278   8.067 -0.2452  0.3943 -0.4627
 6028TIP3    H242280   1.384   2.286   8.151 -0.4312  0.1951 -0.1641
 6029TIP3   OH242281   4.926   2.754   7.073  0.0109  0.2550 -0.5205
 6029TIP3    H142282   4.866   2.680   7.061  0.3729 -0.0401 -0.5271
 6029TIP3    H242283   4.971   2.763   6.989 -0.2402  0.6719 -0.6121
 6030TIP3   OH242284   3.550   5.410   7.898 -0.1375 -0.0732  0.3660
 6030TIP3    H142285   3.531   5.319   7.919  0.3131 -0.7867 -1.9712
 6030TIP3    H242286   3.478   5.460   7.939 -1.1578 -1.6172  0.5306
 6031TIP3   OH242287   5.023   4.998   7.972  0.2294 -0.2709 -0.1476
 6031TIP3    H142288   5.029   4.986   7.878 -0.3664  0.0788 -0.2372
 6031TIP3    H242289   5.113   5.020   8.000  0.3335  0.0023 -0.6888
 6032TIP3   OH242290   0.189   0.623   7.765 -0.4259 -0.1578  0.1490
 6032TIP3    H142291   0.141   0.600   7.844  0.9622 -1.1047  0.7499
 6032TIP3    H242292   0.262   0.561   7.761  0.2937  0.7072 -1.1643
 6033TIP3   OH242293   3.958   0.813   8.004  0.2037  0.1466 -0.6501
 6033TIP3    H142294   4.030   0.805   7.943  0.2517  0.7128 -0.6708
 6033TIP3    H242295   3.995   0.789   8.089  0.6588  1.2889 -0.5043
 6034TIP3   OH242296   4.142   2.238   7.369  0.1606 -0.5969 -0.0656
 6034TIP3    H142297   4.179   2.302   7.430  0.3679 -0.4932 -0.3008
 6034TIP3    H242298   4.192   2.249   7.289 -1.1995  0.4538 -0.8290
 6035TIP3   OH242299   4.349   2.698   7.567  0.0019  0.4853 -0.1434
 6035TIP3    H142300   4.294   2.773   7.544  0.0989  0.8994  0.9140
 6035TIP3    H242301   4.413   2.734   7.628  0.6176 -0.2773 -0.3300
 6036TIP3   OH242302   0.931   1.835   7.802 -0.0723 -0.2350  0.2341
 6036TIP3    H142303   1.015   1.872   7.777  0.7423 -2.1853 -0.1486
 6036TIP3    H242304   0.953   1.766   7.865 -1.6229  0.8142  2.0079
 6037TIP3   OH242305   1.605   3.576   7.994 -0.0116 -0.1722  0.6617
 6037TIP3    H142306   1.658   3.552   8.070  2.2590  0.0383 -0.7780
 6037TIP3    H242307   1.596   3.671   7.999  0.5814 -0.1012  0.3940
 6038TIP3   OH242308   1.900   6.356   6.812  0.1866  0.2963  0.0825
 6038TIP3    H142309   1.991   6.326   6.815 -0.2461 -1.0481  1.1256
 6038TIP3    H242310   1.849   6.276   6.824 -1.1134  1.1199  0.1752
 6039TIP3   OH242311   3.817   0.669   7.380  0.3047  0.1854 -0.1563
 6039TIP3    H142312   3.909   0.658   7.357  0.0757 -1.0950 -0.5399
 6039TIP3    H242313   3.774   0.693   7.298 -0.0070 -1.2562 -0.4485
 6040TIP3   OH242314   1.604   4.418   9.335  0.1239 -0.1095  0.0190
 6040TIP3    H142315   1.512   4.394   9.328 -0.1003 -0.7131  3.3026
 6040TIP3    H242316   1.647   4.338   9.365  1.4704  0.5305 -0.1292
 6041TIP3   OH242317   1.760   0.355   6.113 -0.2073  0.5959  0.4199
 6041TIP3    H142318   1.812   0.395   6.182 -0.3088  1.1436  0.1825
 6041TIP3    H242319   1.779   0.407   6.035  2.1864 -1.7472 -0.7261
 6042TIP3   OH242320   0.286   4.642   7.571  0.0303  0.4077  0.5141
 6042TIP3    H142321   0.350   4.598   7.627  0.2199 -1.6522 -1.2083
 6042TIP3    H242322   0.335   4.668   7.493 -0.9619 -0.1754 -0.3356
 6043TIP3   OH242323   3.905   3.447   5.846  0.0050 -0.1703  0.3466
 6043TIP3    H142324   3.946   3.361   5.849 -0.3843 -0.3220  2.6634
 6043TIP3    H242325   3.844   3.441   5.772  0.9414 -1.4019 -0.3660
 6044TIP3   OH242326   6.679   5.813   6.917 -0.1366  0.9807 -0.1386
 6044TIP3    H142327   6.719   5.886   6.964 -1.7262  0.5389  2.0549
 6044TIP3    H242328   6.684   5.739   6.977 -1.6738  0.1978 -0.8944
 6045TIP3   OH242329   3.012   5.516   6.753  0.0812 -0.0019 -0.1868
 6045TIP3    H142330   2.948   5.460   6.711  0.4108 -0.0672 -0.6077
 6045TIP3    H242331   3.073   5.541   6.683  0.0431  0.7327  0.0327
 6046TIP3   OH242332   0.564   4.149   8.067  0.2532  0.0873 -0.1301
 6046TIP3    H142333   0.640   4.138   8.009 -0.8032 -0.7455 -1.3909
 6046TIP3    H242334   0.558   4.244   8.080  0.9813  0.2268 -0.7270
 6047TIP3   OH242335   1.779   0.499   6.866 -0.1848 -1.1779 -0.1160
 6047TIP3    H142336   1.842   0.431   6.893  1.6160  0.5258  0.2324
 6047TIP3    H242337   1.799   0.574   6.922 -2.8635 -0.6650  0.2832
 6048TIP3   OH242338   4.140   1.110   7.063  0.0564 -0.5771 -0.1936
 6048TIP3    H142339   4.050   1.091   7.089  0.5317 -0.5447  1.5705
 6048TIP3    H242340   4.180   1.023   7.050 -0.4797 -0.5856 -2.0009
 6049TIP3   OH242341   1.680   0.918   7.942  0.0063 -0.3522  0.3991
 6049TIP3    H142342   1.587   0.941   7.942  0.2621  0.7754 -1.1738
 6049TIP3    H242343   1.689   0.851   7.875  0.6913  1.3264 -1.2749
 6050TIP3   OH242344   3.298   4.720   5.784 -0.0820  0.0037 -0.4336
 6050TIP3    H142345   3.381   4.767   5.795 -0.0181  0.2174 -1.6792
 6050TIP3    H242346   3.260   4.757   5.705 -2.2520  1.1671  1.0582
 6051TIP3   OH242347   0.860   6.694   5.916  0.1299  0.0263 -0.9493
 6051TIP3    H142348   0.821   6.681   6.003  0.6489 -0.7030 -0.8145
 6051TIP3    H242349   0.826   6.779   5.887 -1.6174 -0.6066 -0.8740
 6052TIP3   OH242350   2.113   3.355   8.421 -0.5516 -0.4705 -0.7534
 6052TIP3    H142351   2.197   3.399   8.405  0.4167 -1.5726  0.9331
 6052TIP3    H242352   2.130   3.263   8.399 -1.6845 -0.5225 -1.4881
 6053TIP3   OH242353   3.850   4.417   5.846  0.2089  0.3210 -0.1641
 6053TIP3    H142354   3.877   4.455   5.763  0.7163 -1.3445 -0.8040
 6053TIP3    H242355   3.782   4.353   5.823 -1.6489  1.7611  1.0251
 6054TIP3   OH242356   2.163   5.842   6.038 -0.8039  0.1629 -0.9298
 6054TIP3    H142357   2.221   5.789   5.983 -0.9927 -1.7286  0.5661
 6054TIP3    H242358   2.219   5.911   6.073  0.2725 -0.9137 -0.4751
 6055TIP3   OH242359   5.016   2.738   5.939 -0.0323 -0.0366  0.6203
 6055TIP3    H142360   5.081   2.795   5.982 -1.2343  1.4548  0.5593
 6055TIP3    H242361   4.984   2.790   5.865 -1.1268 -0.8250  0.5143
 6056TIP3   OH242362   1.469   3.798   7.729 -0.1275 -0.5436  0.1367
 6056TIP3    H142363   1.394   3.744   7.756  1.1101 -2.9362 -0.8656
 6056TIP3    H242364   1.429   3.871   7.682 -1.9538  0.0803  2.4608
 6057TIP3   OH242365   0.414   3.482   7.066 -0.2745  0.4279  0.5700
 6057TIP3    H142366   0.435   3.394   7.034  0.9989  0.3415  1.5924
 6057TIP3    H242367   0.457   3.488   7.151  0.5929  2.4388  0.0390
 6058TIP3   OH242368   1.595   1.074   7.301 -0.3609 -0.0215 -0.3980
 6058TIP3    H142369   1.597   0.986   7.262  0.9997  0.0545 -0.5361
 6058TIP3    H242370   1.646   1.128   7.242  0.2324  0.4925  0.5584
 6059TIP3   OH242371   2.274   0.443   5.881 -0.1599 -0.2943  0.0524
 6059TIP3    H142372   2.185   0.437   5.916 -1.0424  1.1536 -1.7882
 6059TIP3    H242373   2.321   0.497   5.945 -0.7354 -0.6604  0.7955
 6060TIP3   OH242374   6.384   2.058   8.622 -0.6588  0.1912 -0.1719
 6060TIP3    H142375   6.406   2.061   8.716  1.7290 -1.2499 -0.6085
 6060TIP3    H242376   6.416   1.973   8.593  0.9465  1.5820 -2.8132
 6061TIP3   OH242377   2.981   5.225   6.420  0.0920  0.0905 -0.6209
 6061TIP3    H142378   2.966   5.150   6.362  1.3762 -0.2009 -0.6111
 6061TIP3    H242379   3.076   5.233   6.424 -0.0219  1.5751 -0.4183
 6062TIP3   OH242380   6.350   0.045   6.107  0.5147  0.2001 -0.3287
 6062TIP3    H142381   6.354  -0.050   6.106  1.2547  0.2271 -0.6404
 6062TIP3    H242382   6.263   0.066   6.073  0.1965 -0.3667  0.1286
 6063TIP3   OH242383   6.261   5.803   6.463 -0.8858 -0.3089 -0.5991
 6063TIP3    H142384   6.283   5.863   6.392  0.5545 -0.8241 -0.6283
 6063TIP3    H242385   6.325   5.732   6.454  1.5387  1.1386  3.1013
 6064TIP3   OH242386   0.097   1.083   7.696 -0.3023  0.4102  0.1884
 6064TIP3    H142387   0.146   1.157   7.659  0.3326 -0.3637 -0.5406
 6064TIP3    H242388   0.162   1.032   7.744 -0.7778  0.4021  0.8475
 6065TIP3   OH242389   0.249   4.209   5.368  0.2259  0.3433  0.3738
 6065TIP3    H142390   0.267   4.201   5.275 -0.7522 -0.7972  0.2641
 6065TIP3    H242391   0.332   4.241   5.405  1.7804 -2.4051 -0.4303
 6066TIP3   OH242392   5.433   0.692   7.434  0.0591  0.5129  0.4792
 6066TIP3    H142393   5.345   0.670   7.465  0.0697  0.4042  0.4304
 6066TIP3    H242394   5.439   0.787   7.448 -0.8898  0.9260 -1.5923
 6067TIP3   OH242395   2.917   2.236   6.804 -0.0121 -0.1845 -0.1380
 6067TIP3    H142396   2.938   2.300   6.735  0.1924  0.8749  0.8739
 6067TIP3    H242397   3.002   2.196   6.825  0.1396  0.3385  0.2933
 6068TIP3   OH242398   2.241   4.292   5.562  0.1208  0.2198 -0.1383
 6068TIP3    H142399   2.207   4.269   5.648  0.4958  1.6601  0.4431
 6068TIP3    H242400   2.169   4.275   5.501 -0.4725  0.0696  0.5946
 6069TIP3   OH242401   1.584   4.966   7.986  0.4509 -0.1089 -0.6954
 6069TIP3    H142402   1.669   4.964   8.031  1.4779  1.8788 -2.4012
 6069TIP3    H242403   1.599   4.923   7.902  0.7219  2.9744 -2.3557
 6070TIP3   OH242404   2.009   4.729   6.628  0.5096 -0.3601 -0.1694
 6070TIP3    H142405   1.967   4.789   6.690  0.1997 -1.4794  0.7328
 6070TIP3    H242406   1.977   4.756   6.542  3.6655  3.5831 -0.3965
 6071TIP3   OH242407   2.859   6.376   7.691  0.0563 -0.0407  0.0569
 6071TIP3    H142408   2.909   6.329   7.757  1.1181  0.1401 -0.6102
 6071TIP3    H242409   2.887   6.467   7.700  0.0132  0.0254 -0.4840
 6072TIP3   OH242410   2.513   0.234   7.661  0.7625 -0.6507 -0.0510
 6072TIP3    H142411   2.564   0.313   7.678 -0.0824  0.8335 -3.4157
 6072TIP3    H242412   2.422   0.264   7.660  0.4734 -1.3948 -2.1941
 6073TIP3   OH242413   3.040   3.874   7.642  0.4493 -0.1209 -0.1292
 6073TIP3    H142414   2.950   3.850   7.621  0.6590  0.2116 -1.5187
 6073TIP3    H242415   3.044   3.969   7.628  1.4223 -0.3648 -1.8436
 6074TIP3   OH242416   5.503   0.484   7.663  0.2217 -0.2548 -0.2755
 6074TIP3    H142417   5.579   0.427   7.649  1.4331  1.4944 -1.2430
 6074TIP3    H242418   5.435   0.449   7.606  0.8504 -0.8592 -0.6684
 6075TIP3   OH242419   4.559   3.541   7.129  0.1535  0.5260  0.1353
 6075TIP3    H142420   4.604   3.507   7.206  1.3841 -0.6210 -1.0374
 6075TIP3    H242421   4.466   3.541   7.153  0.4716 -0.1942  1.4543
 6076TIP3   OH242422   0.100   6.292   6.566  0.2284  0.4039  0.0629
 6076TIP3    H142423   0.130   6.383   6.562 -1.7477  1.1996  1.4643
 6076TIP3    H242424   0.033   6.286   6.498  0.8878 -0.2547 -0.5416
 6077TIP3   OH242425   5.331   0.222   6.555  0.5918  0.0840 -0.6236
 6077TIP3    H142426   5.257   0.162   6.543  0.7948  0.0006 -1.5918
 6077TIP3    H242427   5.401   0.166   6.589  0.2540  0.1353  0.1643
 6078TIP3   OH242428   1.893   5.269   6.882  0.1383  0.0334  0.2485
 6078TIP3    H142429   1.905   5.357   6.919  1.0766 -0.4752  1.2036
 6078TIP3    H242430   1.948   5.268   6.804 -2.7054  1.4917 -1.9991
 6079TIP3   OH242431   0.129   4.775   7.751  0.0203  0.4670 -0.3452
 6079TIP3    H142432   0.159   4.737   7.669  0.6937  1.7296 -0.7106
 6079TIP3    H242433   0.180   4.731   7.818 -0.1726 -0.2192 -0.6461
 6080TIP3   OH242434   0.060   1.625   6.587  0.1897  0.2638  0.0616
 6080TIP3    H142435   0.023   1.712   6.599 -0.8340 -0.2420  0.7301
 6080TIP3    H242436   0.094   1.625   6.497  0.0593  1.2868  0.0074
 6081TIP3   OH242437   1.377   0.605   6.610  0.0189 -0.1824 -0.0463
 6081TIP3    H142438   1.377   0.669   6.539  0.6355 -0.5451 -0.3793
 6081TIP3    H242439   1.311   0.638   6.671 -1.0133 -0.2162 -1.1044
 6082TIP3   OH242440   1.804   0.552   6.587 -0.7407  0.0219 -0.2704
 6082TIP3    H142441   1.810   0.516   6.675 -4.0254  0.0691  0.1149
 6082TIP3    H242442   1.770   0.640   6.600 -0.5182  0.3145 -1.5664
 6083TIP3   OH242443   1.454   5.860   7.777 -0.0787 -0.0278  0.2817
 6083TIP3    H142444   1.508   5.881   7.700 -0.8741 -0.6029 -0.4583
 6083TIP3    H242445   1.427   5.769   7.763 -2.3452  0.6281 -0.1014
 6084TIP3   OH242446   6.680   2.247   6.964  0.1641 -0.0946  0.2145
 6084TIP3    H142447   6.752   2.216   6.909  1.8692  0.5927  1.9200
 6084TIP3    H242448   6.670   2.339   6.941  0.7426  0.1406  0.8352
 6085TIP3   OH242449   2.593   5.922   6.747 -0.3070 -0.3464  0.5762
 6085TIP3    H142450   2.634   5.860   6.808  1.1528 -0.2702 -0.2907
 6085TIP3    H242451   2.534   5.974   6.802  1.6290  0.3240  2.1358
 6086TIP3   OH242452   3.696   3.059   6.072 -0.1877  0.2933 -0.4338
 6086TIP3    H142453   3.752   3.136   6.082  0.6243 -0.3990  0.5908
 6086TIP3    H242454   3.730   3.013   5.995 -0.2813  0.6359 -0.6787
 6087TIP3   OH242455   5.204   2.511   8.522  0.0357 -0.0212  0.3851
 6087TIP3    H142456   5.118   2.470   8.532  0.0412 -0.5438 -1.3788
 6087TIP3    H242457   5.211   2.530   8.429  2.0965 -0.5734  0.3670
 6088TIP3   OH242458   3.363   1.424   7.543 -0.3418 -0.2267  0.1891
 6088TIP3    H142459   3.275   1.428   7.580 -0.6463  0.1156 -0.5476
 6088TIP3    H242460   3.403   1.347   7.584 -0.4684  0.4334  1.6189
 6089TIP3   OH242461   4.197   4.985   6.860  0.0792  0.3110 -0.7587
 6089TIP3    H142462   4.145   4.906   6.846  0.7687 -0.2930 -0.0022
 6089TIP3    H242463   4.151   5.053   6.812  0.4476 -0.9241 -2.9846
 6090TIP3   OH242464   6.680   5.737   6.121  0.2530  0.0974 -0.2804
 6090TIP3    H142465   6.742   5.715   6.191  0.1988  0.7473 -0.0213
 6090TIP3    H242466   6.677   5.833   6.121 -1.5851  0.0690  0.4599
 6091TIP3   OH242467   3.719   4.798   6.291 -0.2261  0.3258 -0.2365
 6091TIP3    H142468   3.666   4.868   6.254 -0.0052  0.2408 -0.7262
 6091TIP3    H242469   3.776   4.842   6.354 -0.5539  0.4834 -0.0477
 6092TIP3   OH242470   1.430   0.514   9.293  0.3561 -0.5257  0.0694
 6092TIP3    H142471   1.484   0.558   9.228 -0.4733 -1.4273 -1.2693
 6092TIP3    H242472   1.341   0.544   9.276  0.1713 -0.4648  1.0596
 6093TIP3   OH242473   3.032   0.718   6.654  0.1465  0.2478 -0.3504
 6093TIP3    H142474   3.077   0.633   6.658  0.0613  0.1289 -1.7656
 6093TIP3    H242475   2.941   0.696   6.637  0.0109  0.6031 -0.0852
 6094TIP3   OH242476   3.157   1.717   7.034  0.3467 -0.2558  0.3115
 6094TIP3    H142477   3.071   1.681   7.057  0.0183  0.4314  0.2142
 6094TIP3    H242478   3.144   1.812   7.040  0.9641 -0.1385 -0.1896
 6095TIP3   OH242479   2.425   1.918   5.920  0.5462 -1.2008 -0.2771
 6095TIP3    H142480   2.485   1.936   5.992 -2.2350  0.5176  1.8414
 6095TIP3    H242481   2.445   1.985   5.855 -0.2027  0.5691  1.2240
 6096TIP3   OH242482   2.061   3.062   5.754  0.7785  0.1956 -0.5575
 6096TIP3    H142483   2.145   3.084   5.795  0.4532 -0.5914  0.5878
 6096TIP3    H242484   2.079   2.982   5.705  1.4932  1.8165 -3.1563
 6097TIP3   OH242485   3.308   3.000   6.552 -0.0582 -0.1827 -0.7020
 6097TIP3    H142486   3.365   3.057   6.500 -0.7295 -0.3544 -1.6473
 6097TIP3    H242487   3.344   2.912   6.540  0.8731 -0.0200  0.6182
 6098TIP3   OH242488   5.491   4.673   6.360 -0.2197  0.2561  0.2612
 6098TIP3    H142489   5.513   4.677   6.267 -0.4406 -1.4046  0.1102
 6098TIP3    H242490   5.575   4.684   6.404  0.3802 -1.8364 -0.2335
 6099TIP3   OH242491   6.163   0.326   6.483  0.3617 -0.3204  0.2598
 6099TIP3    H142492   6.166   0.288   6.570 -1.2235  1.1028  1.0071
 6099TIP3    H242493   6.222   0.273   6.431  2.8669 -0.0689  2.6291
 6100TIP3   OH242494   3.507   2.403   6.070 -0.6606 -0.2111  0.0146
 6100TIP3    H142495   3.504   2.398   5.974 -2.2068 -1.4816  0.0890
 6100TIP3    H242496   3.489   2.494   6.090  0.5687  0.2632 -0.9024
 6101TIP3   OH242497   4.390   4.032   5.639 -0.5190 -0.0273 -0.3553
 6101TIP3    H142498   4.331   3.986   5.699 -0.7899  1.3468  0.4731
 6101TIP3    H242499   4.450   3.964   5.607 -0.7513 -0.9054  1.0081
 6102TIP3   OH242500   1.935   6.492   8.221  0.0056 -0.1663  0.3858
 6102TIP3    H142501   1.932   6.474   8.127 -0.1982 -2.0305  0.7071
 6102TIP3    H242502   2.027   6.513   8.238  0.3778 -1.4281  0.0154
 6103TIP3   OH242503   5.966   0.018   5.856 -0.4277  0.2957  0.5868
 6103TIP3    H142504   5.919  -0.038   5.795 -1.3704  1.3852  0.2730
 6103TIP3    H242505   5.927  -0.001   5.942 -0.6097  0.3238  0.5109
 6104TIP3   OH242506   4.424   2.370   6.637  0.2359  0.6305 -0.3700
 6104TIP3    H142507   4.354   2.367   6.572  0.1205  1.9954 -0.3234
 6104TIP3    H242508   4.452   2.461   6.640  2.2375  0.0778 -0.5970
 6105TIP3   OH242509   2.066   5.321   6.679 -0.5793 -0.0920  0.0054
 6105TIP3    H142510   2.003   5.366   6.621 -1.2877 -0.2362  0.6487
 6105TIP3    H242511   2.150   5.362   6.659 -0.7819 -0.2148 -1.2129
 6106TIP3   OH242512   2.052   4.950   7.578 -0.2567 -0.0675 -0.6481
 6106TIP3    H142513   1.965   4.945   7.617 -0.3402  0.3973 -0.7646
 6106TIP3    H242514   2.052   5.033   7.529 -0.1487 -0.6084 -1.6002
 6107TIP3   OH242515   3.418   4.030   7.819  0.5034  0.2212 -0.1219
 6107TIP3    H142516   3.439   4.114   7.859  0.3528  0.5292 -0.6743
 6107TIP3    H242517   3.373   4.053   7.737  1.4842 -0.3736 -0.8490
 6108TIP3   OH242518   2.895   5.393   5.551 -0.4000 -0.2112 -0.1712
 6108TIP3    H142519   2.901   5.359   5.640  0.3974 -0.8034 -0.4303
 6108TIP3    H242520   2.811   5.360   5.518 -1.6023  1.5690  0.9548
 6109TIP3   OH242521   5.154   0.032   7.513  0.1249 -0.3056  0.0641
 6109TIP3    H142522   5.123  -0.058   7.516  0.8500 -0.5411  2.0037
 6109TIP3    H242523   5.079   0.083   7.482 -0.9210 -1.3330  0.8446
 6110TIP3   OH242524   5.561   6.127   7.551  0.1301  0.4445 -0.5647
 6110TIP3    H142525   5.505   6.106   7.626  0.0657  1.5590 -0.2835
 6110TIP3    H242526   5.557   6.049   7.495 -1.5468  0.4181 -0.4521
 6111TIP3   OH242527   2.926   0.822   7.848  0.3176 -0.2305 -0.7728
 6111TIP3    H142528   2.995   0.761   7.821  0.3034 -0.3525 -0.5325
 6111TIP3    H242529   2.971   0.905   7.860  0.4663 -0.3668 -0.3757
 6112TIP3   OH242530   2.460   4.395   6.609 -0.2916  0.2516 -0.2781
 6112TIP3    H142531   2.503   4.381   6.694  0.4090 -1.8412 -0.8960
 6112TIP3    H242532   2.379   4.441   6.630  0.4699  0.9411  1.3622
 6113TIP3   OH242533   3.268   5.325   7.419  1.1632 -0.0674 -0.2549
 6113TIP3    H142534   3.338   5.261   7.431 -0.2710 -1.5213  0.7654
 6113TIP3    H242535   3.194   5.290   7.469 -0.7206  0.7528 -2.2778
 6114TIP3   OH242536   1.210   4.029   5.847  0.2691  0.2021  0.3706
 6114TIP3    H142537   1.254   3.944   5.839 -0.4854 -0.2320  0.6525
 6114TIP3    H242538   1.124   4.014   5.808 -1.1070 -0.1290  3.2181
 6115TIP3   OH242539   2.868   4.326   5.350 -0.5498  0.2423 -0.2697
 6115TIP3    H142540   2.908   4.305   5.266  0.1653  0.1447  0.0864
 6115TIP3    H242541   2.939   4.320   5.413 -1.3401 -1.0285  0.5536
 6116TIP3   OH242542   2.290   6.681   7.192  0.6102  0.2409 -0.2698
 6116TIP3    H142543   2.290   6.722   7.279 -0.8864 -1.6839  0.7087
 6116TIP3    H242544   2.377   6.643   7.184  0.3158 -0.8000  1.0637
 6117TIP3   OH242545   4.953   1.009   6.321  0.4101 -0.3977 -0.0578
 6117TIP3    H142546   5.044   0.982   6.312  0.5914 -0.0666  0.7302
 6117TIP3    H242547   4.931   1.050   6.237  1.2545  0.3125  0.0617
 6118TIP3   OH242548   1.751   3.018   5.800  0.2240 -0.2374  0.2130
 6118TIP3    H142549   1.836   3.040   5.763  1.2949 -0.9208  2.1032
 6118TIP3    H242550   1.749   3.064   5.884 -0.8278 -1.0495  0.6531
 6119TIP3   OH242551   6.478   3.077   8.577 -0.0950 -0.2600 -0.3158
 6119TIP3    H142552   6.522   3.154   8.613  1.6896 -2.2458  2.1281
 6119TIP3    H242553   6.531   3.053   8.501 -0.7442  0.9040 -1.1831
 6120TIP3   OH242554   1.219   4.977   7.722 -0.2878 -0.1779  0.8095
 6120TIP3    H142555   1.188   4.894   7.687 -0.5733  0.5275 -0.7331
 6120TIP3    H242556   1.313   4.976   7.707 -0.0719 -0.8133  2.1376
 6121TIP3   OH242557   0.079   4.747   8.856  0.3434  0.1638  0.0174
 6121TIP3    H142558   0.152   4.713   8.907 -0.1442  0.6692  1.0835
 6121TIP3    H242559   0.072   4.839   8.882 -0.1256  0.3439 -0.7202
 6122TIP3   OH242560   4.743   0.988   6.960  0.1125  0.5506  0.7948
 6122TIP3    H142561   4.707   0.959   7.044 -1.3742  0.3937  0.1350
 6122TIP3    H242562   4.710   1.077   6.948 -0.2949  0.3035  0.0376
 6123TIP3   OH242563   1.314   2.830   8.450  0.3269 -0.2977  0.4034
 6123TIP3    H142564   1.255   2.881   8.395 -0.0397  0.1224  1.1638
 6123TIP3    H242565   1.270   2.746   8.462  0.4962 -0.4621 -0.0847
 6124TIP3   OH242566   4.256   1.841   7.605  0.0380  0.4275  0.1595
 6124TIP3    H142567   4.178   1.871   7.559 -1.0286  0.6651  2.0395
 6124TIP3    H242568   4.325   1.901   7.578 -0.1931 -0.2499 -2.1341
 6125TIP3   OH242569   5.993   4.279   8.696  1.2462 -0.1970 -0.0995
 6125TIP3    H142570   6.067   4.268   8.756  1.0969 -0.4459  0.0385
 6125TIP3    H242571   5.931   4.212   8.722 -0.8865  2.4848  2.5555
 6126TIP3   OH242572   4.711   2.326   6.622  0.5971 -0.0801  0.0364
 6126TIP3    H142573   4.777   2.288   6.679 -0.8216 -0.4892  1.4714
 6126TIP3    H242574   4.642   2.356   6.681 -0.1701  1.0289 -1.3512
 6127TIP3   OH242575   3.948   0.437   8.086  0.0260 -0.1588  0.5562
 6127TIP3    H142576   3.869   0.467   8.131  0.4111  1.0029  0.4935
 6127TIP3    H242577   3.984   0.369   8.143 -0.2638  0.2896  1.2928
 6128TIP3   OH242578   5.945   3.364   7.225 -0.3732  0.2253 -0.2222
 6128TIP3    H142579   5.941   3.433   7.292  0.0799 -0.9914  1.0941
 6128TIP3    H242580   6.027   3.318   7.242 -0.7061 -0.6965 -1.0265
 6129TIP3   OH242581   6.498   3.330   7.398  0.1006  0.1533  0.4634
 6129TIP3    H142582   6.567   3.396   7.398 -0.8449  1.2667 -1.7009
 6129TIP3    H242583   6.422   3.373   7.437 -0.7366  0.7213 -1.6142
 6130TIP3   OH242584   5.365   2.764   8.099 -0.4944  0.3773 -0.1908
 6130TIP3    H142585   5.293   2.706   8.072 -0.4985 -0.3738  1.3108
 6130TIP3    H242586   5.325   2.850   8.106 -1.3085 -0.0538  0.7399
 6131TIP3   OH242587   1.577   1.418   6.015  0.4555 -0.8630 -0.2921
 6131TIP3    H142588   1.586   1.396   5.922 -1.0111  1.6865 -1.1390
 6131TIP3    H242589   1.485   1.402   6.034  0.0592  1.2984 -0.1357
 6132TIP3   OH242590   5.761   5.983   8.523  0.0366 -0.1241  0.4381
 6132TIP3    H142591   5.791   6.056   8.577  0.4813 -0.4268  0.6117
 6132TIP3    H242592   5.696   5.938   8.577  0.4442 -0.3967  0.7089
 6133TIP3   OH242593   2.650   0.536   9.003  0.0272  0.4363  0.3985
 6133TIP3    H142594   2.658   0.620   9.047  0.4148 -0.3215  1.8149
 6133TIP3    H242595   2.733   0.525   8.957  0.8508 -0.1174  1.9607
 6134TIP3   OH242596   2.882   0.991   9.136  0.5068 -0.1347  0.1984
 6134TIP3    H142597   2.837   1.075   9.135 -0.5629 -0.5717  2.8150
 6134TIP3    H242598   2.823   0.933   9.184  1.4028 -2.2951 -1.1822
 6135TIP3   OH242599   4.770   2.527   7.990  0.1479 -0.0367  0.2525
 6135TIP3    H142600   4.829   2.555   7.920 -0.2386  0.2066  0.0117
 6135TIP3    H242601   4.815   2.550   8.071  0.9115 -0.9620  0.1031
 6136TIP3   OH242602   0.443   5.123   7.833  1.2017  0.9788  0.1291
 6136TIP3    H142603   0.349   5.123   7.849  1.1539 -0.3555 -0.0026
 6136TIP3    H242604   0.458   5.196   7.774 -0.0229  0.1641 -1.2480
 6137TIP3   OH242605   2.127   2.235   8.001  0.0875 -0.4292 -0.2022
 6137TIP3    H142606   2.050   2.179   7.998 -0.1844 -0.0453 -0.4245
 6137TIP3    H242607   2.147   2.244   8.094 -0.9347  0.5640 -0.0669
 6138TIP3   OH242608   3.224   3.297   7.111 -0.0388  0.2170 -0.0711
 6138TIP3    H142609   3.130   3.303   7.093 -0.5621  0.1162  2.2777
 6138TIP3    H242610   3.246   3.380   7.153  1.1547  0.5982 -1.3767
 6139TIP3   OH242611   6.079   0.293   8.070  0.4415  0.4552 -0.5362
 6139TIP3    H142612   6.086   0.374   8.121  0.7913  0.2143 -0.2033
 6139TIP3    H242613   6.072   0.224   8.135  0.4571  0.1844 -0.8202
 6140TIP3   OH242614   6.323   3.981   7.609  0.4021 -0.5847 -0.1582
 6140TIP3    H142615   6.338   4.009   7.519 -1.6840 -0.1465 -0.4291
 6140TIP3    H242616   6.265   3.905   7.601 -0.3977 -0.0975  0.8120
 6141TIP3   OH242617   5.942   1.732   8.073  0.8043 -0.0856  0.4090
 6141TIP3    H142618   5.850   1.752   8.057  0.8776 -0.9754 -1.3793
 6141TIP3    H242619   5.949   1.729   8.169 -0.4538  2.3780  0.6521
 6142TIP3   OH242620   1.335   2.070   6.857  0.0145 -0.1570  0.5220
 6142TIP3    H142621   1.408   2.125   6.830 -1.5034  1.7002 -0.0381
 6142TIP3    H242622   1.368   1.980   6.850  2.1606  0.6043  0.1665
 6143TIP3   OH242623   3.533   3.734   5.900 -0.1706 -0.1561 -0.0743
 6143TIP3    H142624   3.439   3.734   5.921 -0.2243  1.8746 -0.1345
 6143TIP3    H242625   3.576   3.726   5.985 -0.4078  1.3036  0.2005
 6144TIP3   OH242626   5.525   5.794   5.487 -0.2596 -0.3220  0.2285
 6144TIP3    H142627   5.513   5.719   5.430  0.0490 -0.9959  1.0288
 6144TIP3    H242628   5.518   5.758   5.576  0.6054  0.4613  0.6311
 6145TIP3   OH242629   1.973   6.030   6.136 -0.1635  0.2407 -0.5945
 6145TIP3    H142630   2.039   5.969   6.104 -1.6029 -0.5051 -2.2921
 6145TIP3    H242631   1.930   6.063   6.057 -2.0620  0.4153  0.4470
 6146TIP3   OH242632   1.637   1.696   6.366  0.4682 -0.3844 -0.1131
 6146TIP3    H142633   1.541   1.705   6.362  0.4770 -0.8132 -2.1089
 6146TIP3    H242634   1.664   1.761   6.432 -1.1316  0.2162  0.0043
 6147TIP3   OH242635   3.134   4.543   6.723  0.5635  0.6000 -0.0542
 6147TIP3    H142636   3.117   4.570   6.813 -0.1536 -1.7167  0.5644
 6147TIP3    H242637   3.180   4.460   6.731  1.4308  0.8611 -1.8405
 6148TIP3   OH242638   1.114   6.204   5.709  0.0477 -0.5614 -0.2825
 6148TIP3    H142639   1.154   6.288   5.734 -0.2131 -0.4050 -0.3782
 6148TIP3    H242640   1.187   6.150   5.679 -0.0210  0.3715 -2.2930
 6149TIP3   OH242641   3.420   4.903   6.587 -0.1647  0.4803 -0.3820
 6149TIP3    H142642   3.336   4.859   6.572  0.9176 -1.4796 -1.0981
 6149TIP3    H242643   3.406   4.954   6.666 -1.5543 -1.1452  0.4979
 6150TIP3   OH242644   3.940   3.836   7.466  0.2862  0.0332  0.3546
 6150TIP3    H142645   3.914   3.748   7.436  1.1637 -0.9842  2.3804
 6150TIP3    H242646   3.858   3.874   7.499 -0.0614 -0.1091 -0.3243
 6151TIP3   OH242647   0.544   5.681   7.199 -0.2161 -0.1169 -0.0449
 6151TIP3    H142648   0.587   5.676   7.114 -0.6726  0.3186 -0.3071
 6151TIP3    H242649   0.611   5.717   7.258 -0.3703  1.0812 -0.5671
 6152TIP3   OH242650   1.500   5.381   6.348 -0.4494 -0.0194 -0.0590
 6152TIP3    H142651   1.426   5.358   6.292  0.8221 -0.1010 -1.7785
 6152TIP3    H242652   1.500   5.315   6.417 -3.1031  1.0843  1.1575
 6153TIP3   OH242653   6.590   2.265   8.513  0.5983  0.4828 -0.2756
 6153TIP3    H142654   6.575   2.280   8.420  0.9148 -0.5301 -0.5028
 6153TIP3    H242655   6.563   2.174   8.527  2.5298 -0.0654  0.1630
 6154TIP3   OH242656   5.611   2.474   8.139 -0.2885  0.2740 -0.4130
 6154TIP3    H142657   5.636   2.412   8.071 -0.3293 -1.1193  0.7713
 6154TIP3    H242658   5.636   2.431   8.221 -0.3327  1.8402  0.4635
 6155TIP3   OH242659   0.209   3.403   5.484  0.4587 -0.4411  0.3154
 6155TIP3    H142660   0.128   3.371   5.444 -0.0058 -1.2293  1.8024
 6155TIP3    H242661   0.233   3.334   5.547  1.6994  0.2791  0.6637
 6156TIP3   OH242662   6.686   5.222   8.182 -0.2895 -0.1676 -0.0627
 6156TIP3    H142663   6.594   5.207   8.160 -0.0393  0.0949 -1.3432
 6156TIP3    H242664   6.724   5.260   8.103  0.3929  1.9164  1.1689
 6157TIP3   OH242665   1.584   4.965   6.348  0.5055 -0.4092  0.0742
 6157TIP3    H142666   1.538   4.975   6.431 -0.4649  0.0771 -0.5047
 6157TIP3    H242667   1.596   4.871   6.337 -1.0484 -0.6042 -0.1236
 6158TIP3   OH242668   3.228   4.300   6.794 -0.7763  0.3609 -0.4783
 6158TIP3    H142669   3.299   4.252   6.750  1.1636  1.7597  0.9409
 6158TIP3    H242670   3.192   4.236   6.856  1.0965  0.3473  0.6811
 6159TIP3   OH242671   1.571   2.477   9.577 -0.0264 -0.2439  0.3548
 6159TIP3    H142672   1.590   2.496   9.485 -0.0684  0.1435  0.4231
 6159TIP3    H242673   1.533   2.390   9.576 -1.7103  0.4653 -0.2031
 6160TIP3   OH242674   5.913   1.687   6.012 -0.2631 -0.3011  0.1042
 6160TIP3    H142675   5.938   1.614   6.069  1.3027  0.7138  0.7925
 6160TIP3    H242676   5.973   1.681   5.938 -0.1077  0.2777  0.1764
 6161TIP3   OH242677   2.498   1.728   7.406  0.3841 -0.1730 -0.7112
 6161TIP3    H142678   2.447   1.663   7.454  0.8276  0.5565  0.8044
 6161TIP3    H242679   2.587   1.693   7.406  0.6272  0.4316  0.1266
 6162TIP3   OH242680   2.234   0.899   8.131 -0.4464  0.1306 -0.0805
 6162TIP3    H142681   2.327   0.887   8.115 -0.3352  1.9959 -1.0763
 6162TIP3    H242682   2.191   0.835   8.074  0.1945 -0.3039 -0.0860
 6163TIP3   OH242683   1.493   2.721   9.545 -0.6303  0.4403  0.2153
 6163TIP3    H142684   1.439   2.708   9.467 -1.7045  0.5092  0.9236
 6163TIP3    H242685   1.513   2.633   9.576  1.5281  0.3312 -1.2350
 6164TIP3   OH242686   0.609   0.163   7.028 -0.3968 -0.0305 -0.3175
 6164TIP3    H142687   0.695   0.200   7.013  1.2313 -1.8066  3.3148
 6164TIP3    H242688   0.560   0.232   7.073  0.1153  0.0861  0.0627
 6165TIP3   OH242689   5.376   0.059   5.762  0.4266  0.5663 -0.1223
 6165TIP3    H142690   5.375   0.060   5.666  0.4315  0.5249 -0.1230
 6165TIP3    H242691   5.469   0.061   5.785  0.5322 -1.5817 -0.1479
 6166TIP3   OH242692   2.625   2.261   5.902 -0.0664 -0.0074 -0.2217
 6166TIP3    H142693   2.659   2.205   5.832  0.5436  0.1600 -0.0708
 6166TIP3    H242694   2.637   2.209   5.981  2.6797  1.1536  0.2525
 6167TIP3   OH242695   1.910   1.706   7.988  0.3442 -0.3585  0.1981
 6167TIP3    H142696   1.973   1.766   7.947 -0.3314  0.5679  0.4876
 6167TIP3    H242697   1.827   1.724   7.943 -0.0350 -0.5164  0.8216
 6168TIP3   OH242698   4.060   1.996   7.484 -0.3440 -0.1180  0.2349
 6168TIP3    H142699   4.002   2.016   7.558 -0.1392 -0.0116  0.3660
 6168TIP3    H242700   4.109   2.077   7.470 -0.3665 -0.1468 -0.0025
 6169TIP3   OH242701   4.658   4.013  14.464  0.8737  0.0014  0.1661
 6169TIP3    H142702   4.564   4.002  14.478  0.7742 -0.2404 -0.6548
 6169TIP3    H242703   4.664   4.084  14.400  1.1807 -0.9687 -0.9069
 6170TIP3   OH242704   3.776   5.694   5.557 -1.0279 -0.2091  0.2489
 6170TIP3    H142705   3.867   5.702   5.528 -0.6927 -1.4670  0.8971
 6170TIP3    H242706   3.762   5.770   5.614 -0.5703  0.2932 -0.2948
 6171TIP3   OH242707   2.471   4.244   7.682  0.3272  0.0250 -0.1548
 6171TIP3    H142708   2.402   4.211   7.739  0.8832 -0.1217  0.4381
 6171TIP3    H242709   2.502   4.166   7.635 -0.4886  0.2277 -1.0669
 6172TIP3   OH242710   2.839   2.120   7.076  0.0401 -0.4458  0.0602
 6172TIP3    H142711   2.821   2.157   6.989 -0.0438 -2.4524 -0.8263
 6172TIP3    H242712   2.760   2.070   7.096  1.0130 -1.9654  0.1961
 6173TIP3   OH242713   6.269   3.144   7.532  0.2178 -0.2170 -0.1589
 6173TIP3    H142714   6.356   3.118   7.561 -0.2125 -1.3553  0.1888
 6173TIP3    H242715   6.210   3.096   7.591 -0.6371  0.6266 -0.3094
 6174TIP3   OH242716   1.736   0.489   5.602 -0.1465 -0.3144 -0.6860
 6174TIP3    H142717   1.712   0.397   5.593  2.0678 -0.8102 -2.5132
 6174TIP3    H242718   1.814   0.487   5.658 -1.1236  0.6765  0.7670
 6175TIP3   OH242719   3.227   3.443   5.755  0.4884 -0.8048 -0.0718
 6175TIP3    H142720   3.203   3.365   5.805 -1.3144 -0.0582  0.2881
 6175TIP3    H242721   3.145   3.490   5.741  1.4160  0.6651 -0.9280
 6176TIP3   OH242722   6.000   4.742   6.563  0.1241  0.0608 -0.5520
 6176TIP3    H142723   6.076   4.797   6.546 -0.5129  0.9225 -0.6825
 6176TIP3    H242724   6.005   4.674   6.496  0.1845  0.7489 -1.2645
 6177TIP3   OH242725   2.706   6.183   6.546 -0.1363 -0.3536  0.1006
 6177TIP3    H142726   2.709   6.277   6.529  1.7234 -0.3592  0.2346
 6177TIP3    H242727   2.613   6.161   6.541 -0.4415  1.1089 -2.0609
 6178TIP3   OH242728   2.091   2.900   7.017  0.6192  0.1199  0.1110
 6178TIP3    H142729   2.003   2.924   7.045  0.2599  0.0937 -0.9454
 6178TIP3    H242730   2.128   2.982   6.984  1.0523  0.1602  0.6688
 6179TIP3   OH242731   2.097   3.453   6.676 -0.1998  0.2043  0.1857
 6179TIP3    H142732   2.084   3.374   6.624  3.9334 -1.2410  0.9936
 6179TIP3    H242733   2.120   3.520   6.612 -0.6603 -0.0863 -0.2872
 6180TIP3   OH242734   1.178   5.948   8.168 -0.4280 -0.2392  0.3204
 6180TIP3    H142735   1.085   5.945   8.190 -0.2447  0.7548  1.3123
 6180TIP3    H242736   1.193   6.039   8.141  0.5418  0.0191  1.6165
 6181TIP3   OH242737   6.171   0.344   7.243  0.3051  0.1805  0.3214
 6181TIP3    H142738   6.144   0.432   7.214 -0.1747 -0.2537 -0.6263
 6181TIP3    H242739   6.243   0.359   7.303  0.4300  1.2154 -0.0647
 6182TIP3   OH242740   1.529   2.758   8.268 -0.2404  0.8207  0.1471
 6182TIP3    H142741   1.606   2.738   8.321 -0.7490  0.0668  0.6357
 6182TIP3    H242742   1.461   2.777   8.332 -1.1168 -1.0296 -0.1665
 6183TIP3   OH242743   1.122   0.472   7.093  0.2858 -0.1141 -0.0334
 6183TIP3    H142744   1.170   0.397   7.129  0.4117 -0.0860 -0.1388
 6183TIP3    H242745   1.191   0.533   7.066  0.4190 -1.5555 -3.5112
 6184TIP3   OH242746   4.144   5.945   6.116 -0.7940  0.0728 -0.2594
 6184TIP3    H142747   4.185   6.031   6.125  0.3912 -0.4438 -0.4856
 6184TIP3    H242748   4.117   5.921   6.204 -1.0243  0.6240 -0.1770
 6185TIP3   OH242749   2.677   0.984   7.221 -0.0247 -0.3485  0.3195
 6185TIP3    H142750   2.706   1.060   7.270  0.9085 -0.8073  0.5039
 6185TIP3    H242751   2.601   0.952   7.269 -0.3487  0.3872  0.3090
 6186TIP3   OH242752   3.866   6.068   5.583  0.0783  0.0278 -0.3395
 6186TIP3    H142753   3.833   6.052   5.672  0.5261 -0.0880 -0.1911
 6186TIP3    H242754   3.929   5.998   5.568  0.1322  0.1491 -0.6865
 6187TIP3   OH242755   1.238   6.237   6.072 -0.3487 -0.2937 -0.1850
 6187TIP3    H142756   1.220   6.176   6.000 -0.0143 -1.6395  0.8339
 6187TIP3    H242757   1.159   6.291   6.077 -1.1581 -1.4155 -0.3672
 6188TIP3   OH242758   1.864   4.721   8.866 -0.5380  0.0583 -0.1698
 6188TIP3    H142759   1.818   4.804   8.879 -0.5041 -0.2377  2.2941
 6188TIP3    H242760   1.943   4.745   8.818 -1.1836  1.2117 -0.7123
 6189TIP3   OH242761   0.669   1.866   7.721 -0.2856  0.1836 -0.6140
 6189TIP3    H142762   0.738   1.837   7.781 -2.4553 -1.9063  1.0408
 6189TIP3    H242763   0.705   1.848   7.634  1.6375  0.1525  0.1229
 6190TIP3   OH242764   5.276   1.091   7.784 -0.3783  0.0580  0.6294
 6190TIP3    H142765   5.194   1.136   7.806 -0.4588  0.3090 -0.1387
 6190TIP3    H242766   5.280   1.018   7.846 -1.0996  0.1392  0.7902
 6191TIP3   OH242767   5.668   3.661   6.626 -0.4625  0.3478 -0.2972
 6191TIP3    H142768   5.579   3.624   6.626  0.1882 -1.3489  0.7146
 6191TIP3    H242769   5.655   3.753   6.646 -1.9674  0.0021  0.5145
 6192TIP3   OH242770   1.169   6.195   8.100 -0.2203  0.6696  0.0325
 6192TIP3    H142771   1.232   6.225   8.034  0.4299 -0.5867  0.0452
 6192TIP3    H242772   1.120   6.273   8.124 -1.0624  1.0413 -2.5622
 6193TIP3   OH242773   5.604   3.813   7.386  0.1978 -0.6794  0.2072
 6193TIP3    H142774   5.624   3.887   7.443  1.0596 -0.3068 -0.5491
 6193TIP3    H242775   5.684   3.799   7.335 -0.8800 -0.2475 -1.7230
 6194TIP3   OH242776   1.463   3.976   6.731  0.2725 -0.7290 -0.1617
 6194TIP3    H142777   1.527   3.959   6.663  2.1475  1.6347  0.8741
 6194TIP3    H242778   1.380   3.987   6.685  1.4449  0.6137 -2.0333
 6195TIP3   OH242779   1.764   4.301   7.624 -0.7467 -0.1137 -0.2892
 6195TIP3    H142780   1.830   4.233   7.613 -0.4449  0.2478 -0.7571
 6195TIP3    H242781   1.749   4.335   7.535 -0.7486  0.5648 -0.0354
 6196TIP3   OH242782   6.241   6.635   6.455  0.4176  0.3577 -0.2001
 6196TIP3    H142783   6.224   6.723   6.421  1.0854  1.1031  1.3254
 6196TIP3    H242784   6.178   6.624   6.526 -0.4970 -0.9134 -1.1719
 6197TIP3   OH242785   2.208   0.303   7.881  0.0817 -0.6642  0.0216
 6197TIP3    H142786   2.247   0.247   7.949 -0.7044 -0.8751  0.3101
 6197TIP3    H242787   2.265   0.380   7.879  2.4952 -2.3656 -1.9283
 6198TIP3   OH242788   2.308   1.107   6.343 -0.0287 -0.2284  0.1512
 6198TIP3    H142789   2.376   1.153   6.294 -1.4880  0.3266 -1.4959
 6198TIP3    H242790   2.226   1.148   6.314 -1.3962 -3.4272 -1.0100
 6199TIP3   OH242791   0.776   6.030   5.517 -0.4743 -0.0758 -0.4893
 6199TIP3    H142792   0.784   6.112   5.468  2.1650 -0.0942 -0.2627
 6199TIP3    H242793   0.757   6.057   5.607 -2.3563  0.1039 -0.9107
 6200TIP3   OH242794   0.189   2.459   6.715  0.1989  0.4049  0.6449
 6200TIP3    H142795   0.146   2.428   6.795  1.7709  0.0335  1.3900
 6200TIP3    H242796   0.234   2.539   6.742  0.1432  0.6805 -0.0603
 6201TIP3   OH242797   4.688   3.952   5.690  0.3961 -0.1083  0.1814
 6201TIP3    H142798   4.694   3.871   5.638 -1.4906  0.5164 -1.0952
 6201TIP3    H242799   4.704   4.022   5.627  2.0008  0.5727  1.2764
 6202TIP3   OH242800   1.772   5.768   8.802  0.1469 -0.4653 -0.6402
 6202TIP3    H142801   1.739   5.706   8.868 -0.1831 -1.3574 -1.6075
 6202TIP3    H242802   1.819   5.834   8.852 -2.1823  0.2631  0.7237
 6203TIP3   OH242803   3.149   2.656   7.933 -0.1329 -0.2586 -0.1071
 6203TIP3    H142804   3.236   2.676   7.898  0.1954 -1.3595  0.0382
 6203TIP3    H242805   3.094   2.646   7.856  0.0632 -0.4072 -0.2282
 6204TIP3   OH242806   3.191   6.690   6.589  0.0173  0.0996 -0.1177
 6204TIP3    H142807   3.239   6.647   6.659  1.0246  1.0034 -0.2124
 6204TIP3    H242808   3.180   6.780   6.619 -1.5058 -0.0492 -0.1786
 6205TIP3   OH242809   0.805   4.147   7.266  0.1284 -0.3275  0.6086
 6205TIP3    H142810   0.717   4.184   7.275  0.1560 -0.3897  1.1700
 6205TIP3    H242811   0.847   4.201   7.199 -0.5126 -0.6377 -0.0552
 6206TIP3   OH242812   5.771   6.563   6.351  0.4545  0.2060  0.1969
 6206TIP3    H142813   5.729   6.640   6.314 -0.2627 -0.0345  0.4784
 6206TIP3    H242814   5.713   6.536   6.423  1.5193  0.3424  1.1428
 6207TIP3   OH242815   3.949   2.878   5.608  0.2644  0.0832  0.5425
 6207TIP3    H142816   4.042   2.898   5.600  0.4154 -0.6722  0.3040
 6207TIP3    H242817   3.946   2.783   5.624 -0.4306  0.2149  1.2656
 6208TIP3   OH242818   3.945   6.076   7.656  0.1231  0.0566  0.3974
 6208TIP3    H142819   3.971   6.036   7.739  1.2996 -1.2533 -0.5566
 6208TIP3    H242820   3.938   6.003   7.595  1.4928  1.1741 -1.2073
 6209TIP3   OH242821   5.873   0.817   5.726  0.2109 -0.3142 -0.2121
 6209TIP3    H142822   5.964   0.787   5.719  0.3897 -0.5309  2.1388
 6209TIP3    H242823   5.823   0.738   5.748 -0.0790  0.2026  1.1408
 6210TIP3   OH242824   1.054   2.633   8.101 -0.4791 -0.0966 -0.3582
 6210TIP3    H142825   1.114   2.588   8.162  0.5891 -0.4807 -1.6405
 6210TIP3    H242826   0.967   2.617   8.137  0.0615 -1.0867  0.5735
 6211TIP3   OH242827   4.113   0.626   7.713  0.1163 -0.3565 -0.3419
 6211TIP3    H142828   4.195   0.674   7.704 -0.2855  0.2805 -0.6710
 6211TIP3    H242829   4.127   0.568   7.789  0.0635  1.4152  1.0793
 6212TIP3   OH242830   1.810   6.124   7.330  0.0831  0.1629  0.3303
 6212TIP3    H142831   1.801   6.218   7.311 -0.5346  0.5680  2.3419
 6212TIP3    H242832   1.724   6.087   7.309 -0.0859  0.3042  0.7593
 6213TIP3   OH242833   5.475   5.439   9.074 -0.1460 -0.4064  0.1327
 6213TIP3    H142834   5.409   5.410   9.011  1.7336 -1.1614 -1.5948
 6213TIP3    H242835   5.557   5.401   9.042  1.3174  1.3102  1.6250
 6214TIP3   OH242836   4.780   5.694   6.114 -0.1011 -0.0403  0.2330
 6214TIP3    H142837   4.782   5.786   6.088 -0.8489 -0.2800 -0.7141
 6214TIP3    H242838   4.707   5.688   6.176 -0.0744 -0.0086  0.2676
 6215TIP3   OH242839   1.809   2.948   6.112 -0.7051 -0.3171 -0.1342
 6215TIP3    H142840   1.871   2.895   6.062  1.3370 -0.3302  2.2355
 6215TIP3    H242841   1.731   2.892   6.121 -0.4042 -1.0249 -1.6097
 6216TIP3   OH242842   0.406   4.705   6.318 -0.3048 -0.6141 -0.1787
 6216TIP3    H142843   0.432   4.615   6.299 -2.5897 -1.5568  0.7959
 6216TIP3    H242844   0.446   4.757   6.249 -0.5380 -2.6358 -1.9386
 6217TIP3   OH242845   5.094   4.204   6.151  0.1897  0.4435  0.3049
 6217TIP3    H142846   5.171   4.163   6.189  0.4626 -0.3166 -1.0356
 6217TIP3    H242847   5.021   4.150   6.180  0.2754  0.5152  0.6559
 6218TIP3   OH242848   4.046   0.200   6.191  0.1248  0.4021 -0.0693
 6218TIP3    H142849   4.056   0.230   6.100 -2.0047 -0.1924 -0.5514
 6218TIP3    H242850   4.026   0.280   6.240  0.3509  0.5981 -0.2937
 6219TIP3   OH242851   5.883   6.214   6.811 -1.0973  0.5490  0.2217
 6219TIP3    H142852   5.793   6.184   6.816 -1.2708  1.1098  0.5873
 6219TIP3    H242853   5.931   6.158   6.873 -1.3042  0.6320  0.4572
 6220TIP3   OH242854   5.805   3.207   7.038  0.1344 -0.7075  0.2300
 6220TIP3    H142855   5.774   3.267   6.971  0.4633  0.3125  0.9582
 6220TIP3    H242856   5.870   3.258   7.087 -0.0496 -1.4511  1.2705
 6221TIP3   OH242857   2.079   1.895   9.230  0.2082 -0.2037  0.4973
 6221TIP3    H142858   2.035   1.815   9.261  1.5123 -0.0997  2.8473
 6221TIP3    H242859   2.039   1.965   9.281  1.1431  0.2491  0.6177
 6222TIP3   OH242860   3.584   5.616   7.449 -0.5975  0.2460  0.0487
 6222TIP3    H142861   3.619   5.530   7.474 -0.8420  0.1369  0.0236
 6222TIP3    H242862   3.500   5.596   7.408 -0.2651  0.4345 -0.7441
 6223TIP3   OH242863   1.378   5.127   8.019  0.0871 -0.0465 -0.5197
 6223TIP3    H142864   1.461   5.082   8.005  0.4563  0.2167  0.6884
 6223TIP3    H242865   1.401   5.219   8.028 -0.4137  0.1149 -0.8541
 6224TIP3   OH242866   1.448   2.476   6.673 -0.0288 -0.4149 -0.9725
 6224TIP3    H142867   1.461   2.427   6.592  1.0324 -1.0462 -0.4461
 6224TIP3    H242868   1.460   2.411   6.743  0.5098  0.3924 -0.2817
 6225TIP3   OH242869   1.520   3.558   7.468  0.4654 -0.3216  0.0846
 6225TIP3    H142870   1.568   3.485   7.429  0.0316 -0.8955  0.6018
 6225TIP3    H242871   1.466   3.593   7.397  0.4315 -0.7089 -0.0783
 6226TIP3   OH242872   0.133   1.129   6.147 -0.3965 -0.2464 -0.4210
 6226TIP3    H142873   0.183   1.209   6.162  0.5179 -0.9501  0.3726
 6226TIP3    H242874   0.055   1.159   6.100  0.0524  1.0696 -0.3833
 6227TIP3   OH242875   1.294   0.176   7.598  0.5745  1.1786 -0.4805
 6227TIP3    H142876   1.215   0.172   7.544 -0.0783 -0.4037  0.5296
 6227TIP3    H242877   1.283   0.255   7.652 -1.3692 -0.0969  1.1254
 6228TIP3   OH242878   1.118   1.863   7.477  0.0532  0.0646  0.2563
 6228TIP3    H142879   1.169   1.816   7.543 -1.5148 -1.9352  0.1397
 6228TIP3    H242880   1.157   1.837   7.394  0.7875  1.0441  0.2711
 6229TIP3   OH242881   3.996   3.213   6.900 -0.2007  0.1796 -0.3182
 6229TIP3    H142882   3.978   3.138   6.957 -0.1509  0.8891  0.6484
 6229TIP3    H242883   3.911   3.257   6.892 -0.3832 -0.3254 -1.4326
 6230TIP3   OH242884   0.412   2.530   6.591 -0.1237 -0.2412 -0.8221
 6230TIP3    H142885   0.403   2.596   6.659 -0.7064 -0.3309 -0.8074
 6230TIP3    H242886   0.329   2.483   6.591 -0.1047 -0.2960 -1.5435
 6231TIP3   OH242887   1.163   6.589   7.489  0.3736 -0.2012  0.0699
 6231TIP3    H142888   1.256   6.577   7.506 -0.0338 -1.9468  1.4284
 6231TIP3    H242889   1.123   6.597   7.576 -0.6059  2.2957 -0.5001
 6232TIP3   OH242890   4.807   0.385   7.464 -0.5885 -0.1304  0.3172
 6232TIP3    H142891   4.851   0.459   7.506 -1.2792  0.9294 -0.7549
 6232TIP3    H242892   4.715   0.410   7.461 -0.4969  0.2508 -2.4844
 6233TIP3   OH242893   6.022   1.051   6.347  0.2441 -0.1969 -0.1477
 6233TIP3    H142894   6.088   1.120   6.338 -0.0277  0.0467 -0.3269
 6233TIP3    H242895   6.049   1.001   6.424 -0.3353  0.9995  0.8796
 6234TIP3   OH242896   2.651   3.388   8.584  0.3995  0.1527  0.0122
 6234TIP3    H142897   2.627   3.383   8.677  0.5058  2.2499  0.2119
 6234TIP3    H242898   2.744   3.365   8.582  0.5124  0.5341  0.5177
 6235TIP3   OH242899   0.314   3.323   6.488  0.1943  0.3685 -0.4010
 6235TIP3    H142900   0.319   3.321   6.584 -0.8027 -0.2787 -0.3424
 6235TIP3    H242901   0.390   3.273   6.459  0.9394  1.2440  0.0324
 6236TIP3   OH242902   6.563   2.536   7.142  0.4456  0.0770 -0.4735
 6236TIP3    H142903   6.626   2.486   7.195 -0.7694 -0.3869  0.5899
 6236TIP3    H242904   6.546   2.615   7.192  0.8479  0.6351 -1.1969
 6237TIP3   OH242905   0.159   4.129   7.260  0.3432  0.2920  0.0553
 6237TIP3    H142906   0.250   4.104   7.245  0.3863  0.4672  0.0296
 6237TIP3    H242907   0.145   4.116   7.353  0.2118 -0.3447 -0.0445
 6238TIP3   OH242908   5.304   5.370   8.880 -0.8441  0.1462 -0.5938
 6238TIP3    H142909   5.215   5.336   8.884 -1.3152  1.3947  0.5105
 6238TIP3    H242910   5.302   5.437   8.812 -0.5277 -0.4048 -1.1484
 6239TIP3   OH242911   5.143   2.644   6.510  0.2467 -0.2236  0.2238
 6239TIP3    H142912   5.192   2.613   6.586  0.0238  1.4492  1.1099
 6239TIP3    H242913   5.053   2.614   6.525  0.6017 -1.7367 -0.4947
 6240TIP3   OH242914   1.817   1.415   7.881  0.2615 -0.0218  0.0434
 6240TIP3    H142915   1.762   1.457   7.814 -2.9774 -0.8027  1.9673
 6240TIP3    H242916   1.850   1.487   7.934 -0.7529  0.4152  0.1089
 6241TIP3   OH242917   4.958   0.666   6.062  0.0340 -0.4408 -0.1539
 6241TIP3    H142918   4.977   0.622   6.144 -0.6861  0.2619  0.4047
 6241TIP3    H242919   4.877   0.715   6.078 -1.1096 -1.6501 -1.8082
 6242TIP3   OH242920   6.203   3.880   6.576  0.0051 -0.0365  0.0614
 6242TIP3    H142921   6.210   3.825   6.654 -0.1437  0.6360  0.5609
 6242TIP3    H242922   6.175   3.820   6.507  1.2066 -0.8569  0.2616
 6243TIP3   OH242923   4.349   4.836   7.633 -0.0339  0.2437  0.4632
 6243TIP3    H142924   4.432   4.852   7.589 -0.9539 -0.2100 -1.5846
 6243TIP3    H242925   4.292   4.907   7.604 -0.6340  0.0077  1.0378
 6244TIP3   OH242926   3.823   2.629   6.765  0.1248 -0.2009 -0.5590
 6244TIP3    H142927   3.803   2.569   6.837  1.1052  1.2171  0.9678
 6244TIP3    H242928   3.748   2.689   6.761  1.1172  1.2286  0.9771
 6245TIP3   OH242929   4.729   5.672   8.308 -0.1642  0.4420  1.0568
 6245TIP3    H142930   4.680   5.726   8.246  0.0454  1.3257  1.6465
 6245TIP3    H242931   4.671   5.599   8.327  0.5237 -0.9872 -1.7159
 6246TIP3   OH242932   3.186   1.618   5.804 -0.2467  0.0589 -0.1073
 6246TIP3    H142933   3.235   1.700   5.799  1.5352 -1.0207 -2.4435
 6246TIP3    H242934   3.233   1.567   5.870  0.0048  0.1193 -0.2358
 6247TIP3   OH242935   6.502   3.323   8.699 -0.1657 -0.1485 -0.4646
 6247TIP3    H142936   6.420   3.317   8.748  0.2484 -2.5727  0.0279
 6247TIP3    H242937   6.531   3.413   8.713 -1.0198 -0.2071  2.1773
 6248TIP3   OH242938   4.375   6.503   6.449 -0.0238 -0.3277  0.1091
 6248TIP3    H142939   4.349   6.518   6.540  0.7591 -1.0426  0.4576
 6248TIP3    H242940   4.434   6.576   6.429  0.4498 -0.6137  0.4449
 6249TIP3   OH242941   0.638   2.286   7.432  0.7546 -0.1395  0.1201
 6249TIP3    H142942   0.586   2.366   7.435  0.3356 -0.4053  0.0087
 6249TIP3    H242943   0.651   2.262   7.524 -0.0722 -0.5504  0.1408
 6250TIP3   OH242944   4.417   5.954   5.966 -0.5952  0.1642  0.3020
 6250TIP3    H142945   4.436   6.021   5.899  0.0511 -0.5168 -0.2066
 6250TIP3    H242946   4.346   5.992   6.018 -0.6444  0.9961 -0.3509
 6251TIP3   OH242947   3.273   4.139   5.623  0.5667 -0.1726 -0.3585
 6251TIP3    H142948   3.254   4.214   5.566  1.7322  0.5855  0.2066
 6251TIP3    H242949   3.197   4.082   5.614  0.4431  0.2225 -2.1935
 6252TIP3   OH242950   5.435   2.928   6.475 -0.2475 -0.1009 -0.1427
 6252TIP3    H142951   5.360   2.986   6.467 -2.1459 -2.0282  2.0866
 6252TIP3    H242952   5.409   2.864   6.542  1.1094 -4.3296 -3.2258
 6253TIP3   OH242953   3.510   0.166   6.665  0.1181  0.5030 -0.2142
 6253TIP3    H142954   3.502   0.072   6.648  0.7611  0.6151 -1.2332
 6253TIP3    H242955   3.580   0.172   6.730 -1.2096  0.1753  1.3067
 6254TIP3   OH242956   1.149   3.164   5.976  0.3535 -0.1105  1.1902
 6254TIP3    H142957   1.241   3.178   5.999  1.1664 -0.0544 -1.7141
 6254TIP3    H242958   1.133   3.072   5.993  1.7380 -0.7144 -0.4692
 6255TIP3   OH242959   0.066   3.985   5.401 -0.6386  0.2417  1.0019
 6255TIP3    H142960   0.094   3.915   5.460  1.1619 -1.5976 -1.7603
 6255TIP3    H242961   0.144   4.040   5.389  0.0755 -1.1737 -1.8063
 6256TIP3   OH242962   6.050   6.034   5.392 -0.2031  0.1096  0.0877
 6256TIP3    H142963   5.986   5.996   5.453 -0.4231  0.3866  0.0294
 6256TIP3    H242964   6.006   6.111   5.356  0.2543  0.4305  0.2173
 6257TIP3   OH242965   3.240   2.010   6.355 -0.2758 -0.0402  0.2621
 6257TIP3    H142966   3.174   2.032   6.289  1.1906  0.9884 -0.9498
 6257TIP3    H242967   3.323   2.011   6.306  0.6526 -1.2089  1.7423
 6258TIP3   OH242968   4.310   5.182   6.617  0.4461 -0.1818 -0.0956
 6258TIP3    H142969   4.224   5.146   6.635  1.3237 -1.7440  1.3412
 6258TIP3    H242970   4.363   5.106   6.591  1.2833  0.8126 -1.4697
 6259TIP3   OH242971   0.064   2.098   8.771  0.3154  0.2006  0.0504
 6259TIP3    H142972   0.132   2.134   8.715  1.1074 -0.9624  0.2442
 6259TIP3    H242973   0.061   2.005   8.750  0.5906 -0.2602  1.8699
 6260TIP3   OH242974   6.072   4.339   5.526 -0.0121 -0.6389  0.1269
 6260TIP3    H142975   6.123   4.415   5.500  1.2184 -1.1414  0.9362
 6260TIP3    H242976   6.091   4.273   5.460  0.5853 -0.8951  0.5432
 6261TIP3   OH242977   1.107   4.108   6.852 -0.1731 -0.3545  0.0929
 6261TIP3    H142978   1.169   4.143   6.916 -1.8235 -1.1580  2.2726
 6261TIP3    H242979   1.139   4.019   6.834 -1.5423 -1.4675  2.6358
 6262TIP3   OH242980   2.784   2.041   7.598 -1.0577 -0.0176  0.0136
 6262TIP3    H142981   2.832   1.960   7.613 -1.0704  0.3474  2.2992
 6262TIP3    H242982   2.846   2.110   7.620 -1.1821  0.6157 -1.4996
 6263TIP3   OH242983   5.576   5.020   7.512  0.5060 -0.4940  0.4279
 6263TIP3    H142984   5.629   5.084   7.465  1.7874 -1.0784  1.0247
 6263TIP3    H242985   5.586   4.939   7.461  1.6913 -1.0626  1.5173
 6264TIP3   OH242986   5.654   4.703   7.703  0.3043 -0.3772 -0.7416
 6264TIP3    H142987   5.684   4.792   7.717  1.1400 -0.7289 -0.2171
 6264TIP3    H242988   5.642   4.668   7.792  0.1289 -0.8315 -0.9424
 6265TIP3   OH242989   0.921   0.109   6.359  0.8107 -0.3930 -0.6035
 6265TIP3    H142990   0.843   0.144   6.316  0.2325  1.6651  1.9218
 6265TIP3    H242991   0.904   0.015   6.367 -0.8102 -0.1783 -1.2532
 6266TIP3   OH242992   3.039   3.913   5.685  0.2909  0.0921  0.4440
 6266TIP3    H142993   2.975   3.906   5.755  1.1238  1.3322  1.3667
 6266TIP3    H242994   2.992   3.956   5.613 -0.4891 -0.9488  0.3041
 6267TIP3   OH242995   4.897   6.031   7.823 -0.0707 -0.0292  0.7853
 6267TIP3    H142996   4.873   6.049   7.914 -1.4402 -1.1218  0.6792
 6267TIP3    H242997   4.829   6.073   7.771  0.7337  0.6351  0.2480
 6268TIP3   OH242998   1.099   6.101   6.475  0.0341 -0.3611  0.0912
 6268TIP3    H142999   1.144   6.184   6.491  1.5596 -1.1352 -0.0686
 6268TIP3    H243000   1.123   6.077   6.386 -1.2227 -0.4933 -0.2354
 6269TIP3   OH243001   5.437   3.583   7.963 -0.2948 -0.2173 -0.5625
 6269TIP3    H143002   5.361   3.539   7.924  0.5758 -1.3550 -1.0457
 6269TIP3    H243003   5.466   3.523   8.032  0.5827 -0.1292 -0.8494
 6270TIP3   OH243004   2.988   4.138   7.614  0.2450 -0.2634 -0.3733
 6270TIP3    H143005   2.938   4.175   7.541  1.2227 -0.2070 -1.0343
 6270TIP3    H243006   2.933   4.154   7.691  0.3460  2.0360 -0.7062
 6271TIP3   OH243007   3.649   4.366   7.730  0.5806 -0.3258  0.2565
 6271TIP3    H143008   3.639   4.329   7.817  0.8884 -0.6904  0.1392
 6271TIP3    H243009   3.615   4.299   7.671  0.4567 -0.1191  0.0928
 6272TIP3   OH243010   0.191   4.051   6.572 -0.4674  0.2261  0.2137
 6272TIP3    H143011   0.182   4.060   6.478 -0.2652  1.3024  0.2849
 6272TIP3    H243012   0.201   3.957   6.587 -0.6882  0.0347 -0.8140
 6273TIP3   OH243013   4.609   3.885   8.366 -0.4262  1.0906 -0.2863
 6273TIP3    H143014   4.555   3.810   8.341 -0.1973  1.3962 -1.7739
 6273TIP3    H243015   4.597   3.892   8.461 -3.1954  1.3057 -0.5728
 6274TIP3   OH243016   4.691   4.710   6.012 -0.1605  0.5200 -0.3122
 6274TIP3    H143017   4.611   4.761   6.005  0.3204  1.2171 -1.0011
 6274TIP3    H243018   4.742   4.736   5.935 -0.3618 -1.8504 -1.3221
 6275TIP3   OH243019   0.285   1.074   6.671 -0.1915  0.2128  0.1348
 6275TIP3    H143020   0.340   1.146   6.641 -0.0433 -0.0161 -0.1487
 6275TIP3    H243021   0.331   0.995   6.641  2.1732 -0.3090  4.3249
 6276TIP3   OH243022   6.086   4.815   6.947  0.5335 -0.0119 -0.3644
 6276TIP3    H143023   6.046   4.899   6.970  1.7286  0.1887  1.1539
 6276TIP3    H243024   6.013   4.754   6.941 -0.1371  0.6499  0.8695
 6277TIP3   OH243025   6.613   2.681   8.546  0.2026 -0.0695  0.4479
 6277TIP3    H143026   6.553   2.728   8.604  0.0748  0.2134  0.0920
 6277TIP3    H243027   6.699   2.715   8.570  0.3511 -1.2370  1.6852
 6278TIP3   OH243028   5.979   3.123   6.237 -0.5234  0.4772 -0.1630
 6278TIP3    H143029   6.042   3.084   6.296 -0.5426  0.5179 -0.1155
 6278TIP3    H243030   6.030   3.184   6.183 -0.0665 -1.2376 -1.7814
 6279TIP3   OH243031   6.349   0.180   5.698  0.0060  0.0008 -0.2115
 6279TIP3    H143032   6.398   0.262   5.701  0.3601 -0.1697 -0.9729
 6279TIP3    H243033   6.295   0.181   5.777 -0.5288  1.2996 -0.5687
 6280TIP3   OH243034   0.329   5.104   8.466  0.0817 -0.1553 -0.1751
 6280TIP3    H143035   0.394   5.040   8.494 -0.4266 -0.3959  0.4625
 6280TIP3    H243036   0.245   5.068   8.494 -0.2256  0.7143  0.0722
 6281TIP3   OH243037   3.349   2.074   7.705 -0.2090 -0.4733 -0.6431
 6281TIP3    H143038   3.429   2.097   7.658  0.5874 -1.6888  0.0598
 6281TIP3    H243039   3.291   2.038   7.638 -1.5537  3.4381 -1.8154
 6282TIP3   OH243040   2.086   4.082   6.877  0.3004 -0.4681 -0.1977
 6282TIP3    H143041   2.086   4.058   6.785 -0.8191  1.8354 -0.8954
 6282TIP3    H243042   2.091   4.178   6.877  1.4894 -0.4456  2.1879
 6283TIP3   OH243043   0.059   2.217   9.195 -0.2273  0.2979 -0.2931
 6283TIP3    H143044   0.087   2.140   9.244  1.9178  1.4851  0.4497
 6283TIP3    H243045   0.132   2.236   9.136 -0.6345  1.8320 -0.3523
 6284TIP3   OH243046   5.698   5.604   6.990  0.1619 -0.0943  0.2629
 6284TIP3    H143047   5.605   5.586   7.006  0.0726 -1.0991 -1.2195
 6284TIP3    H243048   5.744   5.554   7.057 -0.3352 -0.5897  0.2449
 6285TIP3   OH243049   0.642   2.724   7.974 -0.1737  0.0651  0.3934
 6285TIP3    H143050   0.642   2.727   7.878 -0.9699 -0.0021  0.3884
 6285TIP3    H243051   0.550   2.734   7.999 -0.0836 -0.8354  1.1244
 6286TIP3   OH243052   5.995   1.785   7.090 -0.0259 -0.0391 -0.4635
 6286TIP3    H143053   5.963   1.790   7.180  0.9286  0.2892 -0.1244
 6286TIP3    H243054   6.027   1.874   7.071  2.0799 -0.7012 -0.2210
 6287TIP3   OH243055   6.316   3.311   8.013 -0.0070  0.0174 -0.3520
 6287TIP3    H143056   6.385   3.350   8.067  1.0362 -1.9027 -0.2270
 6287TIP3    H243057   6.356   3.233   7.975 -2.2212 -1.3969  0.0225
 6288TIP3   OH243058   2.447   5.870   7.925 -0.0037  0.3425  0.2027
 6288TIP3    H143059   2.508   5.884   7.853 -0.2138 -1.2843 -0.3274
 6288TIP3    H243060   2.410   5.957   7.943  0.4709  0.8668 -1.2650
 6289TIP3   OH243061   1.993   6.375   8.830 -0.6031  0.0981  0.1514
 6289TIP3    H143062   1.900   6.353   8.830 -0.5588 -0.1407  1.4733
 6289TIP3    H243063   2.038   6.291   8.842 -0.1785  0.1578 -0.8622
 6290TIP3   OH243064   1.867   3.773   6.860 -0.1935  0.0727  0.0510
 6290TIP3    H143065   1.814   3.841   6.902  1.3143  1.7650 -0.6686
 6290TIP3    H243066   1.895   3.716   6.932 -1.2976  0.3090  0.6954
 6291TIP3   OH243067   0.178   4.028   8.435 -0.3283  0.2831 -0.0441
 6291TIP3    H143068   0.190   4.040   8.529  1.0720 -1.0421 -0.0159
 6291TIP3    H243069   0.230   4.097   8.395  0.6298 -0.3158  0.1542
 6292TIP3   OH243070   2.520   4.746   6.902 -0.4420 -0.0188 -0.3686
 6292TIP3    H143071   2.468   4.827   6.911  1.4346  1.0932  1.1325
 6292TIP3    H243072   2.611   4.775   6.909  0.2760 -2.3336  0.8119
 6293TIP3   OH243073   1.097   2.234   7.674 -0.4208  0.0597  0.4903
 6293TIP3    H143074   1.107   2.328   7.667 -0.1089  0.1083  1.5279
 6293TIP3    H243075   1.003   2.219   7.658 -0.9713  0.8078  2.6466
 6294TIP3   OH243076   6.604   1.816   7.007 -0.2611  0.1702 -0.8260
 6294TIP3    H143077   6.579   1.787   7.095 -2.4154 -2.1807 -2.0781
 6294TIP3    H243078   6.697   1.837   7.014 -0.3564  0.0226  1.9832
 6295TIP3   OH243079   1.094   3.966   9.128  0.1078  0.1113  0.0204
 6295TIP3    H143080   1.161   4.018   9.174  1.0730 -0.2126 -0.9789
 6295TIP3    H243081   1.127   3.958   9.039 -1.3718  0.0997 -0.5551
 6296TIP3   OH243082   2.375   3.247   7.975 -0.3154 -0.2391  0.3629
 6296TIP3    H143083   2.386   3.195   8.055  0.4065  0.0892  0.4879
 6296TIP3    H243084   2.425   3.200   7.909  0.8070  0.5625  0.6081
 6297TIP3   OH243085   3.897   1.694   7.032  0.1035 -0.0369 -0.7440
 6297TIP3    H143086   3.987   1.691   7.066 -0.2291  0.9361  0.2997
 6297TIP3    H243087   3.842   1.673   7.108 -0.5440 -1.3984 -1.5483
 6298TIP3   OH243088   1.862   4.034   7.987 -0.6970 -0.2015  0.0155
 6298TIP3    H143089   1.848   4.089   8.064 -1.4916 -1.9555  1.1876
 6298TIP3    H243090   1.777   3.991   7.973 -0.3576 -0.4653 -1.4137
 6299TIP3   OH243091   1.768   0.315   7.490 -0.4368 -0.0301  0.6175
 6299TIP3    H143092   1.850   0.295   7.536 -0.8790 -1.4332  0.8298
 6299TIP3    H243093   1.774   0.409   7.472  1.4175 -0.1746  0.2414
 6300TIP3   OH243094   4.104   4.971   5.524 -0.2354 -0.1106  0.0998
 6300TIP3    H143095   4.126   5.048   5.576  0.2604 -0.8427  1.0184
 6300TIP3    H243096   4.108   5.001   5.433  1.1687  0.6462  0.3848
 6301TIP3   OH243097   2.499   2.334   8.572  0.2617 -0.3020  0.7878
 6301TIP3    H143098   2.583   2.361   8.609 -0.2238  0.7583  1.1445
 6301TIP3    H243099   2.497   2.239   8.585  0.9038 -0.1860  1.8266
 6302TIP3   OH243100   4.761   5.240   6.321  0.1966  0.4374  0.0454
 6302TIP3    H143101   4.703   5.279   6.387 -0.9903 -1.4325  0.1805
 6302TIP3    H243102   4.826   5.308   6.304 -0.1827  1.4594  2.2157
 6303TIP3   OH243103   3.965   0.316   7.552  0.1935 -0.4886 -0.2233
 6303TIP3    H143104   3.962   0.274   7.465  1.3790 -0.4189 -0.3020
 6303TIP3    H243105   4.057   0.338   7.566  0.1070 -0.9653  1.2835
 6304TIP3   OH243106   4.973   1.980   7.893 -0.5115 -0.5463  0.3578
 6304TIP3    H143107   4.999   2.030   7.816  1.5128 -0.0472  1.3153
 6304TIP3    H243108   4.991   2.039   7.967 -0.6577 -1.6913  1.3349
 6305TIP3   OH243109   3.653   1.469   7.649 -0.1347  0.2236 -0.0962
 6305TIP3    H143110   3.717   1.485   7.718  0.4073 -0.2542 -0.4759
 6305TIP3    H243111   3.609   1.388   7.675 -0.7190  0.6476  0.2560
 6306TIP3   OH243112   2.207   1.209   6.700 -0.3000  0.1141 -0.2509
 6306TIP3    H143113   2.302   1.217   6.705 -0.1831  0.4029 -2.1102
 6306TIP3    H243114   2.189   1.121   6.731  0.6781 -0.2907 -0.7872
 6307TIP3   OH243115   1.728   5.091   9.597 -0.7182  0.6236 -0.0361
 6307TIP3    H143116   1.641   5.128   9.611 -0.0307  1.7626  1.6447
 6307TIP3    H243117   1.715   4.997   9.600 -1.7908  0.7817  1.1550
 6308TIP3   OH243118   5.515   4.584   8.428 -0.5914 -0.0354  0.2941
 6308TIP3    H143119   5.557   4.655   8.478 -1.3664  0.5223  0.1688
 6308TIP3    H243120   5.500   4.515   8.492 -0.8362  0.3517  0.6530
 6309TIP3   OH243121   2.928   2.754   5.835  0.1333  0.3067  0.0709
 6309TIP3    H143122   2.907   2.835   5.880 -0.8718  0.6328 -0.9394
 6309TIP3    H243123   2.889   2.685   5.889  1.4847  0.4010  1.2430
 6310TIP3   OH243124   4.900   4.443   6.943  0.4638 -0.2675 -0.6308
 6310TIP3    H143125   4.981   4.471   6.902  0.2188  1.3576 -0.0849
 6310TIP3    H243126   4.833   4.456   6.875  0.1659  1.7642 -0.0339
 6311TIP3   OH243127   0.830   6.547   6.381 -0.0579 -0.2378  0.4674
 6311TIP3    H143128   0.815   6.509   6.467 -1.1113 -2.1361 -0.5034
 6311TIP3    H243129   0.830   6.473   6.321  2.8469  0.7776 -0.9659
 6312TIP3   OH243130   1.864   2.315   5.909  0.5877  0.5412 -0.9884
 6312TIP3    H143131   1.873   2.302   5.815 -0.6199 -1.2312 -0.9060
 6312TIP3    H243132   1.824   2.234   5.941  0.7032  1.2175  1.0111
 6313TIP3   OH243133   1.929   3.912   5.915  0.0857  0.1988 -0.5396
 6313TIP3    H143134   1.834   3.905   5.919  0.1417 -1.5138 -1.3005
 6313TIP3    H243135   1.958   3.826   5.884  1.9228  0.4801  0.2766
 6314TIP3   OH243136   0.358   5.357   6.349  0.1777  0.0426  0.9920
 6314TIP3    H143137   0.330   5.399   6.268 -0.2556 -2.7738 -0.4172
 6314TIP3    H243138   0.277   5.339   6.396 -0.4420 -4.4149 -1.2247
 6315TIP3   OH243139   2.991   4.256   5.738  0.3853  0.1217  0.4152
 6315TIP3    H143140   3.075   4.234   5.779  0.0011 -0.3410  0.9667
 6315TIP3    H243141   2.930   4.265   5.811 -0.2204 -0.3140 -0.0276
 6316TIP3   OH243142   5.522   4.018   7.557 -0.4789  0.2250  0.1297
 6316TIP3    H143143   5.537   4.028   7.651  0.1568 -0.9224  0.1596
 6316TIP3    H243144   5.483   4.102   7.531  1.3013  1.3903  1.0114
 6317TIP3   OH243145   3.983   4.267   7.279 -0.0075  0.2248 -0.1244
 6317TIP3    H143146   3.912   4.251   7.342  0.1963  1.2761  0.3943
 6317TIP3    H243147   4.042   4.328   7.323 -0.7996  2.4924 -1.9504
 6318TIP3   OH243148   5.819   2.870   7.198  0.0316 -0.3975 -0.4605
 6318TIP3    H143149   5.878   2.929   7.246  2.1631 -1.5439 -1.5308
 6318TIP3    H243150   5.781   2.814   7.266  0.5605  0.0452  0.2172
 6319TIP3   OH243151   0.170   0.331   6.074  0.1585  0.0804  0.4796
 6319TIP3    H143152   0.253   0.292   6.102  0.1713  0.3518  0.8203
 6319TIP3    H243153   0.196   0.414   6.033 -0.0337  0.7663  1.7028
 6320TIP3   OH243154   5.293   4.297   6.986  0.3902 -0.1190  0.3648
 6320TIP3    H143155   5.266   4.335   6.903  0.8232  0.1672  0.3494
 6320TIP3    H243156   5.358   4.231   6.962  1.0354  0.4540  0.5198
 6321TIP3   OH243157   5.674   6.088   7.254  0.0019 -0.2341  0.4658
 6321TIP3    H143158   5.760   6.048   7.269 -0.2384 -0.7263  0.5701
 6321TIP3    H243159   5.612   6.020   7.281 -0.4520 -0.7663 -1.7199
 6322TIP3   OH243160   1.105   5.651   6.687  0.4004  0.5203 -0.1140
 6322TIP3    H143161   1.131   5.563   6.660  0.6330  0.5712 -0.0602
 6322TIP3    H243162   1.140   5.708   6.619  0.6300  0.6116  0.0791
 6323TIP3   OH243163   6.602   4.105   7.743 -0.1874  0.2300 -0.4152
 6323TIP3    H143164   6.551   4.139   7.669 -1.2858 -0.3989  0.0231
 6323TIP3    H243165   6.548   4.125   7.820  0.1165 -0.6708  0.0451
 6324TIP3   OH243166   1.396   0.385   7.941 -0.0596  0.1721  0.7023
 6324TIP3    H143167   1.450   0.306   7.946 -0.4195 -0.1943 -0.8904
 6324TIP3    H243168   1.361   0.386   7.852  1.0150  2.8447  0.1941
 6325TIP3   OH243169   5.600   4.165   7.263 -0.4867  0.2581 -0.4793
 6325TIP3    H143170   5.564   4.187   7.349  0.6634 -0.6293  0.2457
 6325TIP3    H243171   5.541   4.098   7.229 -1.7030  1.5326 -0.9786
 6326TIP3   OH243172   6.434   2.266   6.265  0.2123  0.1087  0.1695
 6326TIP3    H143173   6.409   2.342   6.213  0.7323  0.3606  0.2875
 6326TIP3    H243174   6.366   2.260   6.333  0.1734  0.4653  0.1635
 6327TIP3   OH243175   3.410   2.521   8.122  0.0567  0.5481 -0.6546
 6327TIP3    H143176   3.479   2.461   8.149 -0.6649 -0.0580 -0.1095
 6327TIP3    H243177   3.429   2.541   8.031  1.6544  1.3814 -0.1782
 6328TIP3   OH243178   5.478   3.919   6.597  0.7100  0.0288 -0.4576
 6328TIP3    H143179   5.505   3.971   6.522 -0.1772  1.3630  0.1103
 6328TIP3    H243180   5.388   3.893   6.577  0.8531 -0.5698 -0.3452
 6329TIP3   OH243181   0.561   2.895   5.943  0.0219  0.0051 -0.4281
 6329TIP3    H143182   0.524   2.807   5.931 -0.8933  0.3735 -0.3516
 6329TIP3    H243183   0.615   2.886   6.022 -0.2117 -0.4439 -0.3116
 6330TIP3   OH243184   5.445   0.953   7.607 -0.1986  0.7332 -0.8255
 6330TIP3    H143185   5.531   0.996   7.603  0.4524 -0.3288  0.7648
 6330TIP3    H243186   5.398   1.001   7.675  0.6220 -1.0882  1.1401
 6331TIP3   OH243187   1.911   2.491   6.414  0.2879  0.0649 -0.1052
 6331TIP3    H143188   1.946   2.432   6.481 -0.3703 -2.7984 -2.1007
 6331TIP3    H243189   1.904   2.437   6.336  1.5423  3.3711 -2.7348
 6332TIP3   OH243190   3.128   1.374   9.043  0.0361 -0.0308 -0.0541
 6332TIP3    H143191   3.119   1.418   9.127  3.7986  0.7147  0.1296
 6332TIP3    H243192   3.127   1.280   9.064 -1.0129  0.1003  0.5170
 6333TIP3   OH243193   3.091   1.188   6.827  0.2690  0.2546 -0.4895
 6333TIP3    H143194   3.111   1.116   6.767  1.2291 -0.2957  0.4572
 6333TIP3    H243195   3.174   1.206   6.872 -0.4329  0.6163  0.7125
 6334TIP3   OH243196   2.701   3.222   7.547  0.1164  0.4209 -0.0035
 6334TIP3    H143197   2.753   3.211   7.468 -2.6174  2.1827 -2.2412
 6334TIP3    H243198   2.627   3.163   7.535 -1.1385  1.8382  0.4305
 6335TIP3   OH243199   3.345   2.883   6.804  0.5802 -0.7496 -0.0445
 6335TIP3    H143200   3.327   2.935   6.726 -3.1037 -1.8779 -0.1498
 6335TIP3    H243201   3.334   2.945   6.876  0.9987 -0.3564 -0.3133
 6336TIP3   OH243202   2.413   1.053   7.313  0.3549 -0.4822 -0.0519
 6336TIP3    H143203   2.358   1.044   7.236  0.8939 -0.2975 -0.4632
 6336TIP3    H243204   2.385   1.136   7.353  1.2519  0.3234 -1.0203
 6337TIP3   OH243205   1.641   3.561   7.731 -0.4587  0.3415  0.4619
 6337TIP3    H143206   1.694   3.482   7.725 -2.5968 -1.0796 -1.4556
 6337TIP3    H243207   1.620   3.570   7.824  1.6672  0.0138  1.0247
 6338TIP3   OH243208   4.959   1.456   7.564  0.5509  1.6584 -0.0006
 6338TIP3    H143209   4.864   1.469   7.561  0.2243 -0.1879  0.8717
 6338TIP3    H243210   4.992   1.529   7.615 -0.4481  2.1125  0.0168
 6339TIP3   OH243211   4.098   1.727   6.064 -0.0262 -0.2915 -0.4347
 6339TIP3    H143212   4.024   1.741   6.123  0.0350  0.5518 -0.5377
 6339TIP3    H243213   4.116   1.814   6.028  1.2389 -0.4169 -0.1460
 6340TIP3   OH243214   0.846   2.901   7.709 -0.3502  0.2182 -0.2161
 6340TIP3    H143215   0.900   2.904   7.631  1.7698 -0.1088  1.1701
 6340TIP3    H243216   0.785   2.974   7.700 -0.1944  0.1488 -2.1591
 6341TIP3   OH243217   6.234   5.489   6.142 -0.2737 -0.1425 -0.3459
 6341TIP3    H143218   6.223   5.450   6.229  0.6318  0.8182  0.2270
 6341TIP3    H243219   6.291   5.565   6.157  0.2814 -0.2280 -1.8555
 6342TIP3   OH243220   2.311   3.352   6.846  0.4587 -0.0955  0.3045
 6342TIP3    H143221   2.261   3.390   6.774  2.1179 -2.0840 -2.0832
 6342TIP3    H243222   2.328   3.425   6.905 -1.1193  1.6138 -1.2287
 6343TIP3   OH243223   3.557   3.941   6.182 -0.4498 -0.1270 -0.8556
 6343TIP3    H143224   3.647   3.917   6.159 -0.4364 -0.7839 -0.1607
 6343TIP3    H243225   3.555   4.036   6.174  0.4560 -0.0576 -0.3972
 6344TIP3   OH243226   4.019   5.251   6.506 -0.2263 -0.0761  0.0688
 6344TIP3    H143227   3.990   5.336   6.473 -1.0776  0.5371  2.2040
 6344TIP3    H243228   4.038   5.199   6.428 -1.1862  1.5655 -1.3026
 6345TIP3   OH243229   4.952   3.753   6.622 -0.5066 -0.9086  0.2221
 6345TIP3    H143230   4.903   3.769   6.541  1.6097 -0.7735 -1.1262
 6345TIP3    H243231   4.936   3.831   6.675  0.2497  0.3413 -1.2803
 6346TIP3   OH243232   4.674   3.850   9.053 -0.3617  0.5815 -0.1550
 6346TIP3    H143233   4.721   3.912   9.109 -0.6319  0.2614  0.4395
 6346TIP3    H243234   4.583   3.855   9.084 -0.4094 -0.0029 -0.2040
 6347TIP3   OH243235   2.585   0.553   8.243  0.2480  0.6257  0.2703
 6347TIP3    H143236   2.555   0.525   8.157 -0.2864 -0.8721  0.8937
 6347TIP3    H243237   2.663   0.499   8.260 -1.3530 -1.3310  1.9077
 6348TIP3   OH243238   0.616   1.546   9.069  0.2331  0.2165  0.0734
 6348TIP3    H143239   0.689   1.593   9.108  0.7365 -1.1486  0.8483
 6348TIP3    H243240   0.656   1.481   9.012 -0.4616  0.9428 -1.3233
 6349TIP3   OH243241   1.451   2.647   6.429 -0.0620 -0.0855 -0.2128
 6349TIP3    H143242   1.463   2.643   6.524 -1.4664 -2.9278 -0.0637
 6349TIP3    H243243   1.538   2.667   6.395  0.8529 -0.7470  1.5954
 6350TIP3   OH243244   1.659   4.996   7.530  1.1766  0.1889 -0.0025
 6350TIP3    H143245   1.700   4.949   7.602 -0.6994  0.0269  1.0177
 6350TIP3    H243246   1.669   4.938   7.454 -0.3726 -1.5417  1.0547
 6351TIP3   OH243247   2.610   0.008   6.923  0.1092  0.9020  0.5995
 6351TIP3    H143248   2.554  -0.070   6.927  1.5116 -0.1358  0.7744
 6351TIP3    H243249   2.550   0.080   6.908 -1.2308 -0.2286  0.3582
 6352TIP3   OH243250   1.939   3.519   6.061  0.3518 -0.0763 -0.0216
 6352TIP3    H143251   1.895   3.436   6.045  2.1733 -0.7969 -1.7441
 6352TIP3    H243252   2.012   3.497   6.119  0.3833  0.4591  0.1461
 6353TIP3   OH243253   1.664   2.804   9.185  0.4790 -0.2209  0.9931
 6353TIP3    H143254   1.716   2.771   9.111  1.0429 -0.7349  1.6083
 6353TIP3    H243255   1.623   2.727   9.222  1.4721 -0.2121  2.1826
 6354TIP3   OH243256   4.906   5.999   5.899  0.2763 -0.0254 -0.1348
 6354TIP3    H143257   4.997   6.030   5.891  0.0201  0.6639 -0.4182
 6354TIP3    H243258   4.890   5.995   5.993  1.5197 -2.9119  0.0690
 6355TIP3   OH243259   2.834   6.279   6.307  0.5842  0.6500 -1.1181
 6355TIP3    H143260   2.883   6.347   6.352 -1.0194  2.0175 -1.3436
 6355TIP3    H243261   2.854   6.198   6.355  0.6976  1.6732  0.6218
 6356TIP3   OH243262   5.837   5.611   5.802 -0.4565 -0.8834 -0.3406
 6356TIP3    H143263   5.882   5.564   5.872 -1.2253  0.5173  1.1580
 6356TIP3    H243264   5.888   5.591   5.724  1.3131 -1.3286  0.8587
 6357TIP3   OH243265   4.243   2.216   6.104  0.4083  0.0478  0.5461
 6357TIP3    H143266   4.158   2.181   6.130  0.0778  0.0616 -0.4784
 6357TIP3    H243267   4.294   2.218   6.185 -1.0955  1.6149  1.5206
 6358TIP3   OH243268   4.279   0.733   5.674 -0.7065  1.1061 -0.6999
 6358TIP3    H143269   4.368   0.760   5.651 -0.4365  1.1268  0.3033
 6358TIP3    H243270   4.292   0.662   5.737 -1.3980  1.4327 -0.1856
 6359TIP3   OH243271   0.033   5.599   8.292  0.2322 -0.1181 -1.4772
 6359TIP3    H143272   0.100   5.667   8.280 -0.3817  0.7005 -0.4084
 6359TIP3    H243273  -0.038   5.642   8.338  0.3704 -1.7987  0.4475
 6360TIP3   OH243274   2.091   0.678   6.761  0.3316 -0.3980 -0.6665
 6360TIP3    H143275   2.003   0.702   6.730 -0.5029 -2.2294  0.1388
 6360TIP3    H243276   2.089   0.699   6.855  1.0987  0.4299 -0.8279
 6361TIP3   OH243277   1.563   6.003   7.311 -0.0999 -0.3530 -0.3479
 6361TIP3    H143278   1.507   5.955   7.250  0.8307 -1.5943 -0.2568
 6361TIP3    H243279   1.502   6.061   7.358 -1.1028 -0.7256 -1.1516
 6362TIP3   OH243280   2.495   1.954   5.527  0.5458  0.0679 -0.3283
 6362TIP3    H143281   2.578   1.969   5.481 -0.3703 -0.1310 -2.1730
 6362TIP3    H243282   2.513   1.881   5.586  2.0078  0.8792  0.2912
 6363TIP3   OH243283   2.031   1.470   6.035 -0.1569  0.2308 -0.1724
 6363TIP3    H143284   1.953   1.521   6.057  0.4451  0.8727  0.5299
 6363TIP3    H243285   2.085   1.529   5.984 -0.6644 -0.6195 -1.7587
 6364TIP3   OH243286   1.547   3.539   9.117 -0.1653  0.3917  0.0162
 6364TIP3    H143287   1.516   3.630   9.123 -1.2610  0.1237 -1.1344
 6364TIP3    H243288   1.642   3.547   9.103 -0.3105  1.3848 -0.5076
 6365TIP3   OH243289   3.557   4.985   5.396  0.2113  0.3031  0.1790
 6365TIP3    H143290   3.601   5.001   5.479 -0.5770  0.9324  0.4898
 6365TIP3    H243291   3.468   4.959   5.420 -0.2253  1.1380 -0.4594
 6366TIP3   OH243292   5.361   2.686   6.929  0.1042  0.3075  0.6808
 6366TIP3    H143293   5.377   2.642   7.012 -0.7383  2.1683  1.9115
 6366TIP3    H243294   5.427   2.650   6.869 -1.4231 -3.6535  1.0701
 6367TIP3   OH243295   3.668   4.023   8.652  0.2386 -0.2842 -0.2805
 6367TIP3    H143296   3.715   4.008   8.735 -1.0873  0.7493  0.6919
 6367TIP3    H243297   3.704   4.105   8.618 -0.4006  0.1744  0.1403
 6368TIP3   OH243298   3.735   3.053   8.340  0.0219 -0.1828 -0.7147
 6368TIP3    H143299   3.717   3.100   8.259 -2.3697 -1.4176 -0.9787
 6368TIP3    H243300   3.681   3.097   8.405 -0.2718 -0.9859 -0.4118
 6369TIP3   OH243301   5.696   6.315   6.072  0.3846 -0.0557  0.3631
 6369TIP3    H143302   5.734   6.388   6.024  0.0203 -0.0210  0.1275
 6369TIP3    H243303   5.766   6.286   6.130  0.7266  0.0981  0.0308
 6370TIP3   OH243304   2.530   3.018   7.512  0.5037 -0.4990 -0.1873
 6370TIP3    H143305   2.567   2.932   7.493  0.3533 -0.7433  0.5867
 6370TIP3    H243306   2.439   3.012   7.481  0.3809 -0.7542  0.2101
 6371TIP3   OH243307   4.157   6.148   6.844 -0.2809  0.5393 -0.0432
 6371TIP3    H143308   4.132   6.060   6.873  0.4746 -0.7129 -2.8286
 6371TIP3    H243309   4.246   6.159   6.877  0.2318 -0.4806 -0.9944
 6372TIP3   OH243310   6.431   3.454   5.243  0.1653 -0.2722  0.1344
 6372TIP3    H143311   6.371   3.380   5.247 -0.6680  0.4434  1.3020
 6372TIP3    H243312   6.477   3.452   5.327 -0.8090  1.2832  0.7414
 6373TIP3   OH243313   6.561   5.950   8.356  0.6771  0.1600  0.1317
 6373TIP3    H143314   6.613   5.872   8.379 -0.3165 -0.5442  0.0485
 6373TIP3    H243315   6.575   6.011   8.428 -0.0140 -0.8439  1.1448
 6374TIP3   OH243316   2.032   5.582   7.798  0.3863 -0.4050  0.3866
 6374TIP3    H143317   2.123   5.598   7.774 -0.2690 -0.9618 -3.0494
 6374TIP3    H243318   2.026   5.487   7.806 -0.2256 -0.5918 -1.5733
 6375TIP3   OH243319   1.214   2.521   8.287 -0.4516 -0.3627 -0.0211
 6375TIP3    H143320   1.244   2.440   8.246  0.1674 -0.0519 -0.1946
 6375TIP3    H243321   1.156   2.492   8.358  0.3304 -0.9824  0.3831
 6376TIP3   OH243322   2.435   2.459   7.587  0.5574  0.0029  0.1221
 6376TIP3    H143323   2.398   2.373   7.571  2.8104 -0.8545 -1.0298
 6376TIP3    H243324   2.501   2.445   7.655 -0.5642  1.2908  1.5323
 6377TIP3   OH243325   0.159   3.004   8.879  0.1575 -0.1671  0.3030
 6377TIP3    H143326   0.133   3.090   8.847  1.4909 -0.1780 -0.9081
 6377TIP3    H243327   0.179   2.954   8.800 -0.6943 -1.6479  0.9700
 6378TIP3   OH243328   4.113   0.765   8.233 -0.3042 -0.3534  0.0370
 6378TIP3    H143329   4.162   0.811   8.166  0.6126 -0.7285  0.4375
 6378TIP3    H243330   4.174   0.756   8.306 -1.8109  1.7062  1.6949
 6379TIP3   OH243331   5.690   2.346   8.359  0.2984  0.0398  0.1038
 6379TIP3    H143332   5.768   2.348   8.415  0.8570 -0.0191 -0.6671
 6379TIP3    H243333   5.637   2.274   8.394  1.3998 -1.0666 -0.4407
 6380TIP3   OH243334   2.871   4.369   6.809 -0.5059 -0.5464  0.2228
 6380TIP3    H143335   2.934   4.386   6.879  0.1937 -0.8978 -0.3109
 6380TIP3    H243336   2.789   4.405   6.841  0.1816  0.8112  0.5128
 6381TIP3   OH243337   3.120   4.949   7.554 -0.1063 -0.3048 -0.3276
 6381TIP3    H143338   3.179   4.876   7.575 -0.1616 -0.2073  0.1750
 6381TIP3    H243339   3.046   4.938   7.613 -0.8399 -0.7086 -1.2956
 6382TIP3   OH243340   1.754   3.025   8.667 -0.3340  0.2164 -0.1664
 6382TIP3    H143341   1.734   3.037   8.760  0.9774 -0.8836  0.2895
 6382TIP3    H243342   1.669   3.009   8.626 -1.0579  1.7201  0.6372
 6383TIP3   OH243343   3.209   1.991   7.087 -0.4227  0.1540 -0.1373
 6383TIP3    H143344   3.160   2.025   7.012  0.0746 -1.0514 -1.0322
 6383TIP3    H243345   3.294   2.034   7.082 -0.7768  0.9619  0.4429
 6384TIP3   OH243346   5.583   6.507   7.945  0.1717  0.5875  0.1509
 6384TIP3    H143347   5.510   6.533   8.001  1.2589  0.4336  1.6959
 6384TIP3    H243348   5.541   6.468   7.868 -1.4003  2.2743  0.0717
 6385TIP3   OH243349   1.035   6.603   7.720  0.5398 -0.0460 -0.2359
 6385TIP3    H143350   0.996   6.666   7.780  2.2896  0.3453  0.5331
 6385TIP3    H243351   1.011   6.518   7.755  1.3289  0.1832  0.9013
 6386TIP3   OH243352   1.933   0.067   7.058 -0.4188  0.7141 -0.9214
 6386TIP3    H143353   1.842   0.040   7.068 -0.1730  0.2139  0.2103
 6386TIP3    H243354   1.965   0.018   6.983 -0.4256 -1.0075  0.1410
 6387TIP3   OH243355   3.431   5.413   7.632 -0.2696 -0.4534  0.3299
 6387TIP3    H143356   3.498   5.439   7.695 -0.7163 -0.4739  0.8159
 6387TIP3    H243357   3.453   5.322   7.610  0.6152 -0.0660 -0.5019
 6388TIP3   OH243358   1.692   1.170   6.451 -0.6002 -0.3777  0.1782
 6388TIP3    H143359   1.729   1.084   6.471  2.1017 -0.0247 -2.6896
 6388TIP3    H243360   1.757   1.232   6.483 -0.5709  0.4296 -1.3826
 6389TIP3   OH243361   1.689   4.265   6.865  0.5598 -0.3241  0.0853
 6389TIP3    H143362   1.626   4.195   6.843  0.0344 -0.3260  1.4733
 6389TIP3    H243363   1.722   4.295   6.780 -1.3736 -0.2749 -0.7178
 6390TIP3   OH243364   2.292   4.704   7.733  0.5343  0.0689  0.4542
 6390TIP3    H143365   2.305   4.756   7.653  2.2614  0.5463  0.9979
 6390TIP3    H243366   2.292   4.768   7.804 -0.5159 -0.3965  0.8888
 6391TIP3   OH243367   1.538   1.470   9.418  0.2132 -0.1444 -0.2174
 6391TIP3    H143368   1.526   1.509   9.332  1.7880  0.7815 -0.0637
 6391TIP3    H243369   1.629   1.439   9.417  0.6558  0.9651  1.4947
 6392TIP3   OH243370   0.332   1.716   7.351 -0.0663  0.6947  0.0455
 6392TIP3    H143371   0.405   1.738   7.409  0.9805 -3.3988  0.6167
 6392TIP3    H243372   0.256   1.710   7.409 -0.3522  2.4005 -0.1092
 6393TIP3   OH243373   1.380   4.610   6.190  0.3771  0.0772 -0.1522
 6393TIP3    H143374   1.466   4.615   6.147  1.2380 -1.1523  1.3208
 6393TIP3    H243375   1.367   4.696   6.229 -0.0696  0.9681 -2.1379
 6394TIP3   OH243376   5.564   2.363   7.388 -0.4009 -0.2265 -0.2254
 6394TIP3    H143377   5.590   2.357   7.480 -0.0060  1.7698 -0.1399
 6394TIP3    H243378   5.478   2.323   7.384  0.4712 -2.2898  0.5510
 6395TIP3   OH243379   6.366   5.434   8.789 -0.5276  0.1745 -0.1644
 6395TIP3    H143380   6.272   5.432   8.775 -0.5223 -1.7824 -0.2240
 6395TIP3    H243381   6.399   5.494   8.722 -1.7750  1.6112  0.4407
 6396TIP3   OH243382   2.573   1.012  15.557  0.2752 -0.0747 -0.0657
 6396TIP3    H143383   2.534   1.076  15.617  0.1447 -1.0274  0.8858
 6396TIP3    H243384   2.525   1.025  15.475 -1.7468 -0.8565  0.9241
 6397TIP3   OH243385   5.044   6.605   7.163 -0.2728  0.0216  0.2966
 6397TIP3    H143386   5.109   6.550   7.119 -0.4826 -0.2743  0.3488
 6397TIP3    H243387   4.970   6.608   7.102 -1.3589 -1.9980  1.4045
 6398TIP3   OH243388   4.098   1.880   7.964  0.1079 -0.2032  0.2961
 6398TIP3    H143389   4.167   1.823   7.998  0.3381 -0.2891 -0.2965
 6398TIP3    H243390   4.047   1.905   8.041  0.5298 -0.5042  0.6788
 6399TIP3   OH243391   3.175   1.337   6.609  0.1629 -0.0975 -0.5437
 6399TIP3    H143392   3.145   1.299   6.692  2.1310  0.5054  0.4939
 6399TIP3    H243393   3.240   1.275   6.576  2.7439  1.8036  0.7129
 6400TIP3   OH243394   3.940   0.176   6.489  0.4872  0.0767  0.2899
 6400TIP3    H143395   4.013   0.206   6.543 -0.3335  1.8981  0.4761
 6400TIP3    H243396   3.885   0.254   6.477 -1.5875 -1.2756  0.3958
 6401TIP3   OH243397   6.508   2.950   7.022  0.1536 -0.3761 -0.2465
 6401TIP3    H143398   6.515   3.045   7.025 -0.7702 -0.2719 -0.8009
 6401TIP3    H243399   6.525   2.928   6.930 -0.1937 -0.6888 -0.2391
 6402TIP3   OH243400   0.921   4.467   6.298 -0.1956  0.3285  0.5664
 6402TIP3    H143401   0.879   4.549   6.322 -0.8382  0.0410  0.4539
 6402TIP3    H243402   0.996   4.493   6.244 -0.8812  0.8156 -0.1821
 6403TIP3   OH243403   1.557   0.630   9.086 -0.4454  0.1876 -0.3219
 6403TIP3    H143404   1.641   0.594   9.058 -0.1639  0.7336 -0.2018
 6403TIP3    H243405   1.554   0.717   9.044  0.1463  1.1793  1.5873
 6404TIP3   OH243406   1.076   4.500   7.549 -0.0720  0.0672  0.1395
 6404TIP3    H143407   1.112   4.432   7.606 -1.3542 -0.9086 -0.1733
 6404TIP3    H243408   1.081   4.463   7.461  1.8145  1.5283 -0.4276
 6405TIP3   OH243409   0.759   1.189   7.855  0.0119 -0.1763  0.3542
 6405TIP3    H143410   0.810   1.115   7.823 -1.6442 -1.3721  0.3666
 6405TIP3    H243411   0.676   1.183   7.809 -0.8436  0.5911  1.7286
 6406TIP3   OH243412   0.791   3.227   6.289  0.1713  0.2140  0.0156
 6406TIP3    H143413   0.797   3.269   6.203  2.8746 -0.2649 -0.1404
 6406TIP3    H243414   0.860   3.270   6.340 -0.4651 -0.4816  1.5057
 6407TIP3   OH243415   4.226   6.207   7.176  0.6883 -0.1093  0.4262
 6407TIP3    H143416   4.271   6.156   7.244 -0.0463 -1.1398  0.1656
 6407TIP3    H243417   4.134   6.202   7.199  0.3616 -0.9965 -0.9610
 6408TIP3   OH243418   6.602   4.877   5.418  0.6727 -0.2236  0.9446
 6408TIP3    H143419   6.625   4.936   5.490  0.5040  2.5398 -1.1040
 6408TIP3    H243420   6.666   4.896   5.349 -0.8742 -0.6187 -0.6995
 6409TIP3   OH243421   3.628   0.449   7.381  0.4461  0.2035  0.3785
 6409TIP3    H143422   3.636   0.519   7.317 -0.3348  0.5387  0.6334
 6409TIP3    H243423   3.712   0.448   7.426  0.8506  0.2451 -0.3572
 6410TIP3   OH243424   1.013   2.133   6.353  0.3458  0.1447 -0.0265
 6410TIP3    H143425   1.074   2.204   6.330  1.9187  0.2058  3.6507
 6410TIP3    H243426   0.926   2.172   6.343  1.1189  2.0707  0.2860
 6411TIP3   OH243427   3.759   1.226   6.887  0.3463  0.0116 -0.2753
 6411TIP3    H143428   3.692   1.236   6.954 -1.9322 -1.0189 -2.2538
 6411TIP3    H243429   3.778   1.316   6.858 -1.1016  0.2565 -0.5054
 6412TIP3   OH243430   4.797   2.980   6.820  0.4037 -0.1530 -0.4144
 6412TIP3    H143431   4.764   3.018   6.739 -2.0249  1.4201  1.1386
 6412TIP3    H243432   4.833   3.054   6.869  0.5752 -0.8105  0.4905
 6413TIP3   OH243433   3.438   4.862   6.949 -0.1883 -0.0752 -0.1947
 6413TIP3    H143434   3.367   4.896   6.896 -0.1322  1.0129  0.4086
 6413TIP3    H243435   3.440   4.918   7.027  0.7677 -0.6290  0.2040
 6414TIP3   OH243436   6.423   0.950   7.217 -0.4550  0.1553  0.2556
 6414TIP3    H143437   6.493   1.015   7.204 -0.4074  0.1949  0.6864
 6414TIP3    H243438   6.348   0.986   7.170 -0.6550  0.9047  1.1253
 6415TIP3   OH243439   5.428   0.005   7.203  0.4854  0.6922 -0.2860
 6415TIP3    H143440   5.355   0.052   7.164 -1.4378 -1.8016  0.0403
 6415TIP3    H243441   5.454  -0.059   7.136 -0.6059 -1.3571  1.1331
 6416TIP3   OH243442   2.736   6.102   7.641  0.1063 -0.2024  0.4596
 6416TIP3    H143443   2.795   6.162   7.596 -1.5547  1.2952  0.1777
 6416TIP3    H243444   2.790   6.025   7.659  1.7376  0.5057 -1.0600
 6417TIP3   OH243445   5.686   1.634   7.821 -0.1654  0.1796  0.1685
 6417TIP3    H143446   5.735   1.647   7.903 -1.3739  0.4358  0.8760
 6417TIP3    H243447   5.697   1.716   7.773  0.5738  0.0191  0.0427
 6418TIP3   OH243448   6.473   2.420   8.709 -0.1653  0.1971 -0.5499
 6418TIP3    H143449   6.510   2.356   8.648 -1.1222 -0.5383 -0.3891
 6418TIP3    H243450   6.469   2.374   8.793  0.0498  0.8079 -0.1989
 6419TIP3   OH243451   2.762   2.510   7.859  0.2434 -0.5704 -0.6196
 6419TIP3    H143452   2.822   2.569   7.813  0.2607  0.2120  0.3693
 6419TIP3    H243453   2.687   2.565   7.882  0.2636 -0.9247  0.3307
 6420TIP3   OH243454   4.570   1.916   6.567  0.0102 -0.0775 -0.0005
 6420TIP3    H143455   4.626   1.975   6.517  0.8318  1.0330  2.1133
 6420TIP3    H243456   4.526   1.862   6.501  0.0506  2.1628 -1.9727
 6421TIP3   OH243457   0.952   2.939   7.980 -0.6583 -0.1293  0.2464
 6421TIP3    H143458   0.906   3.021   7.997 -0.3670  0.1167 -0.1447
 6421TIP3    H243459   0.927   2.915   7.891  0.3695  0.2809 -0.1724
 6422TIP3   OH243460   2.887   5.771   7.236  0.3387  0.1890  0.0723
 6422TIP3    H143461   2.956   5.707   7.251 -0.3282 -0.4595  0.4352
 6422TIP3    H243462   2.868   5.766   7.142  0.0241 -0.4351  0.1620
 6423TIP3   OH243463   4.362   4.105   7.891 -0.2002 -0.1683  0.3569
 6423TIP3    H143464   4.365   4.012   7.868  2.0878 -0.5182  1.7829
 6423TIP3    H243465   4.352   4.106   7.986 -0.0620  1.0511  0.3711
 6424TIP3   OH243466   0.024   6.636   8.049 -0.0712 -0.1539 -0.6083
 6424TIP3    H143467  -0.045   6.603   8.106 -0.6609 -0.4835 -1.5068
 6424TIP3    H243468  -0.006   6.617   7.961  1.4818 -0.9666 -1.0064
 6425TIP3   OH243469   6.522   1.298   5.709 -0.0580  0.0613  0.0912
 6425TIP3    H143470   6.454   1.346   5.756  0.6502  0.4679  0.7204
 6425TIP3    H243471   6.554   1.360   5.643  2.2789  1.3259  2.2014
 6426TIP3   OH243472   0.376   6.258   5.768 -0.5606 -0.2154  0.0411
 6426TIP3    H143473   0.410   6.347   5.774  0.5754 -0.3232 -3.1174
 6426TIP3    H243474   0.293   6.267   5.721 -0.3564 -0.8225 -0.4560
 6427TIP3   OH243475   2.885   1.159   7.822  0.2823  0.2452  0.1863
 6427TIP3    H143476   2.796   1.127   7.835  0.3079 -0.2873 -0.8498
 6427TIP3    H243477   2.883   1.250   7.854 -0.6369  0.2601  0.1088
 6428TIP3   OH243478   4.488   5.752   5.809  0.2597 -0.0307  0.2306
 6428TIP3    H143479   4.439   5.685   5.858  0.0550  0.5347  0.8120
 6428TIP3    H243480   4.469   5.834   5.855  0.6810  0.3990 -0.3470
 6429TIP3   OH243481   5.760   4.884   7.923 -0.3820 -0.4416 -0.4691
 6429TIP3    H143482   5.744   4.969   7.964  1.6092  0.0461 -0.6177
 6429TIP3    H243483   5.680   4.834   7.941 -0.7581  0.7348  1.4607
 6430TIP3   OH243484   0.690   1.604   7.555 -0.0054  0.0025  0.2774
 6430TIP3    H143485   0.733   1.529   7.513  2.2426 -0.1753  2.5915
 6430TIP3    H243486   0.720   1.680   7.505 -0.3091 -0.4433 -0.6041
 6431TIP3   OH243487   0.925   4.637   8.340  0.0513 -0.6293 -0.8392
 6431TIP3    H143488   0.835   4.645   8.373  0.1761  0.8268 -0.7796
 6431TIP3    H243489   0.936   4.714   8.284  1.9660  0.4361  0.8568
 6432TIP3   OH243490   2.066   6.547   7.282  0.2883  0.3836 -0.5795
 6432TIP3    H143491   2.138   6.584   7.232  0.4822  0.7746 -0.0244
 6432TIP3    H243492   2.016   6.623   7.313 -0.6771  0.1054 -1.4000
 6433TIP3   OH243493   6.386   5.720   6.172 -0.4033 -0.8238  0.2287
 6433TIP3    H143494   6.398   5.810   6.202  0.0564 -0.2762 -1.4890
 6433TIP3    H243495   6.474   5.689   6.150 -0.7356 -1.0931 -0.7803
 6434TIP3   OH243496   1.672   1.664   8.247 -0.0925  0.3338  0.2525
 6434TIP3    H143497   1.670   1.704   8.334 -0.2830  0.9653 -0.0373
 6434TIP3    H243498   1.715   1.580   8.261 -0.8718  0.0528  1.1163
 6435TIP3   OH243499   0.763   4.931   9.403 -0.2938 -0.8608 -0.2865
 6435TIP3    H143500   0.815   5.007   9.379  0.9292 -1.0047  1.6869
 6435TIP3    H243501   0.681   4.967   9.437  0.2189 -0.4216  0.5014
 6436TIP3   OH243502   4.138   1.261   6.064  0.4414  0.0796 -0.0024
 6436TIP3    H143503   4.213   1.290   6.116  2.6405 -1.2733 -2.1831
 6436TIP3    H243504   4.175   1.200   6.001 -2.2919  0.4117 -2.1228
 6437TIP3   OH243505   5.603   2.659   7.720 -0.2107  0.0396 -0.9796
 6437TIP3    H143506   5.581   2.748   7.695  0.9317  0.3138 -1.0490
 6437TIP3    H243507   5.649   2.668   7.804 -0.8365 -0.5645 -0.5511
 6438TIP3   OH243508   2.674   6.354   7.106  0.5700  0.1425 -0.4025
 6438TIP3    H143509   2.762   6.365   7.068  0.2124  0.3607 -1.1850
 6438TIP3    H243510   2.638   6.278   7.059  0.4298 -0.1048  0.0985
 6439TIP3   OH243511   6.400   1.823   6.841  0.0712 -0.4040  0.6391
 6439TIP3    H143512   6.423   1.916   6.832 -1.1702 -0.2165 -1.1431
 6439TIP3    H243513   6.442   1.796   6.923  2.1191  1.1992  0.2093
 6440TIP3   OH243514   1.823   4.981   8.634  0.3026  0.0149 -0.5303
 6440TIP3    H143515   1.823   5.019   8.546 -1.1070 -0.5017 -0.7738
 6440TIP3    H243516   1.731   4.972   8.657  0.3959 -4.2557 -0.9449
 6441TIP3   OH243517   5.140   0.052   5.370  0.4266  0.0639 -0.8321
 6441TIP3    H143518   5.109   0.092   5.289  2.1489  0.1291 -1.5251
 6441TIP3    H243519   5.137   0.121   5.435 -2.1681 -0.3175 -0.4618
 6442TIP3   OH243520   1.174   0.104   6.870  0.1928  0.0482  0.5662
 6442TIP3    H143521   1.086   0.074   6.848  0.6375  0.6573 -2.4638
 6442TIP3    H243522   1.169   0.126   6.963 -2.6277 -0.6539  0.6679
 6443TIP3   OH243523   2.756   2.431   8.662 -0.6114  0.5356  0.1308
 6443TIP3    H143524   2.805   2.425   8.744 -1.4561  1.8182  0.7643
 6443TIP3    H243525   2.710   2.515   8.667 -1.4412  0.2073 -1.2374
 6444TIP3   OH243526   3.560   0.057   8.295 -0.5039  0.5476 -0.3933
 6444TIP3    H143527   3.621   0.130   8.308  0.4384 -0.2549 -0.2277
 6444TIP3    H243528   3.600   0.004   8.227 -0.7710 -0.2505  0.0550
 6445TIP3   OH243529   4.528   1.166   7.661 -0.3026 -0.1348 -0.6270
 6445TIP3    H143530   4.527   1.104   7.588 -1.3683 -1.9318  0.8145
 6445TIP3    H243531   4.436   1.191   7.673 -0.2116 -0.2128  0.3475
 6446TIP3   OH243532   1.342   1.621   7.555  0.8325  0.5045  0.2501
 6446TIP3    H143533   1.386   1.697   7.592 -0.8086  1.9453 -0.6061
 6446TIP3    H243534   1.292   1.584   7.629  0.7214  0.9696  0.4112
 6447TIP3   OH243535   2.207   2.641   7.408  0.2565 -0.1743 -0.2187
 6447TIP3    H143536   2.123   2.617   7.369 -0.2490 -0.3613  0.9355
 6447TIP3    H243537   2.269   2.575   7.376  0.1921  0.5234 -1.8504
 6448TIP3   OH243538   0.561   2.967   8.196  0.5946 -0.0157  0.1801
 6448TIP3    H143539   0.527   2.884   8.231  0.7823  0.0556  0.5376
 6448TIP3    H243540   0.484   3.012   8.162  0.2633  0.2860  1.2745
 6449TIP3   OH243541   0.498   4.541   8.800  0.4650 -0.0891 -0.1186
 6449TIP3    H143542   0.433   4.589   8.749  1.0088  1.3883  0.5020
 6449TIP3    H243543   0.447   4.489   8.861 -0.1535  0.3841 -0.2152
 6450TIP3   OH243544   5.092   3.049   6.647  0.0763  0.8364  0.1867
 6450TIP3    H143545   5.168   2.994   6.667  1.1093  2.2429  0.2484
 6450TIP3    H243546   5.035   2.993   6.595  0.5677 -0.6570  1.1923
 6451TIP3   OH243547   4.807   4.578   7.161  0.2056 -0.0038  0.2229
 6451TIP3    H143548   4.857   4.524   7.221  1.8763  1.2611  0.0406
 6451TIP3    H243549   4.853   4.570   7.077 -1.1193 -0.4435 -0.4875
 6452TIP3   OH243550   1.111   0.578   8.342 -0.3975 -0.4638  0.4065
 6452TIP3    H143551   1.121   0.570   8.437  2.4720 -2.9523  0.0295
 6452TIP3    H243552   1.177   0.520   8.305 -0.6636  1.2054 -3.1899
 6453TIP3   OH243553   1.219   2.819   7.286  0.6869  0.3353 -0.1448
 6453TIP3    H143554   1.221   2.793   7.193 -3.2499 -1.3081 -0.0107
 6453TIP3    H243555   1.178   2.905   7.285 -0.1986 -0.0639  0.0208
 6454TIP3   OH243556   3.796   1.920   8.492  0.1086  0.4919  0.1815
 6454TIP3    H143557   3.705   1.946   8.477  0.3873  0.7287 -1.2455
 6454TIP3    H243558   3.847   1.998   8.472  0.7981 -0.4047 -1.7512
 6455TIP3   OH243559   1.209   2.169   7.914 -0.1602  0.6040  0.2161
 6455TIP3    H143560   1.172   2.162   7.826  1.0463 -0.3591 -0.2567
 6455TIP3    H243561   1.138   2.144   7.973  0.2405 -3.7110 -0.7711
 6456TIP3   OH243562   0.839   5.392   6.480 -0.1472  0.8117 -1.1356
 6456TIP3    H143563   0.848   5.300   6.504  1.1571  0.7476 -1.7758
 6456TIP3    H243564   0.771   5.393   6.413 -1.0159  0.4926 -0.2894
 6457TIP3   OH243565   4.653   4.187   8.328  0.2182 -0.0016  0.0337
 6457TIP3    H143566   4.709   4.170   8.252 -1.4313 -0.0339 -1.2175
 6457TIP3    H243567   4.646   4.102   8.371 -0.6833 -0.5440 -1.1106
 6458TIP3   OH243568   6.610   6.156   6.702  0.0440  0.5759 -0.0475
 6458TIP3    H143569   6.551   6.195   6.767 -1.3729  0.7089 -1.3446
 6458TIP3    H243570   6.682   6.218   6.694 -1.3183  2.1555 -0.8140
 6459TIP3   OH243571   4.683   5.945   6.048  0.1803 -0.4283  0.4269
 6459TIP3    H143572   4.601   5.990   6.066 -0.4559 -1.1748 -0.5136
 6459TIP3    H243573   4.716   5.986   5.968  0.8937  0.0722  0.9611
 6460TIP3   OH243574   2.177   0.743   6.166 -0.3323 -0.1360  0.1713
 6460TIP3    H143575   2.165   0.838   6.172  0.4501 -0.0120 -0.0599
 6460TIP3    H243576   2.159   0.710   6.254  0.9863  0.4284  0.6772
 6461TIP3   OH243577   4.432   2.590   5.593 -0.0097  0.0244  0.2714
 6461TIP3    H143578   4.489   2.573   5.518  0.4305  0.9296  0.3897
 6461TIP3    H243579   4.480   2.557   5.668  1.9138  3.5604  0.8301
 6462TIP3   OH243580   3.114   5.607   7.210 -1.1725  0.5035 -0.1085
 6462TIP3    H143581   3.141   5.620   7.120  2.0961 -0.1036  0.6371
 6462TIP3    H243582   3.094   5.513   7.216 -0.5097  0.3604 -0.0367
 6463TIP3   OH243583   4.971   2.906   6.442  0.5340  0.3782  0.0318
 6463TIP3    H143584   4.901   2.850   6.407  0.2943  0.9211 -0.3666
 6463TIP3    H243585   5.032   2.844   6.483  1.4158 -0.4584 -2.3432
 6464TIP3   OH243586   5.354   1.685   6.635  0.7097  0.5401  0.2448
 6464TIP3    H143587   5.398   1.750   6.580  0.0038  0.0193 -0.9879
 6464TIP3    H243588   5.307   1.629   6.572 -0.5747  0.2482  1.4238
 6465TIP3   OH243589   0.762   5.497   5.827  0.3430 -0.4678  0.1548
 6465TIP3    H143590   0.775   5.584   5.865  0.2880  0.3199 -1.5498
 6465TIP3    H243591   0.765   5.511   5.733 -2.9695 -1.7712 -0.2916
 6466TIP3   OH243592   0.594   0.646   6.364 -0.6433  0.4700  0.4688
 6466TIP3    H143593   0.650   0.652   6.443 -1.3668 -0.1576  1.0391
 6466TIP3    H243594   0.655   0.658   6.291  0.1197  0.5689  1.1058
 6467TIP3   OH243595   5.819   0.148   8.013  0.1459  0.3498 -0.2375
 6467TIP3    H143596   5.724   0.140   8.023  0.3540 -1.2719  0.7553
 6467TIP3    H243597   5.849   0.183   8.097  0.5898 -0.8250  0.1075
 6468TIP3   OH243598   6.229   4.278   5.846 -0.1716  0.0777 -0.0955
 6468TIP3    H143599   6.263   4.340   5.782 -1.6509  0.9755 -0.0664
 6468TIP3    H243600   6.173   4.330   5.903 -1.1328 -1.2055  0.1901
 6469TIP3   OH243601   5.578   4.529   7.041  0.7564  0.1803  0.6455
 6469TIP3    H143602   5.643   4.473   6.998  0.7242 -1.2133  2.2857
 6469TIP3    H243603   5.614   4.543   7.129 -0.2971  0.9162  0.9763
 6470TIP3   OH243604   1.049   4.400   8.909  0.2741  0.0176 -0.5803
 6470TIP3    H143605   1.084   4.366   8.991  0.8485 -1.1427 -1.2853
 6470TIP3    H243606   1.106   4.364   8.841 -1.4540 -0.8376 -1.6562
 6471TIP3   OH243607   3.649   4.568   5.454  0.2767 -0.5878  0.4353
 6471TIP3    H143608   3.724   4.550   5.511  0.6068 -0.6847 -0.0247
 6471TIP3    H243609   3.590   4.495   5.468  1.2273 -1.6368 -0.7820
 6472TIP3   OH243610   2.923   3.927   7.311  0.0687 -0.8162 -0.2016
 6472TIP3    H143611   2.932   3.836   7.338  0.2798 -0.9485 -0.7197
 6472TIP3    H243612   2.864   3.925   7.236  0.0737 -0.5275 -0.2170
 6473TIP3   OH243613   1.383   6.168   6.331  0.1712  0.1912  0.0562
 6473TIP3    H143614   1.328   6.190   6.256  0.3668  2.1917  0.4243
 6473TIP3    H243615   1.371   6.074   6.344 -1.2777  0.1450 -1.3429
 6474TIP3   OH243616   1.879   1.427   8.285 -0.0959 -0.1649  0.3683
 6474TIP3    H143617   1.807   1.369   8.309  0.6757 -1.7121 -0.8322
 6474TIP3    H243618   1.958   1.373   8.296  0.7242  0.9149 -0.0243
 6475TIP3   OH243619   3.708   1.322   6.312 -0.4210  0.3058 -0.6088
 6475TIP3    H143620   3.729   1.365   6.228 -1.9590  2.3951 -0.0027
 6475TIP3    H243621   3.792   1.321   6.359  0.2213  0.1405 -1.7053
 6476TIP3   OH243622   4.023   1.224   8.051 -0.0077 -0.3696  0.1930
 6476TIP3    H143623   4.067   1.154   8.099 -0.1854 -1.9666 -1.8237
 6476TIP3    H243624   4.079   1.301   8.062  1.3587 -1.4045  0.6896
 6477TIP3   OH243625   4.410   2.649   8.863 -0.2101  0.3239  0.1861
 6477TIP3    H143626   4.386   2.557   8.863  2.4654 -0.4955 -1.4019
 6477TIP3    H243627   4.486   2.654   8.922 -0.6046  1.6233  0.6300
 6478TIP3   OH243628   6.470   0.378   7.690  0.7418  0.4133  0.5046
 6478TIP3    H143629   6.444   0.340   7.606 -0.0104  0.9429  0.4888
 6478TIP3    H243630   6.407   0.449   7.705  1.6027  1.1018  0.9452
 6479TIP3   OH243631   5.942   5.520   6.896  0.2637  0.2003 -0.5146
 6479TIP3    H143632   6.006   5.533   6.966  1.4129 -0.4199 -1.4319
 6479TIP3    H243633   5.859   5.551   6.934  1.4672  3.3136 -0.0887
 6480TIP3   OH243634   3.355   4.496   7.885 -0.6601  0.2242 -0.0518
 6480TIP3    H143635   3.327   4.588   7.883  1.6255  1.0419  1.2869
 6480TIP3    H243636   3.365   4.472   7.792  0.4392  1.9588 -0.4402
 6481TIP3   OH243637   6.427   3.577   5.672  0.0973 -0.4193  0.1201
 6481TIP3    H143638   6.458   3.595   5.760  1.3058 -0.4737 -0.2771
 6481TIP3    H243639   6.444   3.657   5.623  0.4026 -0.7391 -0.3109
 6482TIP3   OH243640   3.221   3.685   6.730 -0.6353  0.1361  0.1217
 6482TIP3    H143641   3.263   3.619   6.675  1.2468  2.1982 -1.1071
 6482TIP3    H243642   3.255   3.669   6.818 -0.6567 -0.8472 -0.0380
 6483TIP3   OH243643   6.414   5.870   6.844 -0.3885 -0.1275 -0.2361
 6483TIP3    H143644   6.386   5.896   6.932 -0.9922 -0.5705 -0.2893
 6483TIP3    H243645   6.508   5.858   6.852 -0.3638  0.3352  0.2224
 6484TIP3   OH243646   1.932   5.324   7.763  0.0275 -0.2239  0.3678
 6484TIP3    H143647   1.947   5.265   7.837  0.0150 -1.0714 -0.2925
 6484TIP3    H243648   1.839   5.346   7.770 -0.0625 -0.6003  0.3883
 6485TIP3   OH243649   4.192   3.119   7.265 -0.5034 -0.8497 -0.1580
 6485TIP3    H143650   4.220   3.103   7.175 -2.4749  0.7675 -1.1447
 6485TIP3    H243651   4.100   3.094   7.266 -1.0367  0.9546  0.8309
 6486TIP3   OH243652   3.439   4.687   7.290  0.3472  0.6037  0.4693
 6486TIP3    H143653   3.505   4.624   7.261 -1.4401 -1.4660  0.6172
 6486TIP3    H243654   3.398   4.718   7.209 -0.9261 -0.9633  0.4581
 6487TIP3   OH243655   0.893   5.284   8.410  0.2235  0.0706  0.4347
 6487TIP3    H143656   0.951   5.358   8.393 -1.2605  1.2058  0.2128
 6487TIP3    H243657   0.817   5.298   8.354 -0.4450 -1.2077  0.9736
 6488TIP3   OH243658   4.433   0.026   7.884 -0.0491  0.5292 -0.4988
 6488TIP3    H143659   4.463   0.069   7.804 -0.0429  2.1669  0.3438
 6488TIP3    H243660   4.424  -0.066   7.859  0.3878  0.9114 -2.2503
 6489TIP3   OH243661   5.807   3.217   6.414  0.5876  0.1689  0.1952
 6489TIP3    H143662   5.827   3.188   6.503  0.7232 -1.9635 -0.4889
 6489TIP3    H243663   5.874   3.178   6.359 -0.0716  0.6209 -0.9766
 6490TIP3   OH243664   2.288   6.464   7.712  0.0103  0.2411 -0.0544
 6490TIP3    H143665   2.220   6.532   7.712 -0.7530 -0.4342 -2.3080
 6490TIP3    H243666   2.304   6.445   7.619  2.1928 -0.7345  0.4381
 6491TIP3   OH243667   6.200   2.280   8.613  0.4531 -0.0741 -0.4566
 6491TIP3    H143668   6.258   2.208   8.589 -1.4366 -1.2893 -1.6200
 6491TIP3    H243669   6.223   2.350   8.552  0.8871 -0.4177 -0.6942
 6492TIP3   OH243670   5.899   2.403   7.672  0.1634 -0.0088  0.2635
 6492TIP3    H143671   5.961   2.467   7.636 -2.0499  0.7398 -2.6159
 6492TIP3    H243672   5.910   2.326   7.617  0.6790 -1.0551  1.7706
 6493TIP3   OH243673   4.895   0.665   7.878  0.0235 -0.4411 -0.5379
 6493TIP3    H143674   4.946   0.744   7.899  0.2927 -0.3897 -1.3325
 6493TIP3    H243675   4.948   0.593   7.912 -0.6479 -0.2386  0.9826
 6494TIP3   OH243676   2.154   1.517   7.767  0.2183  0.3657 -0.2280
 6494TIP3    H143677   2.154   1.521   7.863 -1.9074  1.1033 -0.2095
 6494TIP3    H243678   2.083   1.457   7.746 -0.2515  1.2743 -1.3386
 6495TIP3   OH243679   0.465   1.729   8.104 -0.1139  0.6598 -0.4743
 6495TIP3    H143680   0.456   1.635   8.089 -1.0528  0.6278  0.2103
 6495TIP3    H243681   0.504   1.736   8.191 -1.0889  0.8911 -0.0324
 6496TIP3   OH243682   3.006   3.874   6.902  0.1706  0.3647  0.3002
 6496TIP3    H143683   3.044   3.811   6.963 -1.0159  0.3564  1.0784
 6496TIP3    H243684   3.031   3.960   6.937  0.5423  0.3423  0.0867
 6497TIP3   OH243685   2.706   2.409   8.159  0.9357 -0.1343  0.0993
 6497TIP3    H143686   2.777   2.431   8.099  1.9873 -2.8846  0.1747
 6497TIP3    H243687   2.739   2.433   8.245  0.6305  1.0841 -0.1058
 6498TIP3   OH243688   0.394   5.871   8.411 -0.3198 -0.6027 -0.8920
 6498TIP3    H143689   0.309   5.842   8.444 -0.2374 -0.4008 -0.4936
 6498TIP3    H243690   0.443   5.791   8.396 -0.8071 -0.7483 -1.7399
 6499TIP3   OH243691   1.681   1.180   6.143  0.7639  0.6070 -0.0164
 6499TIP3    H143692   1.692   1.207   6.234  1.8055  2.1554 -0.5641
 6499TIP3    H243693   1.645   1.257   6.099  1.3828  0.2848 -1.1283
 6500TIP3   OH243694   2.433   4.582   8.252  0.0144 -0.2074  0.4602
 6500TIP3    H143695   2.399   4.553   8.337  0.9948 -2.4792  0.1520
 6500TIP3    H243696   2.359   4.571   8.192 -0.6997  1.4634  0.9869
 6501TIP3   OH243697   0.998   6.550   5.724  0.0676  0.1164 -0.3025
 6501TIP3    H143698   0.978   6.607   5.798  2.7093  0.6151  0.1170
 6501TIP3    H243699   1.069   6.494   5.755 -0.7854 -1.7228 -1.5331
 6502TIP3   OH243700   0.543   4.935   8.564  0.4841 -0.4389 -0.4366
 6502TIP3    H143701   0.621   4.902   8.518  1.7745 -0.0923  1.3654
 6502TIP3    H243702   0.570   4.938   8.656 -1.3404  0.7078  0.1055
 6503TIP3   OH243703   1.069   3.288   8.395  0.4118 -0.0211 -0.2403
 6503TIP3    H143704   1.126   3.361   8.371  1.6615 -1.1248 -0.7419
 6503TIP3    H243705   1.091   3.269   8.486 -0.8915  1.0629  0.3408
 6504TIP3   OH243706   1.493   5.243   6.659  0.6653  0.4024  0.0654
 6504TIP3    H143707   1.431   5.252   6.586  1.4781 -0.1257 -0.7077
 6504TIP3    H243708   1.525   5.153   6.652  2.9289  1.2046 -0.7066
 6505TIP3   OH243709   1.416   1.571   9.629 -0.2818 -0.0653  0.2739
 6505TIP3    H143710   1.452   1.528   9.552  0.4323  0.8283  0.0861
 6505TIP3    H243711   1.478   1.552   9.700  0.1610  0.8119  0.1376
 6506TIP3   OH243712   4.298   2.986   6.438 -0.5960  0.3952 -0.1608
 6506TIP3    H143713   4.208   2.973   6.470 -0.9838  0.1831 -1.3043
 6506TIP3    H243714   4.291   3.061   6.379 -0.3180 -0.5315 -1.4026
 6507TIP3   OH243715   6.679   0.354   7.447  0.6320 -0.5681 -0.1229
 6507TIP3    H143716   6.670   0.339   7.541  2.3433 -1.6069 -0.0886
 6507TIP3    H243717   6.749   0.419   7.440 -0.7556  0.9404 -0.6479
 6508TIP3   OH243718   5.017   3.194   6.875  0.2752  0.4482 -0.0385
 6508TIP3    H143719   5.075   3.193   6.951 -1.2842 -1.7779  1.2287
 6508TIP3    H243720   5.055   3.132   6.814 -0.8781 -1.3259  0.9654
 6509TIP3   OH243721   1.874   3.804   7.691  0.3176  0.0233  0.9310
 6509TIP3    H143722   1.933   3.742   7.649  0.8781  0.2315  1.4016
 6509TIP3    H243723   1.863   3.770   7.780 -0.3203 -0.0440  0.8319
 6510TIP3   OH243724   1.543   3.319   6.803 -0.3016  0.0730  0.9937
 6510TIP3    H143725   1.625   3.282   6.835  0.8613  0.8993 -0.9136
 6510TIP3    H243726   1.515   3.259   6.734 -0.4400  0.6841  0.5164
 6511TIP3   OH243727   6.047   6.282   7.626 -0.2666 -0.2447 -0.3703
 6511TIP3    H143728   5.986   6.209   7.617 -0.1348 -0.6644  1.7213
 6511TIP3    H243729   6.133   6.240   7.633 -0.3034 -0.0649  2.1562
 6512TIP3   OH243730   3.152   0.465   6.595 -0.1291  0.1038  0.2087
 6512TIP3    H143731   3.192   0.408   6.661  1.0516 -0.5517 -1.0332
 6512TIP3    H243732   3.224   0.486   6.536 -0.7116  2.3292  0.2357
 6513TIP3   OH243733   1.061   5.466   8.903  0.1720 -0.0103  0.5342
 6513TIP3    H143734   1.064   5.455   8.998  0.0201  0.3445  0.5795
 6513TIP3    H243735   1.105   5.549   8.886 -0.3205  0.2179  0.3445
 6514TIP3   OH243736   2.587   1.266   6.943  0.0974 -0.1680 -0.5845
 6514TIP3    H143737   2.675   1.232   6.961  0.7150  1.1111 -1.0186
 6514TIP3    H243738   2.590   1.290   6.850  0.1584  2.2198 -0.0330
 6515TIP3   OH243739   5.221   5.777   6.757  0.1221 -0.0575  0.2723
 6515TIP3    H143740   5.250   5.689   6.733  0.4745  0.4183 -1.1211
 6515TIP3    H243741   5.163   5.803   6.685 -0.7827  0.4679  1.1712
 6516TIP3   OH243742   0.040   0.517   5.643  0.7615  0.1650 -0.0395
 6516TIP3    H143743  -0.031   0.456   5.624  0.2558  1.2563 -1.9377
 6516TIP3    H243744   0.038   0.580   5.571  2.2544  1.5235  1.0144
 6517TIP3   OH243745   0.021   6.494   5.765  0.7449 -1.0370 -0.1905
 6517TIP3    H143746   0.066   6.561   5.714 -0.2856  0.4854  0.8082
 6517TIP3    H243747  -0.070   6.497   5.734  0.5438 -1.4640  0.3353
 6518TIP3   OH243748   0.595   5.502   7.690  0.0692 -0.0326  0.5317
 6518TIP3    H143749   0.528   5.515   7.624  0.4312  0.8297  0.3173
 6518TIP3    H243750   0.610   5.590   7.727  1.8713  0.0199 -0.2227
 6519TIP3   OH243751   5.207   4.723   8.239  0.6744  0.3298  0.2006
 6519TIP3    H143752   5.217   4.772   8.321  2.3515  3.0812 -1.5029
 6519TIP3    H243753   5.196   4.632   8.267 -0.7724  1.3657  3.5028
 6520TIP3   OH243754   1.560   6.180   7.047 -0.4787  0.0241  0.0397
 6520TIP3    H143755   1.653   6.165   7.066  0.1478 -0.7326 -3.0515
 6520TIP3    H243756   1.543   6.125   6.971 -2.5051  2.9084 -1.7526
 6521TIP3   OH243757   5.126   0.276   8.329 -0.4367  0.3637 -0.3280
 6521TIP3    H143758   5.034   0.275   8.355 -0.6161 -1.7450 -0.8644
 6521TIP3    H243759   5.169   0.221   8.395 -0.3566 -2.2956 -2.4195
 6522TIP3   OH243760   0.177   0.283   7.684 -0.1017  0.9549  1.0165
 6522TIP3    H143761   0.228   0.331   7.619 -0.3884  2.9174  2.1456
 6522TIP3    H243762   0.176   0.193   7.652  3.4708  0.9122  0.6012
 6523TIP3   OH243763   1.647   3.371   7.291  0.0399 -0.4479  0.1629
 6523TIP3    H143764   1.610   3.327   7.215 -1.4469  1.7464 -0.4707
 6523TIP3    H243765   1.742   3.373   7.274 -0.2296 -0.3034 -1.4543
 6524TIP3   OH243766   4.811   2.459   7.166  0.3407 -0.1322 -0.6337
 6524TIP3    H143767   4.831   2.368   7.184  0.7341  0.2962  1.3505
 6524TIP3    H243768   4.837   2.506   7.245  0.3781  1.7465 -1.6855
 6525TIP3   OH243769   0.546   3.581   7.584  0.6430  0.2523  0.0134
 6525TIP3    H143770   0.506   3.632   7.512  0.7952  0.5558  0.1423
 6525TIP3    H243771   0.506   3.617   7.663  0.9083  0.3134  0.1198
 6526TIP3   OH243772   5.937   2.249   6.328  0.1568  0.6450  0.0945
 6526TIP3    H143773   5.889   2.214   6.403 -0.7765 -1.7323 -1.4803
 6526TIP3    H243774   5.893   2.332   6.307 -1.0302  0.2178  0.8025
 6527TIP3   OH243775   0.393   2.036   7.468 -0.0617 -0.4378 -0.5277
 6527TIP3    H143776   0.455   2.058   7.398  0.1476  0.7848  0.0219
 6527TIP3    H243777   0.307   2.044   7.427  0.0770 -0.1849 -0.7733
 6528TIP3   OH243778   3.223   1.429   7.266  0.0742  0.2344  0.5855
 6528TIP3    H143779   3.150   1.366   7.268  0.9058 -0.8402 -0.6460
 6528TIP3    H243780   3.188   1.504   7.218  0.4642 -1.3180 -2.3484
 6529TIP3   OH243781   4.490   5.676   6.974 -0.0177 -0.0103 -0.0980
 6529TIP3    H143782   4.518   5.762   6.942  2.4605 -0.4038  0.7663
 6529TIP3    H243783   4.517   5.675   7.066  0.0239 -1.6948 -0.1069
 6530TIP3   OH243784   3.524   4.296   7.972  0.7945  0.0250 -0.2868
 6530TIP3    H143785   3.455   4.353   7.939 -0.3082 -0.3281  1.3185
 6530TIP3    H243786   3.576   4.351   8.030 -0.2684 -0.5277  1.2617
 6531TIP3   OH243787   1.482   3.704   6.528  0.5667 -0.0312  0.1039
 6531TIP3    H143788   1.559   3.760   6.540  0.5352  0.1511 -0.5018
 6531TIP3    H243789   1.504   3.651   6.451  0.0701  0.0537 -0.1009
 6532TIP3   OH243790   1.592   6.264   6.175  0.3749  0.2524  0.4408
 6532TIP3    H143791   1.514   6.257   6.229 -0.9950  1.1570 -1.3196
 6532TIP3    H243792   1.581   6.345   6.127  1.1233 -0.8570 -1.7487
 6533TIP3   OH243793   6.699   5.536   9.302  0.0545 -0.4067 -0.1535
 6533TIP3    H143794   6.610   5.563   9.281  0.0043 -2.0504 -2.4524
 6533TIP3    H243795   6.691   5.491   9.386 -1.4009 -0.9632 -0.5614
 6534TIP3   OH243796   2.122   4.349   6.752  0.2053  0.4048 -0.4067
 6534TIP3    H143797   2.143   4.411   6.682 -0.3437  0.8552 -0.1728
 6534TIP3    H243798   2.028   4.335   6.744  0.0673  0.7965  0.5277
 6535TIP3   OH243799   1.701   1.960   6.542 -0.2793 -0.7980 -0.2361
 6535TIP3    H143800   1.656   2.043   6.529 -1.2145 -1.6441 -3.1173
 6535TIP3    H243801   1.787   1.972   6.503 -0.1626 -0.9604 -0.0322
 6536TIP3   OH243802   3.904   6.699   7.335  0.0995  0.0439  0.1137
 6536TIP3    H143803   3.943   6.781   7.304 -0.0901 -0.0997 -0.5105
 6536TIP3    H243804   3.968   6.632   7.313 -0.0341 -0.0579  0.0350
 6537TIP3   OH243805   4.302   1.184   7.836  0.5209  0.5088  0.2378
 6537TIP3    H143806   4.294   1.228   7.921  4.0036 -0.2973  1.1516
 6537TIP3    H243807   4.212   1.168   7.809 -0.8466  3.8992  2.0682
 6538TIP3   OH243808   2.448   2.262   5.515  0.4609  0.3858  0.7408
 6538TIP3    H143809   2.452   2.172   5.481 -0.2245  0.0249  1.5686
 6538TIP3    H243810   2.520   2.307   5.471  0.3405 -0.3626 -0.2753
 6539TIP3   OH243811   1.251   1.111   7.068 -0.2128 -0.0869 -0.0739
 6539TIP3    H143812   1.293   1.195   7.085 -2.2611  0.7129  1.4948
 6539TIP3    H243813   1.273   1.057   7.143 -0.6796 -0.1934 -0.0094
 6540TIP3   OH243814   0.388   0.841   6.240 -0.2948 -0.2168  0.7560
 6540TIP3    H143815   0.443   0.800   6.308  0.2452  2.0989  1.8284
 6540TIP3    H243816   0.316   0.881   6.289 -0.1657  1.0764 -0.0884
 6541TIP3   OH243817   0.595   0.986   6.567 -0.5169 -0.1367  0.3039
 6541TIP3    H143818   0.662   0.954   6.507 -2.8497 -0.1906 -2.4897
 6541TIP3    H243819   0.617   1.078   6.581 -0.3051  0.0632 -1.2599
 6542TIP3   OH243820   3.135   0.109   7.081 -0.3015 -0.1943  0.2703
 6542TIP3    H143821   3.076   0.059   7.024 -0.2111  0.5158 -0.4656
 6542TIP3    H243822   3.162   0.047   7.148  0.2047 -1.2794 -0.9090
 6543TIP3   OH243823   2.663   3.376   7.908 -0.2088 -0.3801 -0.1636
 6543TIP3    H143824   2.623   3.295   7.875 -2.0424 -0.2143  1.4479
 6543TIP3    H243825   2.746   3.347   7.946 -0.3566 -1.3385 -0.5261
 6544TIP3   OH243826   0.019   4.223   5.563  0.5690  0.0279  0.2123
 6544TIP3    H143827  -0.063   4.192   5.526  1.8706 -1.7039 -1.4102
 6544TIP3    H243828   0.077   4.235   5.487  1.9630  0.7634  1.3287
 6545TIP3   OH243829   3.164   6.321   6.252  0.0882 -0.1353 -0.1847
 6545TIP3    H143830   3.186   6.246   6.196  0.5177 -1.3021  1.4563
 6545TIP3    H243831   3.232   6.386   6.234  1.3772 -1.2761  0.3762
 6546TIP3   OH243832   4.264   2.847   8.517  0.1338  0.1345 -0.3890
 6546TIP3    H143833   4.312   2.900   8.454  0.2827  2.4741  1.5145
 6546TIP3    H243834   4.177   2.888   8.522 -0.2845 -0.7595  0.0671
 6547TIP3   OH243835   0.873   4.969   9.100 -0.4046 -0.4286  0.3430
 6547TIP3    H143836   0.916   4.996   9.181 -1.9301 -0.6289  1.2615
 6547TIP3    H243837   0.871   5.048   9.046  0.3757 -0.2188  0.6039
 6548TIP3   OH243838   5.957   4.099   7.376 -0.5709  0.1177 -0.3687
 6548TIP3    H143839   6.027   4.096   7.441 -0.9318 -2.1922 -0.0031
 6548TIP3    H243840   5.996   4.145   7.302  1.1317 -0.4840  0.0927
 6549TIP3   OH243841   4.020   0.122   7.866 -0.7807 -0.1483 -0.3174
 6549TIP3    H143842   4.000   0.106   7.958 -1.0860 -1.1727 -0.5461
 6549TIP3    H243843   4.106   0.163   7.866 -0.1072 -1.5230  0.3495
 6550TIP3   OH243844   0.621   5.681   8.328 -0.0906 -0.4012 -0.4946
 6550TIP3    H143845   0.709   5.684   8.291 -0.5667  0.3536 -1.6278
 6550TIP3    H243846   0.633   5.653   8.419  1.2350 -1.0878 -0.8640
 6551TIP3   OH243847   3.244   3.841   7.948  0.2861  0.2244 -0.2946
 6551TIP3    H143848   3.237   3.816   7.856  2.1028 -1.2359 -0.1075
 6551TIP3    H243849   3.271   3.933   7.947  1.5426 -0.1259 -1.2955
 6552TIP3   OH243850   0.697   6.440   6.093  0.1121 -0.1888 -0.6292
 6552TIP3    H143851   0.680   6.531   6.117  2.2990 -0.1547  1.0401
 6552TIP3    H243852   0.613   6.397   6.103 -0.2111  0.9209  2.2534
 6553TIP3   OH243853   1.514   3.122   8.063  0.5271  0.1251 -0.6896
 6553TIP3    H143854   1.492   3.155   8.150 -0.2117  0.4153 -0.9689
 6553TIP3    H243855   1.580   3.055   8.078  0.6688  0.4190  0.0608
 6554TIP3   OH243856   6.399   4.634   7.874  0.6608 -0.0120 -0.2239
 6554TIP3    H143857   6.308   4.622   7.902  0.4607  0.0340 -0.8483
 6554TIP3    H243858   6.409   4.575   7.800  0.5364  1.4721 -1.4581
 6555TIP3   OH243859   2.763   1.379   6.458 -0.1996  0.1866  0.4886
 6555TIP3    H143860   2.682   1.430   6.453  0.9319  1.9797 -1.6657
 6555TIP3    H243861   2.744   1.298   6.412 -0.3486  1.3952 -1.7534
 6556TIP3   OH243862   0.664   2.274   5.813 -0.9709 -0.0106  0.2744
 6556TIP3    H143863   0.696   2.247   5.727  1.3912  0.7763  0.8216
 6556TIP3    H243864   0.729   2.239   5.874 -0.6769  2.3568  1.4154
 6557TIP3   OH243865   6.599   5.012   6.850 -0.1634  0.6788  0.2373
 6557TIP3    H143866   6.504   5.011   6.860 -0.0717  0.4483  1.3116
 6557TIP3    H243867   6.614   4.997   6.757 -1.1663  0.0060  0.1654
 6558TIP3   OH243868   1.474   0.348   6.581  0.0604 -0.2844  0.2646
 6558TIP3    H143869   1.435   0.331   6.667 -0.0609 -1.5423 -0.0187
 6558TIP3    H243870   1.453   0.439   6.562  0.2894  0.0858  1.6722
 6559TIP3   OH243871   1.516   3.733   8.825  0.5019 -0.9085  0.9194
 6559TIP3    H143872   1.578   3.778   8.883  0.0112 -0.4625  1.1015
 6559TIP3    H243873   1.487   3.802   8.764  1.3135 -1.4498 -0.1298
 6560TIP3   OH243874   6.119   6.313   7.089  0.2799 -0.0272 -0.1618
 6560TIP3    H143875   6.069   6.303   7.170  0.7731 -0.7095  0.0673
 6560TIP3    H243876   6.121   6.408   7.074  0.3969  0.1296  0.7627
 6561TIP3   OH243877   2.362   6.563   7.982  0.7394  0.0983 -0.1293
 6561TIP3    H143878   2.420   6.639   7.974  0.4855  0.2108 -0.9720
 6561TIP3    H243879   2.353   6.530   7.893 -1.4980  0.8305 -0.2270
 6562TIP3   OH243880   0.577   5.983   6.229  0.3367  0.3048  0.0309
 6562TIP3    H143881   0.566   5.929   6.151  2.0754  2.0719 -1.5493
 6562TIP3    H243882   0.530   5.936   6.298  0.7634 -2.5828 -1.4953
 6563TIP3   OH243883   5.223   4.820   6.046  0.2064 -0.1898 -0.1860
 6563TIP3    H143884   5.277   4.801   6.123 -1.4740  0.7873  1.3156
 6563TIP3    H243885   5.134   4.830   6.080 -0.7252 -0.3771 -2.3706
 6564TIP3   OH243886   1.310   3.746   8.098 -0.4277 -0.3777 -0.6162
 6564TIP3    H143887   1.311   3.684   8.025  0.1515 -0.5017 -0.5083
 6564TIP3    H243888   1.288   3.830   8.057 -0.2819 -0.4805 -0.9106
 6565TIP3   OH243889   3.240   4.480   7.385  0.7643 -0.0247 -0.0010
 6565TIP3    H143890   3.301   4.553   7.372  0.9647  0.1169  1.5883
 6565TIP3    H243891   3.165   4.519   7.430  0.3421 -0.5913 -0.1936
 6566TIP3   OH243892   2.655   0.269   7.342  0.5329 -0.1785  0.3252
 6566TIP3    H143893   2.728   0.265   7.280 -0.7671 -2.2722 -1.2017
 6566TIP3    H243894   2.645   0.179   7.374 -2.7943 -0.5577 -1.3515
 6567TIP3   OH243895   4.226   1.443   8.037  0.9506 -0.0320 -0.0366
 6567TIP3    H143896   4.321   1.429   8.044  1.1122  0.9765 -0.0351
 6567TIP3    H243897   4.216   1.538   8.043 -0.0126 -0.0902 -0.5963
 6568TIP3   OH243898   4.407   2.596   8.534 -0.1131  0.0829 -0.5482
 6568TIP3    H143899   4.383   2.559   8.618  0.0487  0.9940 -0.0832
 6568TIP3    H243900   4.367   2.683   8.534  1.3699  0.7980 -0.6389
 6569TIP3   OH243901   4.289   6.360   8.597 -0.1717 -0.6076  0.4835
 6569TIP3    H143902   4.338   6.441   8.613 -3.4093  1.3772  1.1633
 6569TIP3    H243903   4.356   6.291   8.596  2.5280  1.8099  1.7567
 6570TIP3   OH243904   4.060   5.671   5.352 -0.3737 -0.3422 -0.3726
 6570TIP3    H143905   4.084   5.618   5.428  1.6664  2.1463  0.8786
 6570TIP3    H243906   4.143   5.686   5.306 -1.3337 -0.5191 -2.2741
 6571TIP3   OH243907   1.641   2.284   7.288  0.0910  0.2471  0.4656
 6571TIP3    H143908   1.564   2.341   7.283 -0.2578 -0.1839  0.8695
 6571TIP3    H243909   1.705   2.325   7.230  0.1194  1.4711  1.3290
 6572TIP3   OH243910   0.466   4.367   6.415 -0.1443  1.1653 -0.1097
 6572TIP3    H143911   0.511   4.311   6.478 -1.0952 -0.6756 -0.9728
 6572TIP3    H243912   0.397   4.410   6.465  1.4985  2.7877  0.8809
 6573TIP3   OH243913   0.523   6.058   7.677 -0.1021 -0.7265 -0.3470
 6573TIP3    H143914   0.586   6.119   7.715 -0.4166 -0.0265 -0.9338
 6573TIP3    H243915   0.449   6.113   7.650 -1.8416 -1.7019  2.0224
 6574TIP3   OH243916   5.596   4.405   6.626  0.1267 -0.2338 -0.0222
 6574TIP3    H143917   5.685   4.422   6.595  0.1617 -0.6137 -0.1313
 6574TIP3    H243918   5.608   4.374   6.716 -0.0138  1.5027  0.6284
 6575TIP3   OH243919   4.622   2.777   6.892 -0.0132 -0.9241  0.4100
 6575TIP3    H143920   4.681   2.848   6.866 -0.5299 -0.5027  0.3585
 6575TIP3    H243921   4.677   2.699   6.893  0.5447 -0.5392  0.3714
 6576TIP3   OH243922   0.120   3.742   5.538  0.7252 -0.3481  0.7804
 6576TIP3    H143923   0.209   3.722   5.510  1.5332  2.0641  1.4125
 6576TIP3    H243924   0.119   3.720   5.632  0.5470 -0.6804  0.7015
 6577TIP3   OH243925   6.145   1.174   5.813  0.0407  0.0161 -0.1141
 6577TIP3    H143926   6.123   1.092   5.857 -0.4253  0.4427  0.4713
 6577TIP3    H243927   6.219   1.209   5.862  1.1009 -0.6890 -1.1742
 6578TIP3   OH243928   2.826   6.310   6.047 -0.3665  0.1351 -0.2292
 6578TIP3    H143929   2.792   6.282   6.132  0.8309  2.4518  1.1187
 6578TIP3    H243930   2.921   6.313   6.058 -0.2517  1.5425 -1.2438
 6579TIP3   OH243931   6.058   2.837   8.358  1.1239  0.2903  0.1588
 6579TIP3    H143932   6.075   2.911   8.416  0.0146  1.4960 -0.9864
 6579TIP3    H243933   6.097   2.863   8.274 -0.6832  0.3161 -0.7050
 6580TIP3   OH243934   2.147   2.066   5.844  0.0767 -0.7850  0.1175
 6580TIP3    H143935   2.236   2.101   5.853  0.2542 -1.2636  0.2230
 6580TIP3    H243936   2.115   2.103   5.761  1.4022 -2.8075 -1.3989
 6581TIP3   OH243937   5.717   5.318   6.064 -0.1051  0.1007  0.1500
 6581TIP3    H143938   5.686   5.250   6.004 -0.7383  0.9185 -0.4705
 6581TIP3    H243939   5.759   5.383   6.007 -2.2134  1.7396  0.3249
 6582TIP3   OH243940   4.124   3.407   6.244 -0.2386  0.0294  0.0169
 6582TIP3    H143941   4.071   3.487   6.251  0.8538  0.7061  0.9004
 6582TIP3    H243942   4.163   3.412   6.157  0.8741  1.1693  0.5507
 6583TIP3   OH243943   4.090   0.653   7.313  0.1729 -0.0471  0.2233
 6583TIP3    H143944   4.111   0.561   7.331  0.4314  0.0459  0.3984
 6583TIP3    H243945   4.174   0.698   7.319  0.8457 -0.4036 -3.9688
 6584TIP3   OH243946   0.967   3.407   7.069 -0.0465 -0.2389  0.1636
 6584TIP3    H143947   0.998   3.477   7.011  0.9274 -1.3113 -0.6465
 6584TIP3    H243948   0.958   3.450   7.154 -0.4066  1.0970 -0.5145
 6585TIP3   OH243949   0.465   3.721   6.053  0.2638  0.1985  0.5814
 6585TIP3    H143950   0.437   3.759   6.136  0.0230  0.2510  0.4762
 6585TIP3    H243951   0.394   3.740   5.992 -0.1035 -0.8529  0.6489
 6586TIP3   OH243952   3.508   0.532   7.623 -0.3855  0.4749 -0.4134
 6586TIP3    H143953   3.598   0.556   7.647 -0.4625 -0.2479  0.6731
 6586TIP3    H243954   3.516   0.496   7.535  0.7159 -1.2998  0.3581
 6587TIP3   OH243955   4.056   2.004   6.194 -0.0335  0.1386 -0.4596
 6587TIP3    H143956   3.994   1.978   6.262 -0.4944  0.2808 -0.8195
 6587TIP3    H243957   4.132   2.036   6.243 -0.2905  0.0816 -0.0096
 6588TIP3   OH243958   0.618   4.046   6.209 -0.2463 -0.2944 -0.0233
 6588TIP3    H143959   0.660   4.122   6.248  0.1768 -0.4740 -0.1256
 6588TIP3    H243960   0.669   4.027   6.131 -0.5748 -0.4555 -0.1998
 6589TIP3   OH243961   3.922   4.419   7.799  0.4252  0.2939  0.4900
 6589TIP3    H143962   3.979   4.478   7.750 -0.4407 -1.3480 -2.8066
 6589TIP3    H243963   3.845   4.409   7.743 -0.0788 -2.8036  1.5552
 6590TIP3   OH243964   4.305   1.044   5.839  0.0629  0.4192  0.5854
 6590TIP3    H143965   4.288   0.972   5.778  0.7061  2.2901 -1.9913
 6590TIP3    H243966   4.387   1.021   5.882 -0.0833 -0.6786  0.2881
 6591TIP3   OH243967   1.172   6.659   5.539 -0.0349  0.1265  0.6399
 6591TIP3    H143968   1.154   6.751   5.520  0.2450 -0.1240 -0.9539
 6591TIP3    H243969   1.096   6.629   5.588 -0.5237  0.9771  0.4095
 6592TIP3   OH243970   0.242   1.776   6.404 -0.2894  0.4677 -0.1595
 6592TIP3    H143971   0.321   1.743   6.360 -0.7636 -2.6045  1.0592
 6592TIP3    H243972   0.170   1.748   6.348 -0.7884 -1.9643  1.5602
 6593TIP3   OH243973   2.439   1.291   6.203 -0.3200 -0.1092  0.2544
 6593TIP3    H143974   2.527   1.254   6.192  0.2744  1.1612  0.6273
 6593TIP3    H243975   2.417   1.326   6.117 -1.3047 -2.1459 -0.3796
 6594TIP3   OH243976   1.422   4.660   8.723  0.4555 -0.6070  0.0733
 6594TIP3    H143977   1.391   4.659   8.632 -0.0434 -1.7352  0.2316
 6594TIP3    H243978   1.513   4.633   8.717  0.6149 -0.0401 -0.1428
 6595TIP3   OH243979   4.665   1.398   7.839  0.3259  0.5795 -0.0792
 6595TIP3    H143980   4.630   1.471   7.788  0.1687  0.5382 -0.0304
 6595TIP3    H243981   4.628   1.320   7.798  1.3491  0.4575 -0.8076
 6596TIP3   OH243982   4.825   5.014   8.900 -0.3806 -0.0822  0.5694
 6596TIP3    H143983   4.892   5.004   8.968 -0.9409  0.0753  1.1518
 6596TIP3    H243984   4.785   4.928   8.893  0.6831 -0.5014 -0.6401
 6597TIP3   OH243985   5.284   2.048   8.493  0.4970 -0.2267 -0.2466
 6597TIP3    H143986   5.295   1.991   8.416 -0.6178  2.8735 -2.9500
 6597TIP3    H243987   5.216   2.006   8.545 -1.2485 -0.8493 -2.8116
 6598TIP3   OH243988   5.512   3.245   7.564 -0.0217 -0.1043 -0.5709
 6598TIP3    H143989   5.516   3.242   7.468  0.7427  4.3055 -0.8556
 6598TIP3    H243990   5.424   3.279   7.583 -0.1314 -0.8525  0.3414
 6599TIP3   OH243991   1.090   0.208   6.586 -0.1331  0.3135  0.1136
 6599TIP3    H143992   1.172   0.251   6.561 -0.0593 -0.2110 -0.5952
 6599TIP3    H243993   1.042   0.199   6.504  0.1256 -1.4980  0.1132
 6600TIP3   OH243994   5.072   4.118   6.918 -0.6247  0.3740 -0.0392
 6600TIP3    H143995   5.135   4.185   6.946 -1.1242  1.2029 -0.8249
 6600TIP3    H243996   5.098   4.039   6.965  1.1799  0.6175 -0.5382
 6601TIP3   OH243997   0.698   1.818   8.736  0.1247  0.6544 -0.1658
 6601TIP3    H143998   0.693   1.861   8.821 -1.3484 -0.3658  0.3039
 6601TIP3    H243999   0.697   1.725   8.755 -0.5064  0.4062 -1.3023
 6602TIP3   OH244000   6.526   4.866   7.726  0.7705 -0.2133 -0.2939
 6602TIP3    H144001   6.568   4.780   7.731  1.5467  0.1963  0.7097
 6602TIP3    H244002   6.531   4.890   7.634  0.2289 -1.3844 -0.6489
 6603TIP3   OH244003   5.999   0.183   5.524  0.3960 -0.1036  0.0299
 6603TIP3    H144004   5.980   0.220   5.610  0.4162  0.1340 -0.0651
 6603TIP3    H244005   5.927   0.124   5.506 -1.1131  1.9050 -0.9727
 6604TIP3   OH244006   1.466   0.810   6.899 -0.6288 -0.3832 -0.4291
 6604TIP3    H144007   1.410   0.870   6.851 -1.8199 -1.3884 -0.3352
 6604TIP3    H244008   1.545   0.802   6.845 -0.2603  1.5626 -0.2349
 6605TIP3   OH244009   0.009   2.298   5.638  0.0706 -0.7244  0.5800
 6605TIP3    H144010   0.037   2.388   5.653  2.2933 -1.0763 -0.9331
 6605TIP3    H244011   0.055   2.247   5.704 -0.3083 -0.8969  0.7182
 6606TIP3   OH244012   1.388   6.564   8.381 -0.1995  0.6400 -0.2890
 6606TIP3    H144013   1.371   6.595   8.470 -1.3834  0.5913 -0.4877
 6606TIP3    H244014   1.316   6.599   8.329  1.5892  2.4538 -1.6753
 6607TIP3   OH244015   3.773   5.193   6.302 -0.4119 -0.1263  0.0931
 6607TIP3    H144016   3.747   5.156   6.387 -0.8117 -0.0027  0.0295
 6607TIP3    H244017   3.813   5.120   6.255 -0.5478 -0.2972  0.2390
 6608TIP3   OH244018   3.747   1.303   8.474 -0.0139  0.6670 -0.5981
 6608TIP3    H144019   3.668   1.358   8.483  0.4494  1.1313  0.8168
 6608TIP3    H244020   3.775   1.286   8.564  1.4530  0.4285 -1.0804
 6609TIP3   OH244021   4.058   0.734   7.035 -0.2675 -0.1202 -0.0221
 6609TIP3    H144022   3.966   0.753   7.017  0.0474  0.4585 -1.1027
 6609TIP3    H244023   4.058   0.695   7.122 -1.6769 -1.3360 -0.5299
 6610TIP3   OH244024   5.538   6.154  14.660 -0.1785 -0.3651  0.6192
 6610TIP3    H144025   5.494   6.139  14.576  0.3576  0.1884  0.2336
 6610TIP3    H244026   5.627   6.179  14.636 -0.3236  0.8613  1.3245
 6611TIP3   OH244027   4.963   1.563   8.239  0.4748  0.2217 -0.0752
 6611TIP3    H144028   4.902   1.543   8.310 -0.1060 -2.1733 -1.1476
 6611TIP3    H244029   4.917   1.627   8.185 -0.1141  0.1705  0.3589
 6612TIP3   OH244030   6.034   6.526   8.386 -0.6820  0.4782 -0.4146
 6612TIP3    H144031   6.030   6.560   8.475 -0.7139 -0.2858 -0.1137
 6612TIP3    H244032   6.122   6.548   8.355 -0.8614  1.2413 -0.4053
 6613TIP3   OH244033   6.516   2.207   5.920  0.1489 -0.1426 -0.1653
 6613TIP3    H144034   6.468   2.175   5.844 -1.3391 -2.0005  1.4435
 6613TIP3    H244035   6.490   2.298   5.929  0.3864  0.1317 -1.8402
 6614TIP3   OH244036   4.125   5.215   5.674  0.0324  0.9453 -0.7320
 6614TIP3    H144037   4.204   5.268   5.681  0.2186  0.4684  1.3509
 6614TIP3    H244038   4.073   5.240   5.751  1.1389 -3.4058  1.7700
 6615TIP3   OH244039   1.959   4.569   7.477  0.4775  0.1994  0.2418
 6615TIP3    H144040   1.976   4.483   7.516 -0.7488  0.8999  2.5135
 6615TIP3    H244041   2.021   4.628   7.520 -1.1197  1.0583  1.4466
 6616TIP3   OH244042   1.323   3.938   8.977  0.0443 -0.2388  0.2530
 6616TIP3    H144043   1.386   3.946   9.049 -3.4691 -0.1188  3.6519
 6616TIP3    H244044   1.324   3.844   8.956 -0.3986 -0.7062  2.1083
 6617TIP3   OH244045   3.309   4.775   8.019  0.2300  0.6746  0.6466
 6617TIP3    H144046   3.326   4.848   8.078  0.1383  2.5190 -1.4455
 6617TIP3    H244047   3.371   4.788   7.947 -0.0870 -1.1045 -0.0040
 6618TIP3   OH244048   3.374   3.668   7.000  0.1887  0.2455  0.2564
 6618TIP3    H144049   3.446   3.692   6.942  0.3980  0.3744  0.5643
 6618TIP3    H244050   3.401   3.585   7.038  0.6109  0.7412  1.0779
 6619TIP3   OH244051   0.586   5.976   6.901  0.0789  0.3862 -0.0731
 6619TIP3    H144052   0.584   6.070   6.880  1.6827  0.5838  0.4560
 6619TIP3    H244053   0.605   5.974   6.995  0.0694 -0.4735 -0.0873
 6620TIP3   OH244054   5.932   3.569   7.399  0.0005  0.0382 -0.0483
 6620TIP3    H144055   5.934   3.660   7.373  1.4121  0.1368  0.3394
 6620TIP3    H244056   5.905   3.571   7.491 -0.2492  0.0318 -0.1194
 6621TIP3   OH244057   6.255   6.101   6.079  0.7860 -0.3079  0.1991
 6621TIP3    H144058   6.305   6.150   6.014  0.3702 -1.5949 -1.1283
 6621TIP3    H244059   6.164   6.105   6.047  0.4857 -0.5205  0.9893
 6622TIP3   OH244060   6.617   4.935   7.971 -0.7013  0.3039  0.1546
 6622TIP3    H144061   6.696   4.881   7.972 -0.8313  0.0869  1.4366
 6622TIP3    H244062   6.575   4.916   7.888 -0.7107 -1.5201  0.5483
 6623TIP3   OH244063   5.756   5.362   7.833  0.0651 -0.6013 -0.5002
 6623TIP3    H144064   5.680   5.344   7.889  0.2057 -1.3652 -0.5574
 6623TIP3    H244065   5.810   5.284   7.839  2.4967  1.0851  2.0876
 6624TIP3   OH244066   0.384   5.946   7.258  0.0802  0.0150  0.1738
 6624TIP3    H144067   0.464   5.900   7.285 -0.0115  1.0897  2.5288
 6624TIP3    H244068   0.351   5.895   7.184  2.1649 -1.2789  0.0371
 6625TIP3   OH244069   1.578   4.783   8.270 -0.2559 -0.0573 -0.3915
 6625TIP3    H144070   1.659   4.834   8.273 -0.3061  0.0617  3.1525
 6625TIP3    H244071   1.527   4.823   8.200  0.7264  3.2096  0.5736
 6626TIP3   OH244072   5.192   4.290   8.552  0.1919  0.1796 -0.6521
 6626TIP3    H144073   5.188   4.316   8.644 -1.3024  2.1066 -1.1781
 6626TIP3    H244074   5.267   4.232   8.546  2.2820  2.4804  1.1912
 6627TIP3   OH244075   3.122   2.849   7.508  0.4528 -0.2821  0.3321
 6627TIP3    H144076   3.070   2.898   7.572  0.7391  0.8171 -0.2602
 6627TIP3    H244077   3.188   2.911   7.478 -0.2793 -0.4405 -1.7643
 6628TIP3   OH244078   5.923   2.977   7.907 -0.0770 -0.2161 -0.2281
 6628TIP3    H144079   5.835   2.970   7.870 -0.8758 -1.2358  1.6850
 6628TIP3    H244080   5.930   3.069   7.934 -0.1124  0.1282 -1.3266
 6629TIP3   OH244081   4.001   3.548   9.054  0.5463  0.2152 -0.3107
 6629TIP3    H144082   4.000   3.587   9.142 -0.9828  1.5720 -0.8623
 6629TIP3    H244083   4.017   3.623   8.995 -0.4589 -0.3219 -1.2996
 6630TIP3   OH244084   3.707   3.702   7.080 -0.5071 -0.3355  0.1948
 6630TIP3    H144085   3.780   3.652   7.043 -0.1193 -0.1226  0.6541
 6630TIP3    H244086   3.631   3.644   7.071  0.1875 -1.6171  1.9848
 6631TIP3   OH244087   4.314   2.611   5.900  0.1788 -0.3712 -0.3457
 6631TIP3    H144088   4.349   2.688   5.856  0.9798 -1.1191 -1.0634
 6631TIP3    H244089   4.353   2.537   5.853  0.3866 -1.2057  1.0842
 6632TIP3   OH244090   2.598   2.918   8.276 -0.0662  0.8708  0.0713
 6632TIP3    H144091   2.643   2.918   8.361 -0.7159 -0.7450  0.4331
 6632TIP3    H244092   2.558   2.832   8.269 -1.4748  1.5742 -1.1297
 6633TIP3   OH244093   6.265   6.326   7.440 -0.0267 -0.3547 -0.1282
 6633TIP3    H144094   6.324   6.309   7.367  1.0678  1.9877  0.1198
 6633TIP3    H244095   6.179   6.295   7.410  0.7720 -1.2634 -1.5786
 6634TIP3   OH244096   1.162   5.456   7.639 -0.0566  1.0048  0.2137
 6634TIP3    H144097   1.177   5.402   7.561  1.0938  0.2698  0.9088
 6634TIP3    H244098   1.150   5.393   7.709  0.4881  1.6566  0.9035
 6635TIP3   OH244099   0.616   2.420   8.936  0.0567 -0.2986  0.1164
 6635TIP3    H144100   0.622   2.494   8.996  0.2559 -1.1230  1.1508
 6635TIP3    H244101   0.552   2.447   8.871  1.7207  1.6533 -0.8247
 6636TIP3   OH244102   6.457   1.770   7.939 -0.2301 -0.5358 -0.2807
 6636TIP3    H144103   6.534   1.723   7.908  0.8098  0.6301  0.4365
 6636TIP3    H244104   6.438   1.732   8.025 -1.0625 -1.4597 -0.8433
 6637TIP3   OH244105   4.609   6.630   5.908 -0.1173 -0.3080  0.0526
 6637TIP3    H144106   4.684   6.689   5.913 -1.1868  1.2079 -0.6285
 6637TIP3    H244107   4.608   6.585   5.992  1.3038 -0.0597  0.2320
 6638TIP3   OH244108   4.523   2.839   7.353  0.1304 -0.0659 -0.9275
 6638TIP3    H144109   4.445   2.874   7.396 -0.9020 -3.3908  0.1724
 6638TIP3    H244110   4.489   2.777   7.288  1.7860 -2.0567 -0.0020
 6639TIP3   OH244111   1.039   4.623   7.903 -0.5090 -0.1832 -0.0813
 6639TIP3    H144112   0.952   4.589   7.923 -1.2983  0.6080 -1.9164
 6639TIP3    H244113   1.056   4.686   7.973 -1.9310  0.4767 -0.2781
 6640TIP3   OH244114   5.846   5.893   6.083 -0.5898  0.4119  0.1244
 6640TIP3    H144115   5.788   5.835   6.033  2.1226 -0.5555 -2.1348
 6640TIP3    H244116   5.915   5.836   6.116  0.0281  1.7730  1.2880
 6641TIP3   OH244117   3.325   4.135   8.146 -0.1023 -0.4667  0.2043
 6641TIP3    H144118   3.335   4.162   8.237  0.8785 -1.4845  0.4263
 6641TIP3    H244119   3.362   4.206   8.095  0.3760 -0.3902  0.6562
 6642TIP3   OH244120   3.805   0.964   6.833 -0.6487 -0.6079  0.1086
 6642TIP3    H144121   3.804   1.058   6.847 -2.2387 -0.7346  0.9893
 6642TIP3    H244122   3.875   0.950   6.768 -0.0002  1.0887  0.4084
 6643TIP3   OH244123   1.279   2.231   7.423  0.4528  0.4961 -0.2325
 6643TIP3    H144124   1.311   2.296   7.486 -0.0151 -0.2218  0.7764
 6643TIP3    H244125   1.260   2.154   7.476  0.0997 -0.1519 -1.2738
 6644TIP3   OH244126   0.817   0.419   7.535  0.1307  0.6223 -0.1904
 6644TIP3    H144127   0.797   0.327   7.552  1.7626  0.3000  0.1744
 6644TIP3    H244128   0.904   0.418   7.496  1.0569  2.1300  1.7033
 6645TIP3   OH244129   4.551   0.492   7.415 -0.2833  0.0319  0.4817
 6645TIP3    H144130   4.510   0.506   7.330  1.9177  1.8795 -0.3750
 6645TIP3    H244131   4.507   0.555   7.473 -0.7509 -0.1687  0.3485
 6646TIP3   OH244132   1.289   2.977   5.742  0.0854  0.3855 -0.2656
 6646TIP3    H144133   1.301   3.036   5.667 -0.6106  0.3653 -0.4071
 6646TIP3    H244134   1.226   2.912   5.711  0.5477 -0.2071  0.0229
 6647TIP3   OH244135   1.623   4.680   6.381  0.3494  0.8802 -0.5140
 6647TIP3    H144136   1.682   4.625   6.433 -2.8197 -2.5226 -0.1264
 6647TIP3    H244137   1.632   4.648   6.291 -1.3825 -0.2808 -0.3206
 6648TIP3   OH244138   2.177   1.925   7.510 -0.7391 -0.4796 -0.2897
 6648TIP3    H144139   2.099   1.917   7.565  0.6113 -1.8995  1.5343
 6648TIP3    H244140   2.250   1.920   7.571  0.8420  2.0245 -1.8001
 6649TIP3   OH244141   5.252   5.171   6.846 -0.3205  0.1492 -0.2809
 6649TIP3    H144142   5.338   5.206   6.872 -1.2930  1.0026  2.1166
 6649TIP3    H244143   5.266   5.077   6.838  0.8004  0.2470  0.2946
 6650TIP3   OH244144   1.519   4.288   7.182  0.5284  0.2178 -0.4300
 6650TIP3    H144145   1.472   4.363   7.145  2.1817  0.9477 -1.1539
 6650TIP3    H244146   1.532   4.229   7.108 -0.0018 -0.3875 -0.0456
 6651TIP3   OH244147   0.164   5.615   6.283 -0.4219 -0.4640  0.4287
 6651TIP3    H144148   0.199   5.564   6.211  0.4465 -1.5872  1.6049
 6651TIP3    H244149   0.149   5.551   6.353  0.3969  0.8199  1.8376
 6652TIP3   OH244150   4.586   5.774   5.222 -0.3874 -0.0773  0.0485
 6652TIP3    H144151   4.585   5.746   5.314  1.8873  0.5836  0.3349
 6652TIP3    H244152   4.615   5.865   5.225  0.3979 -0.2579 -1.3730
 6653TIP3   OH244153   1.927   0.688   8.749  0.1415  0.0631 -0.1068
 6653TIP3    H144154   1.949   0.604   8.790 -1.0074 -0.0242  0.3753
 6653TIP3    H244155   1.889   0.740   8.820 -1.3327  0.1247 -0.9051
 6654TIP3   OH244156   5.658   2.411   6.913 -0.6404  0.4595  0.0866
 6654TIP3    H144157   5.737   2.357   6.917 -0.0657  1.1999 -0.9506
 6654TIP3    H244158   5.656   2.457   6.997 -0.5136 -0.2849  0.5096
 6655TIP3   OH244159   4.813   0.026   8.039 -0.1870  0.3066 -0.0161
 6655TIP3    H144160   4.743  -0.037   8.024  1.0437 -1.3139  0.7025
 6655TIP3    H244161   4.882  -0.025   8.082  1.3802  1.8711 -0.5720
 6656TIP3   OH244162   5.434   5.324   7.334  0.3023  0.1471 -0.6365
 6656TIP3    H144163   5.390   5.351   7.415 -0.3270  1.0083 -1.2501
 6656TIP3    H244164   5.506   5.267   7.364 -1.6295 -1.9325  0.3523
 6657TIP3   OH244165   6.465   5.131   6.383 -0.1804  0.4399 -0.0434
 6657TIP3    H144166   6.407   5.106   6.455  1.1447  0.9955  1.2842
 6657TIP3    H244167   6.547   5.086   6.402  1.2625  3.1253  0.6634
 6658TIP3   OH244168   6.545   3.361   6.135 -0.1201 -0.3513  0.2226
 6658TIP3    H144169   6.542   3.457   6.135  0.8483 -0.3041 -0.0345
 6658TIP3    H244170   6.603   3.339   6.208 -1.8120 -0.8375  1.4630
 6659TIP3   OH244171   3.241   2.944   7.760  0.0622  0.0622 -0.7011
 6659TIP3    H144172   3.246   2.930   7.855  0.1830  0.4981 -0.6386
 6659TIP3    H244173   3.147   2.950   7.742  0.0501  1.8433 -0.3017
 6660TIP3   OH244174   2.486   6.692   5.646 -0.0649 -0.0134  0.6037
 6660TIP3    H144175   2.409   6.659   5.692 -0.9536 -1.0140 -1.4194
 6660TIP3    H244176   2.482   6.787   5.656 -2.7105  0.1650 -0.9610
 6661TIP3   OH244177   0.655   3.588   6.782  0.1994  0.5702 -0.5860
 6661TIP3    H144178   0.660   3.683   6.777  0.5547  0.7455  1.9677
 6661TIP3    H244179   0.664   3.558   6.691 -0.6559  2.9718 -1.5261
 6662TIP3   OH244180   2.621   1.998   6.071 -0.6434  0.1484 -0.2852
 6662TIP3    H144181   2.615   1.933   6.141 -0.7826  2.2576  1.7898
 6662TIP3    H244182   2.708   2.037   6.082  0.6201 -1.5362 -3.3252
 6663TIP3   OH244183   5.728   3.081   6.135  0.1522  0.3312 -0.2095
 6663TIP3    H144184   5.650   3.110   6.182  0.2614 -0.4978  0.5250
 6663TIP3    H244185   5.801   3.105   6.192  0.2076 -1.9422  0.8175
 6664TIP3   OH244186   6.097   5.404   8.772  0.2377 -0.2996 -0.0074
 6664TIP3    H144187   6.097   5.496   8.748 -0.0493 -0.1601  0.5092
 6664TIP3    H244188   6.007   5.374   8.756  0.5671 -0.7448 -1.0999
 6665TIP3   OH244189   3.922   5.716   6.160  0.0138  0.5937 -0.2547
 6665TIP3    H144190   3.943   5.708   6.253  0.5655  0.0654 -0.4223
 6665TIP3    H244191   4.007   5.723   6.117 -0.1498 -0.9984 -0.8958
 6666TIP3   OH244192   6.583   2.769   6.737  0.1915 -0.1544  0.1772
 6666TIP3    H144193   6.554   2.837   6.678 -1.5647 -0.2961  0.8369
 6666TIP3    H244194   6.533   2.691   6.711 -0.1893 -0.3602  1.4619
 6667TIP3   OH244195   3.541   6.209   7.093 -0.1697  0.0632 -0.1092
 6667TIP3    H144196   3.614   6.270   7.080 -0.1518  0.2125  0.6252
 6667TIP3    H244197   3.555   6.140   7.029 -0.5191  1.1215 -1.3799
 6668TIP3   OH244198   0.322   6.615   6.886  0.0207  0.1340  0.2557
 6668TIP3    H144199   0.256   6.631   6.954  1.2476  0.1870  1.4979
 6668TIP3    H244200   0.308   6.525   6.859 -3.4294  1.3530 -2.8360
 6669TIP3   OH244201   0.691   5.083   8.159 -0.1271 -0.9742 -0.1377
 6669TIP3    H144202   0.598   5.066   8.145 -0.4894  0.2349  0.6504
 6669TIP3    H244203   0.730   5.080   8.071 -1.4579  1.4823 -0.9038
 6670TIP3   OH244204   6.396   1.937   7.694 -0.0262  0.5625  0.5392
 6670TIP3    H144205   6.429   1.894   7.615 -1.8018 -0.0023  0.0626
 6670TIP3    H244206   6.407   1.872   7.764  1.7645  1.1453  0.8780
 6671TIP3   OH244207   2.828   0.658   8.752 -0.0221 -0.2235  0.2223
 6671TIP3    H144208   2.856   0.585   8.806 -1.7337  0.1562  1.7167
 6671TIP3    H244209   2.840   0.627   8.662  5.0115 -0.0604  0.5869
 6672TIP3   OH244210   5.806   0.810   6.298 -0.5621  0.4483 -0.6437
 6672TIP3    H144211   5.890   0.854   6.284 -0.5327  0.5200 -0.2446
 6672TIP3    H244212   5.752   0.840   6.225 -0.2019  0.2957 -0.9826
 6673TIP3   OH244213   6.095   0.408   8.409 -0.0391 -0.4363 -0.8105
 6673TIP3    H144214   6.070   0.316   8.422  0.9412 -0.5934  0.1084
 6673TIP3    H244215   6.045   0.456   8.475  0.0790 -0.4263 -0.7269
 6674TIP3   OH244216   2.873   3.126   7.365  0.0633 -0.1182  0.4150
 6674TIP3    H144217   2.947   3.091   7.415 -0.3537 -1.0553  0.4029
 6674TIP3    H244218   2.898   3.116   7.273  1.1933  2.3950  0.3853
 6675TIP3   OH244219   4.938   3.909   5.507 -0.1635 -0.1680 -0.1685
 6675TIP3    H144220   4.870   3.891   5.442  1.1467 -1.2987 -1.3013
 6675TIP3    H244221   4.955   3.824   5.547 -0.4340  0.3837  1.1809
 6676TIP3   OH244222   4.239   5.453   6.718  0.0915  0.3200 -0.2406
 6676TIP3    H144223   4.306   5.384   6.720  0.6698  0.8325  2.0491
 6676TIP3    H244224   4.239   5.485   6.628  0.2377 -2.2092 -1.2299
 6677TIP3   OH244225   1.726   1.215   7.127  0.0297 -0.1662  0.1227
 6677TIP3    H144226   1.816   1.246   7.131  0.1455 -0.5870  1.1805
 6677TIP3    H244227   1.688   1.260   7.051  1.3533 -0.6220 -0.8353
 6678TIP3   OH244228   3.207   6.688   8.519  0.0257 -0.6453  0.3057
 6678TIP3    H144229   3.214   6.772   8.475 -1.5839  0.2556  1.6372
 6678TIP3    H244230   3.292   6.675   8.561  0.2981  0.3049  0.0625
 6679TIP3   OH244231   1.372   4.792   8.102  0.2449  0.5030  0.3796
 6679TIP3    H144232   1.280   4.804   8.080  0.6395 -0.0341 -1.8885
 6679TIP3    H244233   1.419   4.839   8.032  1.6893  0.5415  1.3302
 6680TIP3   OH244234   2.943   0.870   5.971 -0.1645 -0.1790  0.8627
 6680TIP3    H144235   2.889   0.791   5.966 -0.3955 -0.0910  1.9002
 6680TIP3    H244236   3.028   0.843   5.936 -1.2032  0.0332 -2.2086
 6681TIP3   OH244237   0.538   4.416   8.112  0.0847 -0.1770  0.7911
 6681TIP3    H144238   0.603   4.486   8.116 -0.1919  0.0188  3.1122
 6681TIP3    H244239   0.458   4.455   8.147 -0.1659 -1.5494  1.8256
 6682TIP3   OH244240   4.188   3.411   6.961  0.3618  0.5290 -0.6718
 6682TIP3    H144241   4.123   3.346   6.935 -1.2234  0.8972  1.9808
 6682TIP3    H244242   4.250   3.362   7.015 -0.7354  1.0819  1.1806
 6683TIP3   OH244243   1.326   4.234   6.518  0.5082 -0.5129 -0.8737
 6683TIP3    H144244   1.408   4.246   6.471  0.9605  0.5077  0.1184
 6683TIP3    H244245   1.285   4.158   6.477  0.9761  0.1849 -2.7454
 6684TIP3   OH244246   4.908   3.718   5.695  0.1457  0.2179 -0.0980
 6684TIP3    H144247   4.969   3.779   5.739 -1.0615  0.9953  0.5598
 6684TIP3    H244248   4.853   3.685   5.766  0.0398 -0.7825 -0.6342
 6685TIP3   OH244249   1.072   0.813   6.248 -0.3416  0.2972 -0.3389
 6685TIP3    H144250   1.051   0.731   6.292  1.3346 -0.5424 -1.0321
 6685TIP3    H244251   1.127   0.788   6.174 -0.9239  1.9195 -1.3882
 6686TIP3   OH244252   6.610   4.221   8.040 -0.5204  0.9557 -1.2615
 6686TIP3    H144253   6.524   4.181   8.042 -0.2117  0.2778 -1.1388
 6686TIP3    H244254   6.597   4.309   8.077 -1.1261  0.8102 -1.1246
 6687TIP3   OH244255   2.500   1.352   8.826 -0.5271  0.4068 -0.2563
 6687TIP3    H144256   2.552   1.342   8.747 -1.1032 -1.2520 -0.4665
 6687TIP3    H244257   2.562   1.336   8.898 -0.9078 -2.9912 -0.5301
 6688TIP3   OH244258   5.432   1.598   7.640  0.3716  0.5003  0.4036
 6688TIP3    H144259   5.413   1.504   7.630 -0.9124  0.7789 -0.0481
 6688TIP3    H244260   5.503   1.602   7.703 -0.6572 -0.7079  1.7023
 6689TIP3   OH244261   2.770   3.358   5.969  0.2010  0.3844 -0.6223
 6689TIP3    H144262   2.766   3.415   5.892  1.7093  0.6348 -0.5459
 6689TIP3    H244263   2.784   3.418   6.043  0.5360  0.0095 -0.3779
 6690TIP3   OH244264   3.202   6.143   6.642 -0.2241 -0.3278  0.1775
 6690TIP3    H144265   3.144   6.146   6.718 -0.4080  1.1611 -0.0082
 6690TIP3    H244266   3.146   6.160   6.567 -0.0189 -1.6590 -0.3129
 6691TIP3   OH244267   3.611   2.498   6.901 -0.0242 -0.3221  0.1600
 6691TIP3    H144268   3.545   2.564   6.926  0.1385 -0.0399 -0.1462
 6691TIP3    H244269   3.574   2.456   6.823  1.0029  1.1589 -1.1942
 6692TIP3   OH244270   4.138   0.077   5.685 -0.0083  0.0909 -0.4227
 6692TIP3    H144271   4.233   0.072   5.698  0.0219 -1.0732 -0.9832
 6692TIP3    H244272   4.115  -0.005   5.640 -1.0636  1.0258 -1.6733
 6693TIP3   OH244273   1.840   4.618   8.068 -0.0974  0.2790 -0.1008
 6693TIP3    H144274   1.872   4.700   8.108 -0.9707  0.1658  0.8756
 6693TIP3    H244275   1.748   4.614   8.093 -0.8946  0.5327 -2.7742
 6694TIP3   OH244276   4.512   1.974   7.110 -0.0005  0.2627 -0.2990
 6694TIP3    H144277   4.425   1.975   7.151  0.5184 -0.0399  0.8647
 6694TIP3    H244278   4.563   1.913   7.164  0.8671  0.2356 -1.1205
 6695TIP3   OH244279   0.850   5.866   8.854 -0.0157  0.0218 -0.1180
 6695TIP3    H144280   0.791   5.791   8.850  0.2141 -0.2605  1.1584
 6695TIP3    H244281   0.938   5.828   8.856  0.0668  0.1897  2.1011
 6696TIP3   OH244282   5.564   2.433   6.395 -0.3346  0.0987  0.3681
 6696TIP3    H144283   5.629   2.461   6.460 -0.7322  0.5024  0.5911
 6696TIP3    H244284   5.525   2.514   6.363 -1.1413 -0.1678  0.6546
 6697TIP3   OH244285   3.782   4.996   6.500 -0.1695 -0.2065  0.6391
 6697TIP3    H144286   3.714   4.971   6.562 -1.1077  1.7300  0.4597
 6697TIP3    H244287   3.846   5.045   6.553  0.4221 -0.8575  0.5501
 6698TIP3   OH244288   5.886   4.768   8.924  0.4356 -0.0746 -0.0972
 6698TIP3    H144289   5.910   4.853   8.962  1.5882 -0.1418 -0.6248
 6698TIP3    H244290   5.836   4.724   8.992  0.4493  0.7409  0.4497
 6699TIP3   OH244291   0.912   5.983   8.246 -0.5347 -0.2613  0.8717
 6699TIP3    H144292   0.914   6.014   8.336 -1.6424  1.0864  0.4714
 6699TIP3    H244293   0.825   5.945   8.235 -0.9876  0.9682 -0.0313
 6700TIP3   OH244294   1.950   4.428   7.213  0.4761 -0.1542 -0.2151
 6700TIP3    H144295   1.995   4.491   7.269  0.0573 -0.1249  0.0964
 6700TIP3    H244296   2.009   4.416   7.139  1.2838 -0.6030  0.4800
 6701TIP3   OH244297   3.145   4.435   6.011  0.2843  0.0845 -0.2642
 6701TIP3    H144298   3.084   4.505   5.991  0.6235  0.1185 -1.2073
 6701TIP3    H244299   3.231   4.469   5.985  0.4430 -0.7005 -0.7939
 6702TIP3   OH244300   1.979   0.682   8.298  0.8516 -0.2968  0.2499
 6702TIP3    H144301   1.960   0.677   8.392  1.4565 -0.0407  0.3937
 6702TIP3    H244302   1.987   0.776   8.280 -0.1020 -0.3034 -0.2367
 6703TIP3   OH244303   0.926   2.184   5.832  0.0759  0.1777 -0.2267
 6703TIP3    H144304   0.928   2.118   5.902 -0.7193  0.8230  0.4292
 6703TIP3    H244305   0.959   2.138   5.755  2.0326 -0.2629  0.7998
 6704TIP3   OH244306   1.391   2.710   7.515 -0.1827 -0.0873 -0.1296
 6704TIP3    H144307   1.432   2.796   7.527  1.0801 -0.5234 -1.1493
 6704TIP3    H244308   1.319   2.726   7.455 -0.7241  0.4560  0.6421
 6705TIP3   OH244309   2.821   5.294   6.204  0.0516 -0.3036  0.1387
 6705TIP3    H144310   2.815   5.293   6.109 -1.0654  0.7465  0.1752
 6705TIP3    H244311   2.914   5.293   6.223  0.2770 -1.4772 -0.9422
 6706TIP3   OH244312   4.328   3.159   6.989  0.5032 -0.3686 -0.6514
 6706TIP3    H144313   4.365   3.207   6.915 -0.3701  0.6639 -0.4428
 6706TIP3    H244314   4.398   3.101   7.017  1.2932  0.1572 -1.4752
 6707TIP3   OH244315   1.902   0.655   6.329 -0.1972  0.4344 -0.0145
 6707TIP3    H144316   1.996   0.649   6.347  0.5586  2.2716 -2.7108
 6707TIP3    H244317   1.860   0.610   6.402  2.7811 -0.6835  1.1373
 6708TIP3   OH244318   5.603   4.650   8.693  0.4706 -0.3159  0.5759
 6708TIP3    H144319   5.510   4.657   8.673  0.4187 -1.4753  0.3098
 6708TIP3    H244320   5.606   4.598   8.773  0.9331 -2.1845 -0.5943
 6709TIP3   OH244321   5.494   3.170   7.865 -0.0533  0.0631  0.6279
 6709TIP3    H144322   5.577   3.192   7.908  0.3717 -1.6776  0.7504
 6709TIP3    H244323   5.511   3.183   7.772 -0.1640  1.2514  0.7492
 6710TIP3   OH244324   0.924   2.054   6.095 -0.0861  0.2181  0.0011
 6710TIP3    H144325   0.834   2.084   6.097 -0.4299 -0.7708  1.3304
 6710TIP3    H244326   0.959   2.076   6.182  0.4382 -0.8110  0.0739
 6711TIP3   OH244327   1.460   1.608   8.082 -0.6378 -0.7923 -0.0540
 6711TIP3    H144328   1.530   1.633   8.142  0.7150 -2.8948 -0.6488
 6711TIP3    H244329   1.404   1.549   8.132 -0.6989 -0.8962 -0.2432
 6712TIP3   OH244330   1.953   3.748   7.963  0.7940  0.7287 -0.7817
 6712TIP3    H144331   1.996   3.829   7.936  0.6947  1.0242 -0.0932
 6712TIP3    H244332   1.902   3.774   8.040 -0.7697  0.4257 -1.6992
 6713TIP3   OH244333   2.120   4.536   7.867 -0.3812  0.1516  0.5706
 6713TIP3    H144334   2.196   4.581   7.832 -0.4136 -0.2594 -0.0422
 6713TIP3    H244335   2.051   4.603   7.868 -0.2513  0.2909  0.2883
 6714TIP3   OH244336   3.308   0.016   7.281  0.0101 -0.0169  0.1857
 6714TIP3    H144337   3.367   0.059   7.342 -0.6428  2.8047 -1.0185
 6714TIP3    H244338   3.351  -0.067   7.260  2.1380  0.6864  1.4647
 6715TIP3   OH244339   2.833   1.850   5.783  0.7494  0.1383 -0.4542
 6715TIP3    H144340   2.909   1.891   5.823  0.7725  2.0501 -2.2858
 6715TIP3    H244341   2.869   1.790   5.718  0.7185  0.0978 -0.4336
 6716TIP3   OH244342   3.132   1.545   7.953 -0.4120 -0.3225  0.0169
 6716TIP3    H144343   3.118   1.628   7.998  1.5574 -0.0188  0.1630
 6716TIP3    H244344   3.224   1.547   7.927 -0.4426 -2.2580 -0.4159
 6717TIP3   OH244345   0.420   0.631   5.657  0.2917  0.1097 -0.3184
 6717TIP3    H144346   0.495   0.634   5.598 -0.2910 -0.3805 -1.1008
 6717TIP3    H244347   0.378   0.716   5.648 -0.1322 -0.1672 -1.0835
 6718TIP3   OH244348   0.108   5.320   7.909 -0.3458 -0.4696 -0.2937
 6718TIP3    H144349   0.048   5.383   7.868  0.7861  0.7276 -0.1822
 6718TIP3    H244350   0.155   5.371   7.974 -0.6397 -1.8791  1.0787
 6719TIP3   OH244351   5.846   5.577   6.468 -0.1776  0.0634 -0.4617
 6719TIP3    H144352   5.823   5.501   6.522  1.1297 -0.5133 -0.6633
 6719TIP3    H244353   5.781   5.643   6.491  0.2628 -0.1783  1.7514
 6720TIP3   OH244354   2.402   6.651   6.545  0.3277 -0.2557  0.3348
 6720TIP3    H144355   2.348   6.715   6.592  3.7539  0.7364  3.4232
 6720TIP3    H244356   2.419   6.692   6.460 -1.9805  0.3100  0.1022
 6721TIP3   OH244357   0.876   1.028   6.927 -0.1104 -0.2282 -1.2296
 6721TIP3    H144358   0.785   1.060   6.933  0.1190  0.2526 -0.1390
 6721TIP3    H244359   0.874   0.940   6.964 -0.2775 -0.5318 -1.9503
 6722TIP3   OH244360   3.255   6.143   8.137 -0.0355 -0.2911  0.4607
 6722TIP3    H144361   3.258   6.048   8.154 -1.1963 -0.1302  1.6883
 6722TIP3    H244362   3.268   6.150   8.042  1.6502 -1.5611  0.5386
 6723TIP3   OH244363   2.638   1.100   7.911  0.1112 -0.2260  0.6577
 6723TIP3    H144364   2.659   1.051   7.991  0.1948 -1.9816 -0.3701
 6723TIP3    H244365   2.553   1.139   7.928 -0.3691 -1.4615  1.2488
 6724TIP3   OH244366   4.247   0.477   6.967  0.2832  0.2309  0.6070
 6724TIP3    H144367   4.165   0.440   6.936  0.9335 -0.3306 -0.5119
 6724TIP3    H244368   4.256   0.559   6.918  0.0035  0.6971  1.3251
 6725TIP3   OH244369   0.132   5.173   6.203 -0.1682 -0.3994 -0.1890
 6725TIP3    H144370   0.101   5.083   6.200 -0.4386 -0.3726  1.1145
 6725TIP3    H244371   0.139   5.193   6.296  2.5537  0.0080 -0.3799
 6726TIP3   OH244372   1.415   6.493   6.140  0.0209  0.1522  0.4835
 6726TIP3    H144373   1.431   6.516   6.231 -0.9174  1.8251  0.2676
 6726TIP3    H244374   1.336   6.541   6.116 -0.8965 -1.7592 -0.6650
 6727TIP3   OH244375   0.423   1.371   5.660 -0.6229 -0.3709  0.2498
 6727TIP3    H144376   0.491   1.316   5.623 -0.2636  0.4799 -0.3712
 6727TIP3    H244377   0.462   1.458   5.666 -1.7330  0.1944 -0.3789
 6728TIP3   OH244378   2.261   0.859   5.397 -0.1586 -0.0121  0.0005
 6728TIP3    H144379   2.232   0.773   5.367  0.6042 -0.0214 -0.7601
 6728TIP3    H244380   2.183   0.915   5.388 -0.6119 -0.5827  0.3519
 6729TIP3   OH244381   4.629   5.380   5.967  0.2696 -0.6518  0.2724
 6729TIP3    H144382   4.580   5.406   5.889  1.4799 -2.1683 -1.0560
 6729TIP3    H244383   4.716   5.418   5.955  0.2109 -0.1164  1.3685
 6730TIP3   OH244384   5.604   6.052   5.592  0.8004 -0.0856 -0.0249
 6730TIP3    H144385   5.560   5.978   5.549 -3.8961  1.7018  1.1204
 6730TIP3    H244386   5.582   6.128   5.539  1.3724  1.1622  1.4555
 6731TIP3   OH244387   2.455   3.133   8.207  0.1652  0.5389  0.7384
 6731TIP3    H144388   2.514   3.059   8.219 -2.3605 -1.5013  1.7684
 6731TIP3    H244389   2.453   3.176   8.293 -0.9997 -0.4107  1.2215
 6732TIP3   OH244390   4.094   6.571   7.855 -0.0429  0.1990  0.2795
 6732TIP3    H144391   4.071   6.662   7.876 -0.7775 -0.0787  0.7504
 6732TIP3    H244392   4.020   6.539   7.804  0.0847 -0.2095  0.3481
 6733TIP3   OH244393   5.441   4.289   7.464  0.0091 -0.6636 -0.4111
 6733TIP3    H144394   5.425   4.327   7.378  0.3962 -1.5377 -0.8775
 6733TIP3    H244395   5.381   4.335   7.522 -1.8506 -1.5599 -1.5301
 6734TIP3   OH244396   1.242   6.253   6.795  0.0162 -0.1407 -0.1423
 6734TIP3    H144397   1.289   6.259   6.711  0.9197  1.8149  0.4211
 6734TIP3    H244398   1.308   6.222   6.857 -0.1475  0.1207  0.1671
 6735TIP3   OH244399   1.832   2.877   7.530 -0.2321  0.5930 -0.2924
 6735TIP3    H144400   1.774   2.814   7.488  1.5888 -0.5925 -1.1633
 6735TIP3    H244401   1.773   2.943   7.567 -2.0912 -0.3608 -1.3978
 6736TIP3   OH244402   5.451   1.820   6.925 -0.1451  0.3113  0.3638
 6736TIP3    H144403   5.522   1.856   6.872  0.1208 -1.0263 -0.2295
 6736TIP3    H244404   5.472   1.727   6.933 -2.3104 -0.3064 -0.5828
 6737TIP3   OH244405   2.495   3.616   7.624 -0.2799  0.0268  0.2170
 6737TIP3    H144406   2.503   3.611   7.528 -0.7295 -1.0647  0.2257
 6737TIP3    H244407   2.443   3.539   7.648 -0.5781  0.5466  1.2979
 6738TIP3   OH244408   5.603   3.600   7.736 -0.1436 -0.4638 -0.1810
 6738TIP3    H144409   5.561   3.587   7.821  2.9619 -0.7390  1.4530
 6738TIP3    H244410   5.538   3.647   7.684 -2.4915 -1.0607  2.0186
 6739TIP3   OH244411   3.570   3.635   6.802 -0.2664  0.4238  0.0721
 6739TIP3    H144412   3.524   3.664   6.723 -1.1651 -0.0547  0.3988
 6739TIP3    H244413   3.575   3.539   6.794  1.2592  0.5062 -0.2506
 6740TIP3   OH244414   6.080   4.591   5.785  0.2062 -0.5964  0.0884
 6740TIP3    H144415   6.058   4.575   5.693  1.4320  0.4028 -0.3952
 6740TIP3    H244416   6.160   4.643   5.782 -0.2707  0.2895  1.7023
 6741TIP3   OH244417   3.936   4.489   5.576 -0.5832  0.1743  0.5500
 6741TIP3    H144418   3.972   4.564   5.527 -0.7816  1.0001  1.6209
 6741TIP3    H244419   3.972   4.412   5.532 -1.9484  0.7981 -1.8485
 6742TIP3   OH244420   0.460   0.016   8.205 -0.1312 -0.0848  0.1397
 6742TIP3    H144421   0.382   0.049   8.160 -0.1237  0.3707  0.4598
 6742TIP3    H244422   0.460  -0.078   8.186 -0.1155  0.1021 -0.8303
 6743TIP3   OH244423   5.580   0.732   6.692 -0.4392  0.1715  0.2331
 6743TIP3    H144424   5.546   0.648   6.660  0.9114  0.0862 -1.0879
 6743TIP3    H244425   5.645   0.707   6.759 -0.0731  0.1583 -0.1247
 6744TIP3   OH244426   3.045   6.036   6.362 -0.0948  0.3275  0.2097
 6744TIP3    H144427   3.051   5.941   6.371 -1.6954  0.2031  0.3298
 6744TIP3    H244428   3.119   6.060   6.307  0.3327 -0.9902  0.1759
 6745TIP3   OH244429   5.586   2.186   9.164  0.1279 -0.5034  0.0449
 6745TIP3    H144430   5.663   2.132   9.146 -0.2942 -1.2356  0.3732
 6745TIP3    H244431   5.608   2.273   9.131  0.7870 -0.9055 -0.5808
 6746TIP3   OH244432   0.894   5.693   6.336  0.0623  0.1268 -0.4699
 6746TIP3    H144433   0.886   5.641   6.416  0.7087  0.4061 -0.2080
 6746TIP3    H244434   0.896   5.783   6.367 -0.3966  0.2736 -0.8664
 6747TIP3   OH244435   2.261   6.169   7.270  0.5292  0.3325 -0.6023
 6747TIP3    H144436   2.263   6.075   7.288  0.4773  0.2459 -1.0444
 6747TIP3    H244437   2.317   6.207   7.337  1.6871 -0.1487 -1.2713
 6748TIP3   OH244438   0.816   3.654   8.087 -0.6390 -0.2691 -0.0957
 6748TIP3    H144439   0.750   3.585   8.096  0.7732 -1.5980  0.6028
 6748TIP3    H244440   0.899   3.606   8.081  0.2687  1.3505 -0.9192
 6749TIP3   OH244441   5.480   0.471   6.652 -0.4123  0.2551 -0.1511
 6749TIP3    H144442   5.526   0.457   6.735  0.0391  1.0076 -0.2701
 6749TIP3    H244443   5.407   0.409   6.655 -1.5498  1.5901  1.6595
 6750TIP3   OH244444   5.116   2.605   7.548 -0.0466 -0.2579 -0.3082
 6750TIP3    H144445   5.174   2.602   7.624 -1.5202 -0.9850  0.8561
 6750TIP3    H244446   5.174   2.622   7.474  1.7508 -1.7492  0.6680
 6751TIP3   OH244447   3.791   1.569   5.682  0.3764 -0.4545 -0.0083
 6751TIP3    H144448   3.833   1.497   5.728  0.9064 -1.2762 -1.6888
 6751TIP3    H244449   3.698   1.549   5.685  0.2770  0.1195  1.6601
 6752TIP3   OH244450   1.234   4.800   6.405  0.4104 -0.2141 -0.3686
 6752TIP3    H144451   1.204   4.835   6.321 -1.7000  1.6015  1.0148
 6752TIP3    H244452   1.181   4.721   6.418 -0.7942  0.6429  0.1359
 6753TIP3   OH244453   3.895   1.031   6.073  0.7307  0.0602  0.1420
 6753TIP3    H144454   3.812   1.034   6.025  0.2120  0.0919  1.0186
 6753TIP3    H244455   3.955   1.084   6.020  0.6521 -1.2303 -1.3084
 6754TIP3   OH244456   0.217   0.444   6.585  0.3277  0.1728 -0.5894
 6754TIP3    H144457   0.260   0.359   6.571  0.7329  0.2119  0.3547
 6754TIP3    H244458   0.175   0.436   6.671 -0.8929  0.4234 -1.1416
 6755TIP3   OH244459   6.026   2.292   8.149  0.1264  0.3434 -0.4892
 6755TIP3    H144460   6.015   2.369   8.207  0.9113  0.4850 -0.5175
 6755TIP3    H244461   6.080   2.232   8.200 -0.6094 -0.2693 -0.4100
 6756TIP3   OH244462   5.451   2.097   7.109  0.0531 -0.0139 -0.2883
 6756TIP3    H144463   5.524   2.088   7.170 -1.5330  0.7189  1.8619
 6756TIP3    H244464   5.453   2.016   7.057  1.5497 -0.6255  0.6478
 6757TIP3   OH244465   1.043   3.503   8.015  0.3531  0.1377  0.2069
 6757TIP3    H144466   1.040   3.409   7.997 -2.3959  0.5386 -2.0667
 6757TIP3    H244467   1.095   3.539   7.943 -2.9910  0.7752 -2.1075
 6758TIP3   OH244468   0.484   3.696   8.233 -0.1261  0.0332 -0.4429
 6758TIP3    H144469   0.497   3.760   8.303  0.2300  0.6463 -1.0532
 6758TIP3    H244470   0.490   3.748   8.152  1.6252 -0.9786 -1.0174
 6759TIP3   OH244471   4.249   4.131   8.455  0.7228 -0.3087 -0.3945
 6759TIP3    H144472   4.278   4.039   8.460 -1.1247 -0.9442 -0.5875
 6759TIP3    H244473   4.157   4.125   8.428  0.1557  1.5426  0.9752
 6760TIP3   OH244474   1.384   0.978   7.934  0.0252 -0.7210  0.0353
 6760TIP3    H144475   1.346   0.976   8.022  0.3814  0.3100  0.2218
 6760TIP3    H244476   1.309   0.974   7.875 -0.1855 -2.2624  0.3560
 6761TIP3   OH244477   5.838   1.210   6.266 -0.2914 -0.0587  0.4515
 6761TIP3    H144478   5.776   1.160   6.212  0.1707  2.2769 -2.5355
 6761TIP3    H244479   5.897   1.144   6.302 -0.7385 -1.8543 -1.8531
 6762TIP3   OH244480   3.394   0.913   7.587 -0.2107  0.3099  0.2948
 6762TIP3    H144481   3.301   0.889   7.585  0.0086 -0.5750 -2.2410
 6762TIP3    H244482   3.403   0.978   7.518  0.8761  1.2492  1.2874
 6763TIP3   OH244483   2.971   3.172   8.321 -0.2295 -0.0644 -0.0025
 6763TIP3    H144484   2.941   3.200   8.408 -1.2849 -0.0818 -0.3501
 6763TIP3    H244485   2.892   3.170   8.268  0.6807  2.0567 -1.5819
 6764TIP3   OH244486   2.577   6.378   6.798 -0.1086  0.1317 -0.6350
 6764TIP3    H144487   2.561   6.289   6.828  0.9343 -0.0900 -0.7152
 6764TIP3    H244488   2.526   6.433   6.859  0.7238 -0.4087  0.5961
 6765TIP3   OH244489   2.391   5.949   7.622 -0.3209 -0.0857  0.0421
 6765TIP3    H144490   2.443   5.877   7.658 -0.8336 -1.2155 -1.3411
 6765TIP3    H244491   2.427   5.963   7.534 -0.5527  1.0247  0.1124
 6766TIP3   OH244492   2.046   6.332   7.520 -0.0517  0.0237 -0.1358
 6766TIP3    H144493   2.033   6.244   7.486  0.9901 -0.0495 -0.3745
 6766TIP3    H244494   2.068   6.384   7.443 -1.1374  0.6029 -0.0687
 6767TIP3   OH244495   5.511   2.122   6.780 -0.1099  0.0665 -0.0190
 6767TIP3    H144496   5.448   2.190   6.806  0.8835  1.6710 -1.6056
 6767TIP3    H244497   5.558   2.101   6.861  0.1615  1.9530  0.3716
 6768TIP3   OH244498   5.256   4.563   5.881 -0.3309  0.5154  1.0118
 6768TIP3    H144499   5.257   4.467   5.883 -1.2842  0.4670  0.1803
 6768TIP3    H244500   5.164   4.586   5.895 -0.2006  1.2913  0.6311
 6769TIP3   OH244501   3.302   5.263   6.712  0.0885  0.2125  0.2043
 6769TIP3    H144502   3.356   5.334   6.676  0.6015  0.0526  0.6461
 6769TIP3    H244503   3.218   5.304   6.730  0.5100  0.8298  0.8566
 6770TIP3   OH244504   5.798   0.005   7.453  0.1201  0.0967 -0.1906
 6770TIP3    H144505   5.732   0.061   7.413  0.7798  1.4241  0.5027
 6770TIP3    H244506   5.835  -0.044   7.379 -1.6920 -0.7648 -0.5621
 6771TIP3   OH244507   2.355   6.525   8.631 -0.0693 -0.5944 -0.5793
 6771TIP3    H144508   2.372   6.577   8.709 -1.6336  0.4010 -0.8463
 6771TIP3    H244509   2.386   6.579   8.558 -3.3367  0.9497 -1.0170
 6772TIP3   OH244510   2.068   0.758   7.086 -0.0569  0.1783  0.8105
 6772TIP3    H144511   2.015   0.696   7.037  1.4213 -0.1671 -0.4174
 6772TIP3    H244512   2.027   0.843   7.071  0.5530  0.1390 -1.3831
 6773TIP3   OH244513   2.822   0.662   8.081  0.1346  0.0484 -0.5131
 6773TIP3    H144514   2.759   0.593   8.065  0.1212 -0.0416 -0.0895
 6773TIP3    H244515   2.838   0.701   7.995  0.1883 -0.5167 -0.7650
 6774TIP3   OH244516   0.149   1.646   7.587  0.2521  0.4640  0.1231
 6774TIP3    H144517   0.137   1.709   7.658 -2.7444 -0.5759  0.7083
 6774TIP3    H244518   0.218   1.587   7.617  0.8975  1.6308  0.9532
 6775TIP3   OH244519   4.321   5.360   5.260 -0.1265 -0.0816 -0.5159
 6775TIP3    H144520   4.354   5.310   5.185 -0.8204 -0.0518 -0.8486
 6775TIP3    H244521   4.338   5.303   5.336 -0.0208 -0.3962 -0.7727
 6776TIP3   OH244522   4.521   2.989   7.073 -0.3836 -0.2763  0.1144
 6776TIP3    H144523   4.567   2.967   7.153  1.8245 -0.9514 -1.2662
 6776TIP3    H244524   4.532   2.912   7.016 -1.0964  0.5260 -1.1716
 6777TIP3   OH244525   3.033   5.046   6.631 -0.4652  0.2649  0.6086
 6777TIP3    H144526   2.987   5.112   6.579 -1.1131 -1.9174 -1.8238
 6777TIP3    H244527   2.968   4.978   6.646 -0.0566  0.4232  3.7924
 6778TIP3   OH244528   2.191   6.514   6.714 -0.0973  0.3492  0.3697
 6778TIP3    H144529   2.194   6.421   6.691 -0.7151  0.1829  0.9198
 6778TIP3    H244530   2.278   6.547   6.694 -0.4533  0.1294 -1.7666
 6779TIP3   OH244531   0.628   0.718   8.021  0.6454  0.1730 -0.2022
 6779TIP3    H144532   0.662   0.723   8.111  1.6595 -0.7656 -0.5097
 6779TIP3    H244533   0.666   0.638   7.986 -0.9190 -0.2495 -1.0085
 6780TIP3   OH244534   2.987   1.765   8.892  0.3591 -0.1136  0.0678
 6780TIP3    H144535   2.910   1.724   8.852 -0.2996  1.1997 -0.0542
 6780TIP3    H244536   2.958   1.793   8.978  1.5170 -2.0982  1.1863
 6781TIP3   OH244537   6.557   1.058   8.421 -0.3592 -0.0297 -0.2676
 6781TIP3    H144538   6.560   0.985   8.483  2.3852  0.8995  0.8606
 6781TIP3    H244539   6.584   1.134   8.472 -1.4096  1.4738 -1.8259
 6782TIP3   OH244540   5.588   5.684   7.795  0.0056  0.4294  0.2302
 6782TIP3    H144541   5.587   5.709   7.887 -2.1268  1.0697  0.0874
 6782TIP3    H244542   5.538   5.602   7.792  2.1718 -0.9646 -0.0743
 6783TIP3   OH244543   4.430   2.505   7.297  0.3948 -0.2570  0.9182
 6783TIP3    H144544   4.423   2.566   7.224 -0.4453 -1.7681 -0.3191
 6783TIP3    H244545   4.398   2.555   7.372 -1.1669  0.5713 -0.2265
 6784TIP3   OH244546   6.521   3.874   8.059 -0.1881 -0.0469 -0.2447
 6784TIP3    H144547   6.571   3.876   7.977  0.1457  1.0573 -0.0299
 6784TIP3    H244548   6.586   3.897   8.126 -0.6815  0.0503  0.2029
 6785TIP3   OH244549   1.256   1.835   8.371  0.3582 -0.1792 -0.6894
 6785TIP3    H144550   1.209   1.915   8.393  0.4981  0.0457 -1.2092
 6785TIP3    H244551   1.190   1.765   8.379 -0.4443  0.2792 -2.7299
 6786TIP3   OH244552   1.252   3.976   7.937 -0.0256 -0.4959  0.2313
 6786TIP3    H144553   1.164   3.991   7.904 -0.6813 -0.6671  1.7893
 6786TIP3    H244554   1.310   4.001   7.865 -1.3326 -0.1713 -0.7392
 6787TIP3   OH244555   2.107   4.005   5.710 -0.2081 -0.6053 -0.3502
 6787TIP3    H144556   2.026   4.031   5.667  0.7199  0.9308 -1.3062
 6787TIP3    H244557   2.112   4.061   5.788 -0.7612 -1.7572  0.5469
 6788TIP3   OH244558   4.914   0.314   6.481 -0.6346  0.3774  0.2316
 6788TIP3    H144559   4.964   0.252   6.429  0.9012  0.5071  1.4731
 6788TIP3    H244560   4.888   0.382   6.419  2.4291  1.3204 -0.1692
 6789TIP3   OH244561   4.913   6.614   6.049 -0.2228  0.0911  0.3120
 6789TIP3    H144562   4.906   6.522   6.022 -1.7423  0.0319  0.8069
 6789TIP3    H244563   4.999   6.621   6.091  0.4232 -0.7966 -0.8129
 6790TIP3   OH244564   0.132   4.634   5.924 -0.9451  0.1509 -0.1634
 6790TIP3    H144565   0.110   4.725   5.905 -0.5397  0.5141  1.0298
 6790TIP3    H244566   0.222   4.625   5.893 -1.8920 -0.6886 -2.9269
 6791TIP3   OH244567   1.536   4.916   6.993 -0.0922  0.5678 -0.0829
 6791TIP3    H144568   1.546   5.011   6.991  0.1738  0.5711  0.8691
 6791TIP3    H244569   1.624   4.882   7.007 -0.1780  0.1739 -0.4697
 6792TIP3   OH244570   6.521   6.259   6.166 -0.4234  0.4656  0.3132
 6792TIP3    H144571   6.510   6.164   6.167  0.0470  0.4090  0.1167
 6792TIP3    H244572   6.599   6.275   6.113  2.1365  0.6629  3.7990
 6793TIP3   OH244573   4.888   0.121   7.475  0.1493 -0.7084  0.4114
 6793TIP3    H144574   4.878   0.114   7.570  0.0459 -1.2110  0.3661
 6793TIP3    H244575   4.868   0.213   7.456 -0.7142 -0.8099  0.7666
 6794TIP3   OH244576   3.449   0.198   7.405 -0.3190  0.3353 -0.1851
 6794TIP3    H144577   3.492   0.206   7.490  1.2834 -1.0421 -0.8164
 6794TIP3    H244578   3.446   0.287   7.371  0.8977  0.6271  0.4310
 6795TIP3   OH244579   4.321   2.111   6.610  0.0461  0.3560  0.9499
 6795TIP3    H144580   4.373   2.031   6.602 -1.2297 -0.6385  2.0812
 6795TIP3    H244581   4.385   2.180   6.621  1.1732 -0.5568  0.3549
 6796TIP3   OH244582   3.243   3.779   5.844  0.3333 -0.1256  0.2521
 6796TIP3    H144583   3.235   3.834   5.922 -0.0227 -0.0890  0.1939
 6796TIP3    H244584   3.165   3.800   5.792  0.3926 -0.3990  0.0491
 6797TIP3   OH244585   0.406   3.316   6.026 -0.3784 -0.0526  0.1264
 6797TIP3    H144586   0.397   3.221   6.021 -0.2869 -0.1915  1.8477
 6797TIP3    H244587   0.327   3.351   5.985  0.2864 -0.8187 -1.8810
 6798TIP3   OH244588   3.612   3.170   7.161  0.6497  0.2968 -0.1380
 6798TIP3    H144589   3.567   3.098   7.205  0.5801 -0.6717 -1.6944
 6798TIP3    H244590   3.626   3.137   7.072 -0.3994  2.6208 -1.2473
 6799TIP3   OH244591   3.408   1.569   8.639  0.0644 -0.2403 -0.1836
 6799TIP3    H144592   3.316   1.578   8.665 -0.1848 -0.4015 -0.9751
 6799TIP3    H244593   3.456   1.616   8.707 -0.5543 -0.6158  0.5474
 6800TIP3   OH244594   5.750   0.261   6.674 -0.1427 -0.1888 -0.5512
 6800TIP3    H144595   5.690   0.189   6.655 -1.0551  0.4378 -0.0939
 6800TIP3    H244596   5.722   0.294   6.759  1.3153 -0.3428  0.0236
 6801TIP3   OH244597   0.602   2.072   8.864  0.6744 -0.1150 -0.0052
 6801TIP3    H144598   0.641   2.157   8.883 -1.8528  1.1206  0.1691
 6801TIP3    H244599   0.638   2.013   8.931  1.8624  0.9968  0.3756
 6802TIP3   OH244600   2.147   1.003   7.526  0.4440 -0.1046  0.3280
 6802TIP3    H144601   2.209   1.016   7.597  0.7819 -0.9881  0.2098
 6802TIP3    H244602   2.066   0.975   7.569  0.4698 -0.0679  0.4002
 6803TIP3   OH244603   1.099   2.260   6.833 -0.0742  0.3298 -0.3315
 6803TIP3    H144604   1.186   2.228   6.811 -1.3123 -2.5276 -1.6136
 6803TIP3    H244605   1.071   2.310   6.756  0.4583  1.4524  0.1756
 6804TIP3   OH244606   3.677   2.564   7.915 -0.0899 -0.0762 -0.0173
 6804TIP3    H144607   3.596   2.615   7.906 -0.3693 -0.5723 -0.3726
 6804TIP3    H244608   3.671   2.497   7.848  0.1512 -0.7362  0.6030
 6805TIP3   OH244609   2.112   3.961   7.896 -0.1847 -0.0660  0.1499
 6805TIP3    H144610   2.139   3.983   7.807 -1.1867 -2.1775 -0.7504
 6805TIP3    H244611   2.070   4.040   7.929  1.0161  1.0557 -0.8769
 6806TIP3   OH244612   0.799   4.706   6.433 -0.0959  0.1124  0.1146
 6806TIP3    H144613   0.749   4.683   6.354 -0.2880 -0.3984  0.3812
 6806TIP3    H244614   0.751   4.781   6.469  0.5354  0.9623 -0.7585
 6807TIP3   OH244615   3.071   3.172   5.842  0.6206 -0.0244 -0.0916
 6807TIP3    H144616   3.090   3.139   5.930  1.2188  0.3872 -0.0640
 6807TIP3    H244617   3.142   3.137   5.787 -0.5758 -1.5805 -0.7378
 6808TIP3   OH244618   2.694   0.857   6.197  0.3069 -0.2488 -0.0876
 6808TIP3    H144619   2.735   0.838   6.282 -0.3771  0.0795  0.3261
 6808TIP3    H244620   2.603   0.829   6.208  0.2908 -0.4870 -0.8173
 6809TIP3   OH244621   6.068   0.312   6.164 -0.1223 -0.1870  0.1484
 6809TIP3    H144622   6.143   0.330   6.221 -1.5674 -1.4612  2.6110
 6809TIP3    H244623   6.004   0.378   6.186  0.2425  1.0487 -2.1286
 6810TIP3   OH244624   5.228   3.281   7.603  0.0207 -0.3117  0.0852
 6810TIP3    H144625   5.164   3.238   7.659 -0.4051 -0.2983 -0.3892
 6810TIP3    H244626   5.208   3.374   7.609  1.3165 -0.0796  1.5864
 6811TIP3   OH244627   3.685   3.944   6.945  0.1169 -0.2236  0.3866
 6811TIP3    H144628   3.694   3.852   6.970  1.6992 -0.0064  0.7359
 6811TIP3    H244629   3.742   3.991   7.007 -0.4037  0.9532 -0.0001
 6812TIP3   OH244630   0.384   5.413   7.893 -0.0738  0.5138  0.1454
 6812TIP3    H144631   0.348   5.502   7.891  1.0599  0.9846 -0.4881
 6812TIP3    H244632   0.381   5.384   7.802  1.9801  0.9497 -0.1122
 6813TIP3   OH244633   0.695   3.528   7.085 -0.7346  0.1731  0.1776
 6813TIP3    H144634   0.771   3.553   7.033 -0.3226 -0.3018  0.5358
 6813TIP3    H244635   0.627   3.506   7.021 -0.3354 -0.1111 -0.1493
 6814TIP3   OH244636   4.909   4.705   8.247 -0.1994  0.0651  0.2734
 6814TIP3    H144637   4.990   4.731   8.290 -0.7618 -2.8756  3.5441
 6814TIP3    H244638   4.913   4.609   8.242 -3.2056 -0.1668  0.0909
 6815TIP3   OH244639   4.400   2.984   8.304 -0.6319 -0.6341  0.2342
 6815TIP3    H144640   4.435   2.908   8.257 -2.2985 -0.7971 -0.8252
 6815TIP3    H244641   4.466   3.052   8.291 -0.2080 -1.2165 -0.8298
 6816TIP3   OH244642   1.632   2.101   7.722 -0.4312 -0.1704 -0.3456
 6816TIP3    H144643   1.696   2.167   7.748 -0.7665 -0.7768  2.3373
 6816TIP3    H244644   1.629   2.106   7.626  0.9472  2.3445 -0.3330
 6817TIP3   OH244645   5.011   0.093   6.315 -0.2107  0.6403  0.5561
 6817TIP3    H144646   5.079   0.069   6.253 -1.7011 -0.7707 -0.6280
 6817TIP3    H244647   5.002   0.018   6.373 -1.1122  0.5662  0.3445
 6818TIP3   OH244648   5.207   5.856   8.954  0.2440 -0.0141  0.4638
 6818TIP3    H144649   5.113   5.845   8.940  0.3928 -0.3268 -0.3177
 6818TIP3    H244650   5.229   5.795   9.024  0.0355 -0.6308 -0.0073
 6819TIP3   OH244651   2.787   6.659   7.332  0.4882 -0.2300 -0.3134
 6819TIP3    H144652   2.724   6.692   7.397  0.3876 -0.4504 -0.3001
 6819TIP3    H244653   2.871   6.697   7.360  0.7658 -1.6890  0.9574
 6820TIP3   OH244654   3.821   4.794   6.757  0.3508  0.7882 -0.0595
 6820TIP3    H144655   3.821   4.889   6.760 -0.4830  0.7910  0.1219
 6820TIP3    H244656   3.801   4.767   6.846 -2.8052  0.5227 -0.7275
 6821TIP3   OH244657   3.145   5.423   5.452 -0.2297 -0.0730 -0.1929
 6821TIP3    H144658   3.054   5.396   5.457 -0.8576  2.0351  1.1742
 6821TIP3    H244659   3.147   5.490   5.383  0.4919 -0.7619 -0.8598
 6822TIP3   OH244660   5.919   2.278   6.879 -0.2544 -0.3491 -0.2824
 6822TIP3    H144661   6.000   2.238   6.849 -0.7278 -0.1188 -1.9537
 6822TIP3    H244662   5.930   2.371   6.860  0.4233  0.2441  2.6112
 6823TIP3   OH244663   2.259   1.930   6.158  0.4376  0.4758  0.1815
 6823TIP3    H144664   2.190   1.993   6.138 -0.3754 -0.1240  1.0079
 6823TIP3    H244665   2.308   1.922   6.077 -0.4190  0.9727 -0.4034
 6824TIP3   OH244666   4.283   5.067  17.028  0.2225  0.2429  0.1310
 6824TIP3    H144667   4.216   4.999  17.018  1.0975 -0.5254 -0.6680
 6824TIP3    H244668   4.312   5.059  17.118 -1.0205  0.8497  0.6123
 6825TIP3   OH244669   0.264   4.443   6.942 -0.3041  0.5248  0.6766
 6825TIP3    H144670   0.170   4.461   6.938 -0.2710  0.6512  0.4816
 6825TIP3    H244671   0.292   4.439   6.851 -0.1939  0.0861  0.7280
 6826TIP3   OH244672   1.508   0.102   5.511  0.1460  0.0802  0.3896
 6826TIP3    H144673   1.429   0.103   5.456 -0.0044  0.4261  0.6121
 6826TIP3    H244674   1.486   0.042   5.582 -0.7453  1.8214  1.6542
 6827TIP3   OH244675   6.185   5.441   7.563 -0.6307 -0.1868  0.5776
 6827TIP3    H144676   6.143   5.523   7.537  0.6860  0.2535 -0.2530
 6827TIP3    H244677   6.175   5.438   7.658 -0.4314  1.0819  0.6521
 6828TIP3   OH244678   4.514   0.338   6.697  0.2950 -0.3186  0.0737
 6828TIP3    H144679   4.499   0.319   6.789 -0.3693  0.8838  0.2368
 6828TIP3    H244680   4.427   0.359   6.662  0.5488 -0.6969 -0.8055
 6829TIP3   OH244681   1.054   1.752   6.854  0.6700  0.1202 -0.4639
 6829TIP3    H144682   1.007   1.673   6.880  1.1828 -0.1802 -0.4444
 6829TIP3    H244683   1.141   1.742   6.892  0.7415  0.6890 -0.4697
 6830TIP3   OH244684   1.971   3.319   7.484 -0.3716 -0.2166  0.6069
 6830TIP3    H144685   1.999   3.397   7.533 -2.1265  0.4476  0.6070
 6830TIP3    H244686   1.953   3.351   7.396  0.8757 -1.0509  0.0078
 6831TIP3   OH244687   1.970   4.248   9.201  0.0670 -0.7305  0.0144
 6831TIP3    H144688   1.884   4.235   9.241  0.3981 -1.2193  0.5777
 6831TIP3    H244689   2.010   4.161   9.200  1.1068 -0.2967  1.0592
 6832TIP3   OH244690   5.452   3.808   6.287 -0.4374 -0.2819  0.4154
 6832TIP3    H144691   5.521   3.756   6.329 -0.1140 -0.6797 -0.5588
 6832TIP3    H244692   5.494   3.893   6.270 -0.7055  0.0252  1.2708
 6833TIP3   OH244693   1.864   1.522   8.622 -0.1666 -0.8822 -0.0875
 6833TIP3    H144694   1.887   1.555   8.709 -0.7470 -1.8013  0.4322
 6833TIP3    H244695   1.769   1.505   8.627 -0.1624 -1.1629 -0.8203
 6834TIP3   OH244696   1.659   6.591   8.260  0.1274  0.1654 -0.3506
 6834TIP3    H144697   1.744   6.552   8.280 -0.3505 -0.6051  0.2355
 6834TIP3    H244698   1.597   6.545   8.317 -0.6277  1.0036 -0.4604
 6835TIP3   OH244699   1.735   4.147   8.618  0.5457 -0.3269  0.1326
 6835TIP3    H144700   1.810   4.143   8.558 -0.0484 -1.3558 -0.5650
 6835TIP3    H244701   1.773   4.129   8.704  1.2659  0.2390 -0.0541
 6836TIP3   OH244702   5.610   2.463   9.103  0.1803  0.4746 -0.0931
 6836TIP3    H144703   5.660   2.534   9.063 -0.8997  1.4058  0.1776
 6836TIP3    H244704   5.521   2.497   9.111  0.0857 -0.1457  1.9236
 6837TIP3   OH244705   4.358   6.447   7.526 -0.5303  0.9190 -0.1016
 6837TIP3    H144706   4.402   6.385   7.467  1.0687  0.7994  1.1377
 6837TIP3    H244707   4.385   6.533   7.493 -0.5011  0.8842 -0.1708
 6838TIP3   OH244708   1.347   0.519   5.344  0.5134 -0.1418  0.2491
 6838TIP3    H144709   1.373   0.610   5.354  0.0881  0.0009  0.1040
 6838TIP3    H244710   1.426   0.469   5.362  0.6662  0.2421  0.6603
 6839TIP3   OH244711   5.903   1.867   6.239  0.6822  0.3459 -0.3261
 6839TIP3    H144712   5.873   1.953   6.210  0.0138  0.3271  0.2915
 6839TIP3    H244713   5.905   1.815   6.158  0.1409  0.6695 -0.5590
 6840TIP3   OH244714   3.217   6.463   7.678  0.2261 -0.4246 -0.7059
 6840TIP3    H144715   3.291   6.475   7.619  2.0999 -0.7056  1.4679
 6840TIP3    H244716   3.216   6.369   7.697  0.1222 -0.2537  0.2179
 6841TIP3   OH244717   1.367   1.809   6.365  0.3708 -0.3165  0.4445
 6841TIP3    H144718   1.335   1.881   6.419  2.0181  0.1247  0.8902
 6841TIP3    H244719   1.300   1.798   6.297 -0.1675  1.2548  0.6820
 6842TIP3   OH244720   0.613   5.951   8.189  0.8222  0.1877  0.0786
 6842TIP3    H144721   0.573   5.912   8.267 -2.3517  0.5731 -1.1928
 6842TIP3    H244722   0.642   5.876   8.136 -0.6188 -0.2705 -0.0962
 6843TIP3   OH244723   2.129   2.230   5.620 -0.5746  0.2596  0.2029
 6843TIP3    H144724   2.209   2.267   5.581 -1.5216 -0.4990 -2.6942
 6843TIP3    H244725   2.085   2.305   5.660  2.6988  0.3413  4.3600
 6844TIP3   OH244726   5.139   1.962   5.649  0.4681  0.8431 -0.4909
 6844TIP3    H144727   5.067   2.024   5.649  1.0978  1.6094 -1.3418
 6844TIP3    H244728   5.103   1.882   5.688 -0.7293  1.3207 -0.5894
 6845TIP3   OH244729   6.170   3.516   5.745  0.1457 -0.0241 -0.2482
 6845TIP3    H144730   6.261   3.494   5.729 -0.4504 -2.1120 -1.0564
 6845TIP3    H244731   6.147   3.576   5.674  1.4853  2.4981  1.3207
 6846TIP3   OH244732   3.445   5.929   6.418 -0.2192 -0.0113  0.2151
 6846TIP3    H144733   3.524   5.961   6.376  0.7080 -0.5006  1.5023
 6846TIP3    H244734   3.454   5.955   6.510 -0.4308 -2.0204  0.8663
 6847TIP3   OH244735   2.142   6.697   7.690 -0.0768  0.3015 -0.2462
 6847TIP3    H144736   2.114   6.728   7.776 -0.4708  0.1736 -0.3265
 6847TIP3    H244737   2.070   6.720   7.631 -0.0352 -0.0714 -0.4464
 6848TIP3   OH244738   5.380   3.656   6.687 -0.0292 -0.0694 -0.3202
 6848TIP3    H144739   5.309   3.594   6.701  0.7319 -0.7099  0.8860
 6848TIP3    H244740   5.366   3.724   6.753 -0.9856  1.2189 -1.7719
 6849TIP3   OH244741   0.417   4.679   6.592  0.4785  0.0284 -0.1515
 6849TIP3    H144742   0.453   4.707   6.508  0.7035  0.2752  0.0245
 6849TIP3    H244743   0.494   4.651   6.643  0.2618 -0.9465 -0.3325
 6850TIP3   OH244744   0.572   6.610   7.006  0.1028  0.1494  0.2314
 6850TIP3    H144745   0.512   6.600   6.931  1.8605 -1.3104 -1.0732
 6850TIP3    H244746   0.589   6.704   7.011 -2.0556  0.5791  0.4881
 6851TIP3   OH244747   0.830   5.241   6.802  0.0672 -0.0045 -0.2477
 6851TIP3    H144748   0.780   5.244   6.884 -0.1807  1.2889 -0.4180
 6851TIP3    H244749   0.921   5.246   6.830 -0.0257  0.7853 -0.0341
 6852TIP3   OH244750   5.348   6.552   8.064 -0.4291  0.0645 -0.2979
 6852TIP3    H144751   5.351   6.632   8.013 -1.4961  0.6865  0.5731
 6852TIP3    H244752   5.255   6.530   8.070 -0.1815 -1.0430 -0.2178
 6853TIP3   OH244753   1.277   0.721   5.653 -0.4544 -0.3771  0.2612
 6853TIP3    H144754   1.358   0.674   5.667 -1.5878 -3.2766 -1.8423
 6853TIP3    H244755   1.294   0.777   5.577  0.5634  1.9640  2.0933
 6854TIP3   OH244756   0.066   5.258   5.447 -0.0599 -0.0467 -0.3147
 6854TIP3    H144757   0.023   5.337   5.416  0.4047 -0.1811 -1.3512
 6854TIP3    H244758   0.099   5.215   5.367  0.0700 -1.0587  0.2612
 6855TIP3   OH244759   6.365   1.884   8.378 -0.4319  0.0722  0.1607
 6855TIP3    H144760   6.406   1.843   8.302 -0.9864  1.0663 -0.6963
 6855TIP3    H244761   6.349   1.812   8.439  0.0042 -0.7409 -0.6717
 6856TIP3   OH244762   1.615   1.768   6.778  0.3851 -0.2710  0.4973
 6856TIP3    H144763   1.572   1.713   6.713 -1.1825  0.1347  1.1402
 6856TIP3    H244764   1.627   1.852   6.734  2.0773 -0.8560 -0.2284
 6857TIP3   OH244765   3.173   2.503   6.096 -0.4125 -0.5067  0.0856
 6857TIP3    H144766   3.174   2.583   6.043 -0.3514 -0.4871  0.1158
 6857TIP3    H244767   3.166   2.432   6.033 -0.7547 -0.4641  0.0755
 6858TIP3   OH244768   0.026   0.500   8.069  0.3503 -0.4325  0.0600
 6858TIP3    H144769   0.106   0.479   8.117  0.2701 -0.1013  0.3466
 6858TIP3    H244770   0.018   0.432   8.003 -0.3962 -1.8368  1.5341
 6859TIP3   OH244771   1.140   5.864   9.219  0.0167 -0.2075  0.7580
 6859TIP3    H144772   1.212   5.922   9.244 -0.3446  0.5263  0.0999
 6859TIP3    H244773   1.070   5.885   9.280  0.5285 -1.3259  1.7758
 6860TIP3   OH244774   0.900   3.279   5.803  0.6368  0.0944  0.6700
 6860TIP3    H144775   0.809   3.270   5.832 -0.4732  2.4631 -1.6427
 6860TIP3    H244776   0.930   3.189   5.788 -2.4178 -0.7235 -1.4047
 6861TIP3   OH244777   3.012   0.321   7.345 -0.2212  0.1265  0.9069
 6861TIP3    H144778   3.098   0.296   7.311  0.4109  0.2733  2.3015
 6861TIP3    H244779   2.959   0.339   7.268  1.1401  0.4745  0.0261
 6862TIP3   OH244780   4.529   2.246   7.311 -0.2890  0.8692  0.0097
 6862TIP3    H144781   4.493   2.334   7.323 -1.0448  0.5078  0.4516
 6862TIP3    H244782   4.479   2.209   7.238 -0.1558  0.7144 -0.0036
 6863TIP3   OH244783   2.091   6.207   6.370  0.2176 -0.5571 -0.4674
 6863TIP3    H144784   2.086   6.137   6.305  0.3018 -1.2499  0.2632
 6863TIP3    H244785   1.999   6.233   6.383 -0.0309 -1.8806  0.6823
 6864TIP3   OH244786   0.649   3.272   8.349 -0.4848  0.1595  0.0133
 6864TIP3    H144787   0.700   3.286   8.428  0.4977  0.8269 -0.7087
 6864TIP3    H244788   0.575   3.219   8.377 -0.3963  0.7627  1.4513
 6865TIP3   OH244789   2.012   3.041   7.402  0.2944  0.3809 -0.1696
 6865TIP3    H144790   1.996   3.125   7.446 -0.2993  0.4914 -0.5911
 6865TIP3    H244791   1.956   2.978   7.447 -1.4591  0.7816 -1.6842
 6866TIP3   OH244792   2.487   4.408   5.401 -0.8425 -0.1943 -0.1965
 6866TIP3    H144793   2.400   4.367   5.398 -0.4325 -1.2312  1.0331
 6866TIP3    H244794   2.532   4.362   5.472  0.1865  1.3817  0.2110
 6867TIP3   OH244795   5.999   2.853   6.600 -0.2439  0.4227  0.2492
 6867TIP3    H144796   6.055   2.804   6.661 -0.9044  1.3471  1.6613
 6867TIP3    H244797   6.035   2.833   6.513  2.4972  1.2230  1.0891
 6868TIP3   OH244798   5.417   6.671   7.526 -0.4153 -0.6828 -0.2071
 6868TIP3    H144799   5.324   6.695   7.519 -0.2749 -0.0469  0.0313
 6868TIP3    H244800   5.435   6.623   7.445 -0.2651  1.5824 -1.6119
 6869TIP3   OH244801   4.149   2.939   6.975  0.2978 -0.5058 -0.6504
 6869TIP3    H144802   4.190   3.025   6.971  0.0477 -0.3424  0.1201
 6869TIP3    H244803   4.218   2.878   6.951  1.2760 -0.3096  1.4538
 6870TIP3   OH244804   3.249   3.858   5.273 -0.5053 -0.3025 -0.1515
 6870TIP3    H144805   3.221   3.890   5.188  0.0035  1.6122  0.3515
 6870TIP3    H244806   3.326   3.912   5.295 -0.6451 -0.7165  1.5165
 6871TIP3   OH244807   4.232   2.819   7.923  0.0985  0.5968  0.3634
 6871TIP3    H144808   4.317   2.828   7.880  0.7684 -0.2620  1.4693
 6871TIP3    H244809   4.185   2.756   7.869  0.7722 -0.1519  0.6370
 6872TIP3   OH244810   5.383   6.228   7.102 -0.0889  0.2252 -0.4883
 6872TIP3    H144811   5.478   6.237   7.091 -0.0277  0.6264  0.3087
 6872TIP3    H244812   5.368   6.247   7.195 -1.2140  2.4973 -1.0828
 6873TIP3   OH244813   3.511   4.497   8.273 -0.3042  0.1153 -0.0730
 6873TIP3    H144814   3.524   4.581   8.317 -1.2286  1.0509 -1.5025
 6873TIP3    H244815   3.579   4.493   8.206 -1.0035  0.2952 -0.8066
 6874TIP3   OH244816   3.866   6.506   6.387 -0.4488 -0.4091 -0.4849
 6874TIP3    H144817   3.872   6.548   6.473 -1.5095  1.3137 -1.1879
 6874TIP3    H244818   3.946   6.533   6.342 -0.2155 -0.7410 -0.2667
 6875TIP3   OH244819   4.379   3.518   7.447 -0.3113  0.1152 -0.2998
 6875TIP3    H144820   4.337   3.542   7.364  0.9681 -1.5530 -1.4828
 6875TIP3    H244821   4.446   3.585   7.460 -0.8363  0.6616 -0.3383
 6876TIP3   OH244822   4.103   4.377   6.327  0.0037  0.0374 -0.3502
 6876TIP3    H144823   4.046   4.410   6.258 -1.1323 -0.6368  0.2423
 6876TIP3    H244824   4.099   4.282   6.318  1.2623 -0.0297 -0.4621
 6877TIP3   OH244825   3.038   3.999   5.432  0.4165  0.1050 -0.6707
 6877TIP3    H144826   3.090   3.922   5.409  1.0661  0.2577  0.2057
 6877TIP3    H244827   3.055   4.062   5.361  1.6235  0.2300 -0.2916
 6878TIP3   OH244828   0.794   4.494   8.642 -0.1013  0.1939  0.0120
 6878TIP3    H144829   0.720   4.468   8.697 -0.3565  0.1908 -0.3253
 6878TIP3    H244830   0.858   4.424   8.652 -0.0142  0.3456  0.5478
 6879TIP3   OH244831   2.216   1.729   9.050 -0.4969 -0.2605 -0.2347
 6879TIP3    H144832   2.133   1.683   9.036 -0.3677  0.0108 -2.1994
 6879TIP3    H244833   2.191   1.805   9.102 -1.2205 -0.9768  0.4939
 6880TIP3   OH244834   6.263   2.230   6.854  0.3065 -0.0671 -0.1275
 6880TIP3    H144835   6.343   2.177   6.857  1.6176  1.5738 -2.6159
 6880TIP3    H244836   6.287   2.313   6.893 -0.0996  0.4954 -1.0345
 6881TIP3   OH244837   0.028   1.863   8.618  0.3432 -0.4171 -0.3890
 6881TIP3    H144838   0.029   1.778   8.573 -0.1275  0.4310 -2.0994
 6881TIP3    H244839  -0.055   1.864   8.665  1.3885 -1.8336  1.6770
 6882TIP3   OH244840   2.755   4.306   7.727  0.1528 -0.3312 -0.5745
 6882TIP3    H144841   2.761   4.398   7.701 -1.1852  0.1114  0.5468
 6882TIP3    H244842   2.661   4.285   7.719  0.4118 -1.5428 -0.6358
 6883TIP3   OH244843   3.304   1.946   5.603  0.4248  0.0040  0.0123
 6883TIP3    H144844   3.319   1.869   5.549 -2.5338 -0.4844 -0.2792
 6883TIP3    H244845   3.386   1.995   5.599  2.1783 -2.7748 -0.3098
 6884TIP3   OH244846   2.849   1.251   5.382 -0.1912 -0.1472 -0.3971
 6884TIP3    H144847   2.919   1.198   5.421  0.1297  1.8210  1.8971
 6884TIP3    H244848   2.793   1.187   5.337  2.2077 -1.9453 -1.0146
 6885TIP3   OH244849   3.190   1.998   8.282  0.4957 -0.0874  0.2755
 6885TIP3    H144850   3.114   2.020   8.335  0.2193  0.3296 -0.2790
 6885TIP3    H244851   3.234   2.082   8.267  0.3605 -0.1436 -0.4609
 6886TIP3   OH244852   3.087   0.844   7.295  0.3832 -0.1950  0.3659
 6886TIP3    H144853   3.024   0.843   7.367  0.7437  0.4311  0.6964
 6886TIP3    H244854   3.055   0.777   7.235 -1.2280  0.8546 -0.0131
 6887TIP3   OH244855   2.695   2.370   6.502 -0.1519 -0.0535 -0.0079
 6887TIP3    H144856   2.762   2.303   6.513  0.0456  0.3208  1.2087
 6887TIP3    H244857   2.623   2.325   6.458 -0.6874 -1.5479  2.2372
 6888TIP3   OH244858   3.925   2.730   5.933  0.0586  0.3759 -0.4108
 6888TIP3    H144859   3.920   2.706   6.025  0.6608  0.0490 -0.4554
 6888TIP3    H244860   4.005   2.687   5.901 -2.4698 -3.5806 -2.2849
 6889TIP3   OH244861   6.118   5.407   7.258  0.0972  0.0900  0.3367
 6889TIP3    H144862   6.143   5.413   7.350 -0.2646  2.0417  0.3357
 6889TIP3    H244863   6.136   5.494   7.222 -3.1416  0.5116 -0.5676
 6890TIP3   OH244864   3.830   3.700   8.431 -0.3938 -0.0476 -0.0367
 6890TIP3    H144865   3.882   3.650   8.367 -1.7346 -1.4669 -0.0580
 6890TIP3    H244866   3.896   3.745   8.484  0.8428 -1.0518 -0.6528
 6891TIP3   OH244867   6.535   5.567   5.722 -0.2599  0.1975  0.0638
 6891TIP3    H144868   6.454   5.587   5.675  0.2060  2.3945  0.1143
 6891TIP3    H244869   6.507   5.524   5.802 -1.6307  3.0748  1.2474
 6892TIP3   OH244870   0.141   4.745   8.478 -0.2729  0.4299 -0.0769
 6892TIP3    H144871   0.225   4.727   8.521 -0.8547 -1.9624  0.2198
 6892TIP3    H244872   0.115   4.831   8.511  1.8078  1.0053  0.2002
 6893TIP3   OH244873   1.633   0.550   8.340 -0.1921 -0.0929 -0.0667
 6893TIP3    H144874   1.703   0.572   8.402 -0.3848  0.1104  0.0795
 6893TIP3    H244875   1.574   0.494   8.390 -0.3689  0.1047 -0.0515
 6894TIP3   OH244876   5.509   5.566   7.206  0.8914  0.0763 -0.0467
 6894TIP3    H144877   5.469   5.484   7.235  1.9157 -0.4534 -0.1084
 6894TIP3    H244878   5.448   5.634   7.237 -0.8427 -0.7628 -1.4069
 6895TIP3   OH244879   5.318   4.402   7.248  0.3590 -0.2037 -0.0105
 6895TIP3    H144880   5.232   4.405   7.288 -0.0516  1.7403 -0.9445
 6895TIP3    H244881   5.304   4.358   7.164  0.1710  0.5478 -0.3773
 6896TIP3   OH244882   5.670   2.024   8.303  0.0899 -0.2326 -0.3849
 6896TIP3    H144883   5.661   1.929   8.310  0.2316 -0.1990  0.2676
 6896TIP3    H244884   5.732   2.048   8.371 -0.3063  0.3888 -0.2292
 6897TIP3   OH244885   1.926   5.492   6.533 -0.7010 -0.0089  0.1957
 6897TIP3    H144886   1.852   5.503   6.474 -0.7071  1.3922  0.4302
 6897TIP3    H244887   1.944   5.580   6.566 -0.6345 -0.7033  2.2075
 6898TIP3   OH244888   4.728   3.969   4.999  0.0630  0.2472  0.3369
 6898TIP3    H144889   4.643   3.959   4.955  1.6632 -0.7548 -2.8205
 6898TIP3    H244890   4.706   3.969   5.092 -3.2972 -0.9577 -0.2905
 6899TIP3   OH244891   5.081   1.984   7.617  0.2765  0.4888 -0.0634
 6899TIP3    H144892   5.095   2.076   7.596 -0.5094  0.5962 -0.1437
 6899TIP3    H244893   5.138   1.937   7.556  1.0088  0.9227  0.2679
 6900TIP3   OH244894   2.608   6.094   7.271  0.5199  0.4116  0.0747
 6900TIP3    H144895   2.618   6.189   7.262  0.5556  0.2017 -3.7764
 6900TIP3    H244896   2.696   6.062   7.288  0.7378  0.9819  0.0496
 6901TIP3   OH244897   3.549   6.234   6.098  0.0965  0.3172  0.3438
 6901TIP3    H144898   3.567   6.185   6.179  0.1202  1.0507  0.7841
 6901TIP3    H244899   3.628   6.286   6.084 -0.5733  1.4627  0.7685
 6902TIP3   OH244900   5.501   4.810   8.098 -0.1275 -0.1453  0.0565
 6902TIP3    H144901   5.497   4.721   8.134  1.3637  0.0577  0.8288
 6902TIP3    H244902   5.525   4.864   8.173 -2.0484  1.1096 -0.1555
 6903TIP3   OH244903   3.814   3.520   8.123  0.2063 -0.6402 -0.0374
 6903TIP3    H144904   3.831   3.444   8.178 -0.2519 -0.5790  0.1968
 6903TIP3    H244905   3.891   3.576   8.133  0.2464 -0.7607  0.3190
 6904TIP3   OH244906   0.775   2.772   6.117  0.0068 -0.1077  0.5212
 6904TIP3    H144907   0.805   2.686   6.146 -1.0216 -0.3811  0.8086
 6904TIP3    H244908   0.764   2.822   6.198 -1.1853 -0.3143  0.5053
 6905TIP3   OH244909   6.391   5.970   6.268  0.2317  0.2648  0.0108
 6905TIP3    H144910   6.445   6.029   6.320 -0.1606  0.5908  0.0506
 6905TIP3    H244911   6.345   6.027   6.206 -0.0140 -0.0146 -0.0706
 6906TIP3   OH244912   6.364   5.563   6.529  0.2737 -0.4183  0.2546
 6906TIP3    H144913   6.337   5.495   6.467  1.6971 -0.4998 -0.3190
 6906TIP3    H244914   6.328   5.534   6.613 -0.6197 -0.9629 -0.2969
 6907TIP3   OH244915   2.777   4.782   7.402  0.8737  0.3443  0.5831
 6907TIP3    H144916   2.753   4.689   7.410  1.3183  0.1195 -0.5176
 6907TIP3    H244917   2.872   4.784   7.417  1.1605  0.3605 -1.0000
 6908TIP3   OH244918   3.099   5.031   7.289 -0.3635  0.5124  0.7512
 6908TIP3    H144919   3.038   5.105   7.288 -2.1591 -0.8990 -0.1523
 6908TIP3    H244920   3.100   5.003   7.381 -0.8790  0.7386  0.8315
 6909TIP3   OH244921   3.005   2.397   6.607  0.6164 -0.2944  0.3180
 6909TIP3    H144922   3.048   2.480   6.628  1.5757 -1.0302  1.3743
 6909TIP3    H244923   3.041   2.372   6.522 -0.8411  1.0967 -0.7789
 6910TIP3   OH244924   0.870   1.945   8.241 -0.6237 -0.2960 -0.2386
 6910TIP3    H144925   0.908   1.858   8.248 -2.0858 -0.8171  3.5797
 6910TIP3    H244926   0.803   1.936   8.173  0.3481 -1.6295 -1.0793
 6911TIP3   OH244927   5.478   5.625   5.260  0.2103 -0.3565 -0.0271
 6911TIP3    H144928   5.397   5.584   5.288 -0.1163  0.4740  0.2845
 6911TIP3    H244929   5.462   5.653   5.170  0.4043 -0.8367 -0.2117
 6912TIP3   OH244930   0.735   0.644   6.581 -0.3768  0.2679 -0.0655
 6912TIP3    H144931   0.775   0.676   6.662  1.3411  0.2789 -0.8673
 6912TIP3    H244932   0.705   0.556   6.603  1.3572 -0.2857  0.2380
 6913TIP3   OH244933   4.001   5.831   8.168 -0.3616 -0.0067  0.0840
 6913TIP3    H144934   3.987   5.738   8.146  0.8150 -0.5507  1.4633
 6913TIP3    H244935   4.094   5.846   8.149 -0.8046  1.2789 -1.3140
 6914TIP3   OH244936   5.790   4.039   6.578  0.2172  0.2891 -0.7643
 6914TIP3    H144937   5.876   4.081   6.575  0.3148  0.0874 -0.8329
 6914TIP3    H244938   5.773   4.026   6.672 -0.1960  1.2557 -0.7032
 6915TIP3   OH244939   6.624   4.679   8.619  0.4768 -0.6077  0.2572
 6915TIP3    H144940   6.697   4.710   8.564  0.2713 -0.2309  0.1914
 6915TIP3    H244941   6.644   4.713   8.706 -1.4295  2.7338 -0.4193
 6916TIP3   OH244942   3.895   1.022   7.117  0.5193  0.1582  0.8463
 6916TIP3    H144943   3.861   1.000   7.030  0.0212  0.5533  0.9326
 6916TIP3    H244944   3.822   1.003   7.176  0.3996  1.1418  1.0250
 6917TIP3   OH244945   0.079   0.195   5.807 -0.1702 -0.2621  0.3412
 6917TIP3    H144946   0.135   0.259   5.852  0.2784 -0.7501  0.4808
 6917TIP3    H244947   0.004   0.185   5.866  0.0819 -0.3751  0.6469
 6918TIP3   OH244948   2.344   2.218   6.554 -0.1344 -0.1470  0.6031
 6918TIP3    H144949   2.388   2.245   6.474 -0.8582 -0.2390  0.1710
 6918TIP3    H244950   2.306   2.298   6.589 -0.5889 -0.2629  0.3750
 6919TIP3   OH244951   1.436   5.051   8.437  0.0868  0.1826  0.0854
 6919TIP3    H144952   1.431   4.961   8.469  0.5750  0.2476  0.3637
 6919TIP3    H244953   1.530   5.066   8.423  0.0521  0.7799  0.4438
 6920TIP3   OH244954   5.012   3.907   9.139 -0.3073 -0.2880 -0.1357
 6920TIP3    H144955   4.971   3.949   9.063 -2.0470 -2.0312 -0.2396
 6920TIP3    H244956   5.085   3.965   9.162 -0.1914  0.6941 -2.6472
 6921TIP3   OH244957   3.291   0.983   5.538  0.0125  0.4730 -0.0170
 6921TIP3    H144958   3.303   0.910   5.599 -1.9718  0.4248  0.3852
 6921TIP3    H244959   3.368   0.980   5.483 -0.4518 -2.6575 -0.7264
 6922TIP3   OH244960   4.935   2.623   7.795 -0.2150 -0.5394  0.0027
 6922TIP3    H144961   4.888   2.662   7.721 -0.0873 -0.0009  0.2043
 6922TIP3    H244962   4.960   2.536   7.764  0.0900 -0.2093 -0.6926
 6923TIP3   OH244963   6.105   6.162   8.759  0.1103 -0.1848 -0.5083
 6923TIP3    H144964   6.146   6.249   8.760  0.6895 -0.4617  0.3986
 6923TIP3    H244965   6.136   6.120   8.839 -4.3822  0.7379  2.0793
 6924TIP3   OH244966   6.470   6.224   7.281 -0.3885  0.5580 -0.5312
 6924TIP3    H144967   6.457   6.295   7.218  1.2562  1.3061 -0.0761
 6924TIP3    H244968   6.512   6.154   7.230  0.6187  1.0280 -0.3680
 6925TIP3   OH244969   1.893   3.086   6.781  0.1111 -0.4433  0.2588
 6925TIP3    H144970   1.814   3.034   6.762  0.9279 -1.3695 -0.7004
 6925TIP3    H244971   1.936   3.038   6.851 -0.4168  0.3480  1.1528
 6926TIP3   OH244972   5.345   3.879   8.865 -0.3769 -0.0152 -0.0111
 6926TIP3    H144973   5.420   3.819   8.861 -2.1351 -2.4772  1.5316
 6926TIP3    H244974   5.314   3.873   8.955 -1.9296  1.6189 -0.3893
 6927TIP3   OH244975   0.067   3.696   7.084 -0.2441  0.0441  0.4882
 6927TIP3    H144976   0.162   3.681   7.093 -0.5504 -1.2596  1.9359
 6927TIP3    H244977   0.050   3.774   7.138  0.2788  1.5826 -1.4555
 6928TIP3   OH244978   5.305   0.285   5.943  0.3224  0.2615  0.3007
 6928TIP3    H144979   5.267   0.373   5.947 -1.8966 -0.5463 -0.9451
 6928TIP3    H244980   5.356   0.285   5.861 -1.6729 -0.2518 -1.0197
 6929TIP3   OH244981   6.269   2.894   7.372  0.2950  0.4686 -0.5000
 6929TIP3    H144982   6.225   2.853   7.446  1.0454  0.5865  0.0117
 6929TIP3    H244983   6.225   2.979   7.362 -0.1281  0.2528 -0.5023
 6930TIP3   OH244984   4.235   6.174   8.221  0.2994  0.2609  0.0924
 6930TIP3    H144985   4.158   6.147   8.272  0.5355  1.8040  1.3231
 6930TIP3    H244986   4.213   6.261   8.189  1.5833  0.7734  0.5649
 6931TIP3   OH244987   5.646   3.383   6.276 -0.8212  0.2594 -0.0144
 6931TIP3    H144988   5.586   3.312   6.257  0.6202 -0.7392 -1.0626
 6931TIP3    H244989   5.723   3.340   6.314  0.1294  1.2238 -0.7734
 6932TIP3   OH244990   1.603   2.849   7.743  0.7553 -0.5444  0.5557
 6932TIP3    H144991   1.661   2.911   7.787  0.1669 -0.6232  1.4763
 6932TIP3    H244992   1.522   2.898   7.729  0.5200 -0.8899  0.6748
 6933TIP3   OH244993   5.953   0.469   6.817 -0.2743  0.7703  0.2018
 6933TIP3    H144994   5.866   0.446   6.850 -0.4667 -0.4087 -1.0186
 6933TIP3    H244995   5.936   0.528   6.744 -0.1396 -0.2523 -0.6852
 6934TIP3   OH244996   6.476   5.909   7.669 -0.9263 -0.1393  0.1705
 6934TIP3    H144997   6.546   5.971   7.690 -1.1925  0.3486 -0.3709
 6934TIP3    H244998   6.481   5.898   7.575 -1.1127 -0.6735  0.2185
 6935TIP3   OH244999   0.562   4.727   9.429 -0.1785 -0.0681 -0.3537
 6935TIP3    H145000   0.479   4.682   9.439  0.7162 -1.3490  2.1538
 6935TIP3    H245001   0.622   4.681   9.488  2.2688  0.9573 -1.8604
 6936TIP3   OH245002   4.244   4.066   8.889  0.5497 -0.2734  0.1109
 6936TIP3    H145003   4.190   4.095   8.815 -3.2205 -1.7167  2.0368
 6936TIP3    H245004   4.255   3.972   8.874  0.6667 -0.3796  0.8607
 6937TIP3   OH245005   3.357   3.039   8.256  0.0568 -0.4593 -0.4305
 6937TIP3    H145006   3.411   2.961   8.243 -0.3767 -0.8376 -0.0158
 6937TIP3    H245007   3.377   3.067   8.345 -1.8221 -1.7292  0.4566
 6938TIP3   OH245008   4.647   4.559   5.620  0.2098  0.2663  0.2692
 6938TIP3    H145009   4.577   4.498   5.646  1.0375 -1.0776 -0.5430
 6938TIP3    H245010   4.606   4.615   5.553 -0.0105 -0.7719 -0.4961
 6939TIP3   OH245011   6.665   1.381   7.604 -0.1933  0.1178 -0.0580
 6939TIP3    H145012   6.571   1.394   7.590 -0.1743  0.8652  0.4917
 6939TIP3    H245013   6.690   1.319   7.536 -0.8504  0.8229 -0.9715
 6940TIP3   OH245014   5.183   4.821   7.656 -0.7833  0.0285 -0.3901
 6940TIP3    H145015   5.258   4.771   7.623 -0.9335 -0.3426 -0.1811
 6940TIP3    H245016   5.222   4.892   7.706 -0.5682 -0.5562  0.2944
 6941TIP3   OH245017   3.174   0.966   7.934 -0.2623  0.1326 -0.5628
 6941TIP3    H145018   3.255   0.916   7.928  0.1631  0.8718 -1.1827
 6941TIP3    H245019   3.173   1.021   7.855 -0.5335  1.3573  0.2534
 6942TIP3   OH245020   5.486   4.653   6.032 -0.1577 -0.3064 -0.0614
 6942TIP3    H145021   5.405   4.633   5.985 -1.6505  1.9447  1.3811
 6942TIP3    H245022   5.527   4.723   5.981 -0.0068 -0.2562  0.1277
 6943TIP3   OH245023   3.922   5.428   6.279  0.3312  0.0794  0.3644
 6943TIP3    H145024   3.859   5.495   6.308  0.2783  0.6349 -0.9242
 6943TIP3    H245025   3.872   5.347   6.279 -0.3701  0.4813 -0.4402
 6944TIP3   OH245026   0.640   3.282   5.899 -0.2266 -0.2090 -0.3610
 6944TIP3    H145027   0.577   3.316   5.835 -1.4703 -1.9591 -0.1436
 6944TIP3    H245028   0.599   3.299   5.984  1.3376  1.9467  0.0491
 6945TIP3   OH245029   5.118   4.029   7.917  0.0092 -0.3170  0.1726
 6945TIP3    H145030   5.117   3.982   8.001 -0.3399  2.7722  2.0255
 6945TIP3    H245031   5.185   4.096   7.928 -1.7651  1.7577 -1.0584
 6946TIP3   OH245032   0.428   6.658   8.797 -0.3003  0.5354 -0.0580
 6946TIP3    H145033   0.341   6.697   8.795 -0.5632 -0.0566 -1.2214
 6946TIP3    H245034   0.414   6.567   8.824 -0.3280 -0.1268 -2.1056
 6947TIP3   OH245035   6.627   1.181   5.970 -0.3192  0.1528  0.2077
 6947TIP3    H145036   6.633   1.222   5.884 -2.4581  0.6732  0.2519
 6947TIP3    H245037   6.535   1.190   5.994 -0.4943 -2.9596  1.0916
 6948TIP3   OH245038   3.667   0.154   7.949 -0.2427 -1.1877  0.3302
 6948TIP3    H145039   3.745   0.127   7.998 -0.2248 -0.1452  0.9013
 6948TIP3    H245040   3.703   0.201   7.873 -0.3048 -0.1809  0.9067
 6949TIP3   OH245041   0.041   6.474   7.340 -0.2274 -0.0751 -0.1560
 6949TIP3    H145042   0.084   6.389   7.351  0.1087  0.2733  1.4780
 6949TIP3    H245043   0.006   6.495   7.426 -2.5599  0.2942 -1.1370
 6950TIP3   OH245044   3.623   5.645   5.014 -0.3455 -0.2936  0.3952
 6950TIP3    H145045   3.668   5.722   4.979 -0.9593 -0.5914 -1.1215
 6950TIP3    H245046   3.692   5.596   5.060  0.4928  0.1510 -0.3471
 6951TIP3   OH245047   0.283   2.077   6.271  0.3312  0.1408  0.0235
 6951TIP3    H145048   0.326   2.068   6.186 -0.9919 -2.6120 -0.4393
 6951TIP3    H245049   0.346   2.040   6.333  0.5693  0.5320  0.0204
 6952TIP3   OH245050   2.941   1.056   5.745  0.4166  0.1679  0.0822
 6952TIP3    H145051   2.997   1.120   5.790 -0.6009  0.1436  1.4469
 6952TIP3    H245052   2.930   0.985   5.808 -1.6458  0.4645  0.1269
 6953TIP3   OH245053   3.964   4.738   5.470  0.0180 -0.3326 -0.3329
 6953TIP3    H145054   3.983   4.831   5.480  1.4618 -0.3878 -1.9592
 6953TIP3    H245055   3.884   4.735   5.417  1.2478  0.0736 -2.3294
 6954TIP3   OH245056   5.917   6.516   7.713  0.2508  0.4363  0.3812
 6954TIP3    H145057   5.841   6.493   7.658  1.2175  0.8906 -1.2247
 6954TIP3    H245058   5.971   6.437   7.712  0.2845  0.4564  0.6742
 6955TIP3   OH245059   1.805   5.406   8.045 -0.0276 -0.1677  0.4650
 6955TIP3    H145060   1.840   5.493   8.065 -0.7855 -0.2090  2.1816
 6955TIP3    H245061   1.883   5.351   8.034  0.4816  0.1880  2.0472
 6956TIP3   OH245062   2.952   2.266   7.655 -0.3527 -0.0948 -0.0746
 6956TIP3    H145063   3.039   2.232   7.676 -0.2496 -0.3581 -0.8775
 6956TIP3    H245064   2.961   2.298   7.565 -1.0936 -0.1525 -0.1703
 6957TIP3   OH245065   3.169   3.270   7.513 -0.4949  0.3638 -0.3678
 6957TIP3    H145066   3.239   3.331   7.536 -1.6165  1.3998  0.4080
 6957TIP3    H245067   3.106   3.276   7.585  0.1737 -3.0904  0.6921
 6958TIP3   OH245068   0.049   4.505   5.587  0.3012 -0.7162  0.2465
 6958TIP3    H145069   0.135   4.510   5.628  0.6161  0.7553 -0.5207
 6958TIP3    H245070   0.024   4.413   5.594  3.2171 -1.8498 -1.9928
 6959TIP3   OH245071   3.165   5.469   5.773  0.6200  0.4760  0.4961
 6959TIP3    H145072   3.261   5.467   5.769  0.6923 -0.6801  1.9261
 6959TIP3    H245073   3.137   5.396   5.719  0.5296  0.7902  0.1106
 6960TIP3   OH245074   3.505   0.458   6.620 -0.3814 -0.3498 -0.5735
 6960TIP3    H145075   3.486   0.468   6.527  0.3524  0.9158 -0.5982
 6960TIP3    H245076   3.441   0.393   6.650  0.7655 -2.4395 -2.3791
 6961TIP3   OH245077   3.057   5.745   5.713  0.1014 -0.2214  0.2860
 6961TIP3    H145078   2.988   5.742   5.647 -0.8340 -1.3307  1.2780
 6961TIP3    H245079   3.114   5.672   5.691 -0.1996 -0.5792  0.6821
 6962TIP3   OH245080   2.306   2.478   6.682 -0.8859 -0.5781 -0.3427
 6962TIP3    H145081   2.332   2.570   6.679  0.6063 -0.9954 -0.6623
 6962TIP3    H245082   2.227   2.478   6.737 -0.1343  0.7206  0.8110
 6963TIP3   OH245083   5.424   5.337   5.905 -0.2455  0.2946  0.1771
 6963TIP3    H145084   5.344   5.330   5.853  0.2982  0.5437 -0.7014
 6963TIP3    H245085   5.431   5.429   5.928  0.2196  0.4207 -0.4479
 6964TIP3   OH245086   2.452   0.795   6.317 -0.4708 -0.8000  0.2858
 6964TIP3    H145087   2.466   0.759   6.405  0.7511  2.1706  1.4404
 6964TIP3    H245088   2.363   0.829   6.318 -0.7983 -1.6323  0.0118
 6965TIP3   OH245089   4.355   5.163   7.648 -0.1664  0.1961  0.0882
 6965TIP3    H145090   4.268   5.123   7.659  0.2418 -0.6833  0.1587
 6965TIP3    H245091   4.350   5.206   7.562 -0.7118  0.2749  0.1499
 6966TIP3   OH245092   1.098   2.479   7.873 -0.2557  0.5558 -0.0663
 6966TIP3    H145093   1.086   2.535   7.950  0.5332  2.9133 -1.5549
 6966TIP3    H245094   1.180   2.432   7.890 -0.5371  0.3759  0.8841
 6967TIP3   OH245095   4.566   5.228   7.113 -0.2391  0.0669 -0.5338
 6967TIP3    H145096   4.526   5.276   7.041 -0.7132 -0.8574 -0.8982
 6967TIP3    H245097   4.659   5.229   7.094 -0.3123  0.2591 -0.8914
 6968TIP3   OH245098   3.922   4.432   6.108 -0.6234  0.1676  0.1589
 6968TIP3    H145099   3.914   4.485   6.029 -1.3764 -0.8740 -0.4907
 6968TIP3    H245100   3.832   4.426   6.143 -0.3016  0.6308  1.1065
 6969TIP3   OH245101   0.502   0.571   5.988  0.3470 -0.0090  0.3979
 6969TIP3    H145102   0.501   0.666   6.003  1.8985  0.1108 -0.0612
 6969TIP3    H245103   0.449   0.559   5.909  0.0004  0.4668  0.5551
 6970TIP3   OH245104   4.435   0.530   8.622 -0.1511 -0.4882  0.1267
 6970TIP3    H145105   4.523   0.566   8.628 -0.5457  0.9598 -1.8962
 6970TIP3    H245106   4.448   0.438   8.597  0.7756 -0.7412  1.4476
 6971TIP3   OH245107   4.018   4.814   5.746  0.2823 -0.2021  0.2401
 6971TIP3    H145108   4.021   4.766   5.664  0.9325 -1.1395  0.8010
 6971TIP3    H245109   4.050   4.902   5.724 -0.8549 -0.0101 -0.7776
 6972TIP3   OH245110   2.161   4.768   5.890  0.5804  0.2248 -0.0898
 6972TIP3    H145111   2.083   4.808   5.851  0.9876  2.1467  0.9397
 6972TIP3    H245112   2.235   4.811   5.847  1.0939 -0.9218 -0.3982
 6973TIP3   OH245113   0.227   5.535   5.650  0.2382 -0.4047 -0.1258
 6973TIP3    H145114   0.148   5.500   5.610 -0.0009 -0.1376  0.1052
 6973TIP3    H245115   0.203   5.551   5.741  0.2148  0.7118 -0.3084
 6974TIP3   OH245116   3.603   1.044   7.840 -0.1612  0.4756 -0.4650
 6974TIP3    H145117   3.681   0.994   7.818  0.9431  0.8322  2.2799
 6974TIP3    H245118   3.563   0.996   7.912 -0.4158  2.1978  0.6062
 6975TIP3   OH245119   0.438   4.590   7.824  0.4453 -0.2145  0.0901
 6975TIP3    H145120   0.356   4.625   7.859 -0.5808 -1.4394 -0.9546
 6975TIP3    H245121   0.436   4.497   7.848  0.3047 -0.8204 -2.0095
 6976TIP3   OH245122   4.993   3.516   6.397  0.4272 -0.0534 -1.0568
 6976TIP3    H145123   4.968   3.606   6.378 -1.3864  0.4545  2.8238
 6976TIP3    H245124   5.085   3.522   6.425  0.0586  0.8188  0.0631
 6977TIP3   OH245125   0.957   4.272   8.602  0.1960  0.7433  0.0212
 6977TIP3    H145126   1.046   4.237   8.605 -1.0218 -2.6802 -0.2610
 6977TIP3    H245127   0.946   4.300   8.511  0.9010  0.9874  0.0052
 6978TIP3   OH245128   6.235   3.590   7.907  0.1753 -0.9909  0.1350
 6978TIP3    H145129   6.322   3.606   7.869  0.8498 -1.8800  1.2328
 6978TIP3    H245130   6.225   3.495   7.903 -0.7525 -0.8902  0.0166
 6979TIP3   OH245131   5.074   5.304   5.246  0.0101  0.2991 -0.3008
 6979TIP3    H145132   4.986   5.288   5.212 -1.0314  1.8546  1.4240
 6979TIP3    H245133   5.116   5.218   5.246 -0.8644 -0.1909 -2.7952
 6980TIP3   OH245134   5.796   3.910   6.337  0.2397 -0.1804  0.0498
 6980TIP3    H145135   5.753   3.825   6.344 -0.2732 -0.0795 -1.5050
 6980TIP3    H245136   5.796   3.944   6.427 -2.4261 -0.4642  0.2530
 6981TIP3   OH245137   2.535   6.571   7.190 -0.4398 -0.4380  0.1028
 6981TIP3    H145138   2.570   6.487   7.162 -2.3268 -0.8382 -1.2872
 6981TIP3    H245139   2.609   6.616   7.231  2.1323 -0.5791 -3.8469
 6982TIP3   OH245140   5.970   3.487   6.390 -0.2858 -0.1269 -0.0741
 6982TIP3    H145141   6.018   3.438   6.324 -1.4100 -1.1669 -0.1618
 6982TIP3    H245142   5.919   3.421   6.437 -1.3425  0.8740  0.2415
 6983TIP3   OH245143   3.648   6.551   6.148 -0.1082  0.4336 -0.0852
 6983TIP3    H145144   3.710   6.620   6.173  0.5836  0.0298 -0.6545
 6983TIP3    H245145   3.702   6.473   6.138 -0.4781  0.3743 -1.9304
 6984TIP3   OH245146   0.990   4.001   6.142 -0.2246 -0.6745 -0.1553
 6984TIP3    H145147   0.942   4.011   6.061  2.0053  1.5346 -1.3545
 6984TIP3    H245148   0.979   4.085   6.187  1.4209 -0.5344  0.0741
 6985TIP3   OH245149   1.356   4.040   6.101 -0.4195 -0.7980  0.7698
 6985TIP3    H145150   1.302   4.047   6.179 -2.1218  0.4614 -0.4377
 6985TIP3    H245151   1.299   4.069   6.029  1.7998  0.4351 -0.6173
 6986TIP3   OH245152   3.284   5.177   7.877  0.5399 -0.3164 -0.2203
 6986TIP3    H145153   3.245   5.216   7.799  0.8688  2.2206  0.7762
 6986TIP3    H245154   3.373   5.155   7.851  0.3626 -0.3390 -0.8131
 6987TIP3   OH245155   1.129   0.851   7.012 -0.7882 -0.0797  0.7288
 6987TIP3    H145156   1.050   0.826   7.059 -0.7629  1.1096  1.4522
 6987TIP3    H245157   1.140   0.944   7.032  0.6144 -0.1487  0.3663
 6988TIP3   OH245158   1.809   1.766   8.464  0.2294 -0.1165 -0.2362
 6988TIP3    H145159   1.829   1.687   8.515  1.4124  1.3273  1.6608
 6988TIP3    H245160   1.869   1.761   8.389 -1.1717 -2.0046 -1.3323
 6989TIP3   OH245161   5.500   3.801   5.901  0.0638  0.0277 -0.3471
 6989TIP3    H145162   5.533   3.880   5.944  1.8496 -0.4202 -0.8373
 6989TIP3    H245163   5.570   3.775   5.842 -0.7430 -1.6091 -0.6276
 6990TIP3   OH245164   3.356   4.511   6.979  0.3717  0.3092 -0.2169
 6990TIP3    H145165   3.442   4.497   7.018  0.2321 -1.7001 -0.5045
 6990TIP3    H245166   3.358   4.460   6.898 -1.9481 -2.0787  1.0921
 6991TIP3   OH245167   1.618   5.556   8.358  0.5680  0.0431 -0.2145
 6991TIP3    H145168   1.695   5.573   8.412  0.6678 -1.4435  0.1285
 6991TIP3    H245169   1.603   5.639   8.312  1.1590  0.9735  1.2194
 6992TIP3   OH245170   5.838   0.231   7.062  0.3751  0.1886  0.1192
 6992TIP3    H145171   5.905   0.182   7.014 -0.2537  1.0766 -1.7955
 6992TIP3    H245172   5.756   0.187   7.039 -0.0137  1.0803 -0.2450
 6993TIP3   OH245173   4.156   0.441   7.911 -0.6961 -0.2783 -0.3177
 6993TIP3    H145174   4.101   0.440   7.989  0.4460 -1.1604  0.5077
 6993TIP3    H245175   4.236   0.396   7.937  0.3552  0.7835 -1.5435
 6994TIP3   OH245176   5.260   1.767   7.461  0.4391 -0.2593 -0.2839
 6994TIP3    H145177   5.216   1.685   7.437  1.1616 -1.2288  1.5458
 6994TIP3    H245178   5.305   1.747   7.542 -2.0259  2.8588  2.0913
 6995TIP3   OH245179   4.571   4.309   6.329 -0.3975 -0.7763 -0.2577
 6995TIP3    H145180   4.517   4.366   6.384  0.1601 -0.4028 -0.0931
 6995TIP3    H245181   4.612   4.368   6.266  1.8497 -0.6365  1.2274
 6996TIP3   OH245182   6.008   1.682   6.410 -0.0996  0.2565 -0.0613
 6996TIP3    H145183   5.936   1.619   6.406 -0.1319  0.3121 -0.3632
 6996TIP3    H245184   5.978   1.756   6.357 -0.6740  1.1615  1.4573
 6997TIP3   OH245185   5.186   1.689   8.118 -0.0370 -0.5766 -0.0838
 6997TIP3    H145186   5.100   1.664   8.150 -0.0298 -0.7502 -0.1975
 6997TIP3    H245187   5.205   1.626   8.048  0.2223 -0.6006  0.0050
 6998TIP3   OH245188   3.423   1.555   6.910  0.9205  0.0172  0.3581
 6998TIP3    H145189   3.334   1.587   6.928  0.1684 -2.5165  1.5075
 6998TIP3    H245190   3.427   1.550   6.815  0.6885  2.2596  0.1634
 6999TIP3   OH245191   6.555   1.554   6.027 -0.0688 -0.2410 -0.5364
 6999TIP3    H145192   6.478   1.560   6.083  1.0080 -1.7918  1.2283
 6999TIP3    H245193   6.530   1.491   5.959 -0.4047 -0.6501 -0.0448
 7000TIP3   OH245194   4.294   0.714   8.479 -0.4326 -0.5112  0.0996
 7000TIP3    H145195   4.341   0.668   8.549  0.6785 -0.4196 -0.5725
 7000TIP3    H245196   4.296   0.806   8.506 -0.6587 -0.5654  0.3082
 7001TIP3   OH245197   1.423   1.617   9.154 -0.1807 -0.0675 -0.1576
 7001TIP3    H145198   1.392   1.584   9.069  0.4262 -0.1910 -0.3378
 7001TIP3    H245199   1.349   1.665   9.190 -0.7812 -0.8859 -0.2917
 7002TIP3   OH245200   1.257   2.757   7.008 -0.6202  0.0576  0.0170
 7002TIP3    H145201   1.198   2.747   6.933 -0.5740 -1.0860  0.1185
 7002TIP3    H245202   1.339   2.718   6.979  0.4092  2.3944 -0.4262
 7003TIP3   OH245203   2.849   1.800   6.895 -0.4076 -0.9003 -0.3573
 7003TIP3    H145204   2.761   1.789   6.861 -0.1651 -0.0934 -1.2978
 7003TIP3    H245205   2.895   1.719   6.872 -0.6416 -0.9299 -0.7229
 7004TIP3   OH245206   3.165   1.688   7.667  0.4241 -0.0781 -0.0300
 7004TIP3    H145207   3.216   1.727   7.595  0.0269 -1.0946 -0.8927
 7004TIP3    H245208   3.228   1.678   7.738  1.0052  0.2842 -0.4798
 7005TIP3   OH245209   1.402   2.413   7.600  0.3006  0.5514 -0.0198
 7005TIP3    H145210   1.389   2.384   7.690  3.7935  0.3492  0.5724
 7005TIP3    H245211   1.432   2.504   7.608  0.3327  0.6429 -0.9952
 7006TIP3   OH245212   2.104   2.362   8.880 -0.3700  0.0982  0.4566
 7006TIP3    H145213   2.050   2.439   8.899 -0.3217 -0.1071  1.4985
 7006TIP3    H245214   2.174   2.394   8.823 -0.3558  0.8244  0.8786
 7007TIP3   OH245215   3.813   0.272   6.742  0.2126  0.2048  0.0098
 7007TIP3    H145216   3.885   0.226   6.785 -1.0781 -1.8804  0.0944
 7007TIP3    H245217   3.808   0.357   6.786  1.6032 -0.2194  1.0466
 7008TIP3   OH245218   3.308   1.735   6.183  0.0790 -0.1966 -0.1431
 7008TIP3    H145219   3.227   1.690   6.159  0.1097  0.9586 -2.7566
 7008TIP3    H245220   3.286   1.828   6.177  1.1646  0.1422  0.8418
 7009TIP3   OH245221   0.257   1.468   7.169 -0.4460 -0.2485  0.5887
 7009TIP3    H145222   0.212   1.530   7.225 -0.2638 -0.0473  0.5106
 7009TIP3    H245223   0.332   1.438   7.219 -0.4708 -0.3230  0.5830
 7010TIP3   OH245224   2.034   4.797   7.254  0.0964 -0.1043 -0.2608
 7010TIP3    H145225   2.024   4.828   7.344 -0.6476  0.1835 -0.4375
 7010TIP3    H245226   2.103   4.731   7.259  0.5468  0.4049  0.4012
 7011TIP3   OH245227   4.826   1.442   7.178  0.5348 -0.7437 -0.5145
 7011TIP3    H145228   4.901   1.395   7.215  0.5483 -0.8802 -0.7132
 7011TIP3    H245229   4.856   1.470   7.092  0.9855  0.7778  0.1174
 7012TIP3   OH245230   2.078   4.580   8.587  0.1962 -0.2233  0.2865
 7012TIP3    H145231   2.057   4.668   8.617 -1.1552 -0.5076  0.2082
 7012TIP3    H245232   2.049   4.578   8.496 -0.2506 -0.9013  0.4377
 7013TIP3   OH245233   1.556   1.278   5.754  0.1537  0.2235 -0.4558
 7013TIP3    H145234   1.488   1.211   5.754  0.5921 -0.2353  0.7016
 7013TIP3    H245235   1.622   1.246   5.693  1.1512 -1.2574  1.3099
 7014TIP3   OH245236   0.117   1.986   7.022  0.2303 -0.1824 -0.4564
 7014TIP3    H145237   0.054   2.058   7.027  0.9950  0.4643 -0.1196
 7014TIP3    H245238   0.174   2.008   6.950 -1.0669 -1.7281 -2.0672
 7015TIP3   OH245239   2.562   2.920   7.080 -0.4109 -0.1012 -0.3243
 7015TIP3    H145240   2.601   2.833   7.088  0.2295  0.2159  0.0983
 7015TIP3    H245241   2.477   2.912   7.122  0.2534 -0.1566  1.0951
 7016TIP3   OH245242   5.137   6.302   6.236 -0.5165 -0.3517  0.2586
 7016TIP3    H145243   5.150   6.360   6.312  0.8560 -0.0352 -0.1937
 7016TIP3    H245244   5.107   6.361   6.167 -0.9812 -0.5127  0.3165
 7017TIP3   OH245245   1.039   3.687   6.540 -0.5033 -0.2339  0.0748
 7017TIP3    H145246   0.951   3.712   6.569 -0.8010 -1.4545  0.3022
 7017TIP3    H245247   1.030   3.675   6.445 -0.5258 -0.1095  0.0613
 7018TIP3   OH245248   0.446   0.287   6.160 -0.0634  0.7454 -0.2452
 7018TIP3    H145249   0.400   0.348   6.216  0.2037  0.9874 -0.2877
 7018TIP3    H245250   0.503   0.342   6.106  0.5819  0.4183  0.0987
 7019TIP3   OH245251   0.691   4.210   6.647  0.1969 -0.0184  0.3366
 7019TIP3    H145252   0.733   4.203   6.733  0.1141  0.3816  0.4116
 7019TIP3    H245253   0.626   4.140   6.646  1.9848 -1.7798 -0.4322
 7020TIP3   OH245254   6.662   3.321   7.823  0.2626 -0.2637 -0.1348
 7020TIP3    H145255   6.607   3.251   7.858  0.5958 -0.4225  0.0774
 7020TIP3    H245256   6.736   3.276   7.783  0.7226 -0.0099  0.4305
 7021TIP3   OH245257   4.290   5.149   7.033 -0.1861 -0.0479 -0.0621
 7021TIP3    H145258   4.257   5.075   6.983 -0.9603  1.1476 -1.4335
 7021TIP3    H245259   4.383   5.132   7.044 -0.2111 -0.8537 -1.0157
 7022TIP3   OH245260   3.215   3.632   5.439  0.7555 -0.9410  0.6603
 7022TIP3    H145261   3.296   3.637   5.491  1.2940 -2.0683 -0.0212
 7022TIP3    H245262   3.225   3.700   5.373  0.8645 -0.6671  0.9535
 7023TIP3   OH245263   5.118   6.331   7.970 -0.8658  0.3910 -0.5658
 7023TIP3    H145264   5.098   6.379   7.889 -1.2303  1.6597  0.2398
 7023TIP3    H245265   5.033   6.319   8.012 -0.6241  0.2114 -0.1198
 7024TIP3   OH245266   4.629   2.170   6.959 -0.7515 -0.4284 -0.0565
 7024TIP3    H145267   4.672   2.120   6.889  1.3173  0.3385  0.6182
 7024TIP3    H245268   4.593   2.103   7.018 -0.5398 -1.0825 -0.6567
 7025TIP3   OH245269   1.622   1.947   6.989  0.2623 -0.0952 -0.8337
 7025TIP3    H145270   1.600   1.870   6.936 -1.1015  0.1206 -0.6297
 7025TIP3    H245271   1.704   1.924   7.032 -1.3196 -2.5069  1.2092
 7026TIP3   OH245272   5.999   4.586   8.250 -0.0352  0.0286 -0.1122
 7026TIP3    H145273   5.987   4.562   8.342  1.2171 -0.4654 -0.0558
 7026TIP3    H245274   5.923   4.640   8.229 -0.7141 -0.4611  0.9982
 7027TIP3   OH245275   4.439   3.371   6.653 -0.0197 -0.3206  0.4838
 7027TIP3    H145276   4.444   3.276   6.642  1.0382 -0.1529 -0.6799
 7027TIP3    H245277   4.456   3.385   6.747 -2.1457 -1.3711  1.0921
 7028TIP3   OH245278   6.489   2.917   6.277 -0.5110  0.1479 -0.3628
 7028TIP3    H145279   6.535   2.850   6.226 -0.9862  0.5035 -1.2858
 7028TIP3    H245280   6.557   2.981   6.299 -0.4606  0.4384 -1.3232
 7029TIP3   OH245281   1.726   0.731   5.461 -0.7076 -0.5979  0.0832
 7029TIP3    H145282   1.748   0.649   5.506 -3.2587  1.2807  5.8008
 7029TIP3    H245283   1.644   0.712   5.415  0.3610 -1.8655 -1.4092
 7030TIP3   OH245284   0.037   3.498   6.859 -0.4495 -0.1857  0.2478
 7030TIP3    H145285   0.061   3.578   6.906 -0.0133 -0.5498  0.6530
 7030TIP3    H245286  -0.038   3.523   6.805 -0.4997  0.4180  0.5957
 7031TIP3   OH245287   5.775   0.055   5.546 -0.1569 -0.3471 -0.2954
 7031TIP3    H145288   5.732   0.106   5.477  1.7370  1.6903 -0.1130
 7031TIP3    H245289   5.729   0.080   5.627  1.3096  1.9546 -0.0711
 7032TIP3   OH245290   6.307   4.239   7.772  0.1300  0.3334  0.6424
 7032TIP3    H145291   6.298   4.258   7.865 -0.0680 -0.7589  0.8515
 7032TIP3    H245292   6.245   4.168   7.755  0.0364  0.6346 -0.3611
 7033TIP3   OH245293   3.620   4.523   7.123 -0.4414  0.3097 -0.1797
 7033TIP3    H145294   3.711   4.519   7.093 -0.8354  1.0837 -1.5579
 7033TIP3    H245295   3.594   4.432   7.132  1.1699  0.0004  2.6333
 7034TIP3   OH245296   4.761   1.133   7.328  0.0469 -0.2259 -0.0524
 7034TIP3    H145297   4.850   1.163   7.342  0.0286 -0.7541  1.3758
 7034TIP3    H245298   4.707   1.212   7.334  0.3797  0.0333 -0.4990
 7035TIP3   OH245299   1.226   3.682   9.010  0.3566  0.4182 -0.1723
 7035TIP3    H145300   1.279   3.723   9.078  1.3081 -0.5620 -0.2870
 7035TIP3    H245301   1.265   3.595   8.998  1.0434  0.9989 -2.8384
 7036TIP3   OH245302   5.648   4.817   7.342 -0.4865 -0.0060  0.1303
 7036TIP3    H145303   5.603   4.735   7.319 -0.0296 -0.1114 -0.3915
 7036TIP3    H245304   5.735   4.790   7.371 -0.7342  0.2028  1.1224
 7037TIP3   OH245305   2.761   6.574   8.245  0.1951  0.3685 -0.3268
 7037TIP3    H145306   2.774   6.509   8.176 -0.2815 -0.6259  0.4825
 7037TIP3    H245307   2.849   6.597   8.274  0.3618 -0.5766 -0.0507
 7038TIP3   OH245308   5.882   0.816  16.123  0.4971  0.3710 -0.2681
 7038TIP3    H145309   5.806   0.803  16.066  0.1375  0.5518  0.1570
 7038TIP3    H245310   5.936   0.879  16.076 -0.5040  1.6570  0.2230
 7039TIP3   OH245311   5.793   4.785   6.300 -0.0696  0.4995  0.0591
 7039TIP3    H145312   5.751   4.867   6.275  1.1158  0.8304 -0.9902
 7039TIP3    H245313   5.884   4.794   6.269  0.2115 -1.0182  0.3363
 7040TIP3   OH245314   2.662   0.722   7.815  0.0799 -0.2863  0.9456
 7040TIP3    H145315   2.752   0.753   7.817  0.3171 -0.6956 -1.2898
 7040TIP3    H245316   2.663   0.648   7.754 -1.7673 -0.3182  0.8981
 7041TIP3   OH245317   0.313   3.021   6.945 -0.9665  0.5436 -0.2611
 7041TIP3    H145318   0.323   3.047   6.854  0.5681  3.9862  0.7078
 7041TIP3    H245319   0.245   3.078   6.980  0.3957  1.3151  1.3231
 7042TIP3   OH245320   4.296   4.587   5.491  0.1903  0.9387 -0.5068
 7042TIP3    H145321   4.289   4.527   5.565  0.0007  2.3443  0.6528
 7042TIP3    H245322   4.234   4.657   5.511  0.6973  1.7348 -1.6169
 7043TIP3   OH245323   6.359   4.981   6.102 -0.1468 -0.0144 -0.7155
 7043TIP3    H145324   6.268   4.961   6.120 -0.1582 -0.3822 -1.1979
 7043TIP3    H245325   6.385   5.039   6.175 -0.6172 -0.3018 -0.3155
 7044TIP3   OH245326   2.424   1.083   5.373 -0.2930 -0.0314 -0.2958
 7044TIP3    H145327   2.360   1.153   5.378 -0.6983 -0.3485 -0.8867
 7044TIP3    H245328   2.372   1.003   5.364  0.1539 -0.4577  0.8033
 7045TIP3   OH245329   5.853   3.695   7.695 -1.2014 -0.4827 -0.1389
 7045TIP3    H145330   5.759   3.676   7.686 -1.3194 -0.2314  0.5099
 7045TIP3    H245331   5.875   3.667   7.783 -1.2356  1.7057  0.6427
 7046TIP3   OH245332   3.488   3.750   6.551 -0.3389 -0.4150  0.0977
 7046TIP3    H145333   3.435   3.672   6.538  0.1260 -0.5220 -1.2705
 7046TIP3    H245334   3.546   3.753   6.475 -1.1624  1.9278 -0.5115
 7047TIP3   OH245335   3.914   3.176   6.416  0.1724 -0.5992 -0.2979
 7047TIP3    H145336   3.911   3.231   6.338 -0.0391 -2.3079 -1.5485
 7047TIP3    H245337   3.909   3.086   6.383 -2.5181 -1.3720  1.7900
 7048TIP3   OH245338   2.432   0.795   7.332  0.1450 -0.1847  0.0059
 7048TIP3    H145339   2.391   0.878   7.355 -0.3927 -0.4882  0.1655
 7048TIP3    H245340   2.407   0.736   7.403  1.2265 -0.2644  0.3300
 7049TIP3   OH245341   0.272   0.416   8.203 -0.0894  0.4588  0.2332
 7049TIP3    H145342   0.215   0.370   8.265  0.7621 -0.1508  0.5784
 7049TIP3    H245343   0.313   0.347   8.152 -0.4692  0.9416 -0.7486
 7050TIP3   OH245344   6.658   0.743   5.506 -0.2928 -0.3949 -0.2706
 7050TIP3    H145345   6.640   0.830   5.470 -0.9226 -0.4365 -0.0637
 7050TIP3    H245346   6.581   0.692   5.484 -0.3603 -0.6279  0.4967
 7051TIP3   OH245347   0.345   0.614   7.301 -0.2234  0.1397  0.3128
 7051TIP3    H145348   0.337   0.590   7.209 -1.3063 -0.7696  0.6260
 7051TIP3    H245349   0.438   0.606   7.320 -0.0611 -0.1789 -0.5660
 7052TIP3   OH245350   6.465   2.176   7.735  0.2836  0.5672  0.3712
 7052TIP3    H145351   6.441   2.084   7.723  0.9393  0.2553  1.3237
 7052TIP3    H245352   6.521   2.197   7.660  1.6034 -0.3475  1.0786
 7053TIP3   OH245353   6.059   4.936   6.177 -0.5895 -0.2104 -0.5493
 7053TIP3    H145354   5.993   4.964   6.115 -0.0985  0.4356 -0.7861
 7053TIP3    H245355   6.082   5.015   6.226  1.1815 -0.0355 -1.5690
 7054TIP3   OH245356   1.795   3.356   5.723 -0.0599 -0.3340 -0.1545
 7054TIP3    H145357   1.740   3.290   5.681 -0.1060  0.2954 -1.1231
 7054TIP3    H245358   1.852   3.306   5.781 -1.7838 -0.9984  1.0633
 7055TIP3   OH245359   6.545   3.111   7.591 -0.1474 -0.0974 -0.3956
 7055TIP3    H145360   6.607   3.069   7.531  1.1976  0.8186  0.2975
 7055TIP3    H245361   6.577   3.201   7.600 -0.5643 -0.0890  1.3405
 7056TIP3   OH245362   0.069   1.098   6.831  0.4101  0.0876  0.0666
 7056TIP3    H145363   0.102   1.164   6.891  0.7307 -0.6782  0.7426
 7056TIP3    H245364   0.138   1.089   6.765  0.1943  0.6961 -0.2572
 7057TIP3   OH245365   3.110   3.687   8.152  0.5758 -0.7198 -0.6661
 7057TIP3    H145366   3.187   3.742   8.139 -0.1579 -0.0412 -2.4102
 7057TIP3    H245367   3.053   3.708   8.078 -0.8824 -1.8886  0.0843
 7058TIP3   OH245368   3.194   5.947   7.022  0.1340 -0.4167  0.4958
 7058TIP3    H145369   3.123   6.007   7.044 -1.7745 -2.4018  0.1567
 7058TIP3    H245370   3.169   5.911   6.936  0.2868 -2.8643  1.3814
 7059TIP3   OH245371   1.142   3.472   6.640  0.0710 -0.3592 -0.0723
 7059TIP3    H145372   1.114   3.561   6.623  0.5525 -0.4819 -1.6697
 7059TIP3    H245373   1.081   3.439   6.706 -1.4792  0.4426 -1.0601
 7060TIP3   OH245374   2.895   5.062   8.187  0.5640  0.2193  0.2624
 7060TIP3    H145375   2.802   5.080   8.176  0.7763  0.9183 -0.5089
 7060TIP3    H245376   2.924   5.032   8.101  0.9750 -0.3315  0.5910
 7061TIP3   OH245377   3.875   3.103   7.726  0.2597 -0.9261  0.3244
 7061TIP3    H145378   3.843   3.149   7.648  1.2874 -2.9664 -1.4138
 7061TIP3    H245379   3.922   3.169   7.776  0.1711  0.3005 -1.1572
 7062TIP3   OH245380   3.380   1.218   6.482 -0.1055 -0.7235  0.6948
 7062TIP3    H145381   3.352   1.142   6.431  1.8662 -0.2866 -1.2060
 7062TIP3    H245382   3.474   1.202   6.498  0.1098  0.8201  1.1569
 7063TIP3   OH245383   2.419   4.026   6.779 -0.0756 -0.1347 -0.0630
 7063TIP3    H145384   2.389   3.987   6.697 -0.4522  1.0211 -0.5026
 7063TIP3    H245385   2.514   4.020   6.775 -0.1340 -3.5052  1.1721
 7064TIP3   OH245386   1.591   5.266   7.271 -0.3751 -0.6478 -0.4904
 7064TIP3    H145387   1.537   5.188   7.265 -1.7719  0.4054 -3.3053
 7064TIP3    H245388   1.647   5.263   7.194 -0.9101  1.3761 -1.0299
 7065TIP3   OH245389   0.674   0.183   5.826 -0.5874  0.0138  0.5228
 7065TIP3    H145390   0.632   0.101   5.798 -0.7468  1.1771 -3.2476
 7065TIP3    H245391   0.600   0.241   5.844 -0.4817 -0.1878  1.6463
 7066TIP3   OH245392   5.314   2.599   7.742 -0.0117  0.1579  1.0638
 7066TIP3    H145393   5.317   2.542   7.819  0.5450  1.1189  1.7687
 7066TIP3    H245394   5.402   2.637   7.736 -0.2003  0.4988  0.2556
 7067TIP3   OH245395   1.402   4.385   7.836  0.9646  0.2039  0.3829
 7067TIP3    H145396   1.438   4.462   7.882  0.7222  0.7546 -0.3316
 7067TIP3    H245397   1.475   4.323   7.834  1.4985  0.8177  0.0704
 7068TIP3   OH245398   0.838   0.088   7.788 -0.0544 -0.2431  0.0487
 7068TIP3    H145399   0.868   0.153   7.851 -1.6635  0.2894  0.3061
 7068TIP3    H245400   0.771   0.038   7.835 -1.1378  0.0290 -1.1577
 7069TIP3   OH245401   3.015   2.151   5.717 -0.1142  0.0427 -0.0097
 7069TIP3    H145402   2.926   2.118   5.730 -1.2047  2.8400  0.3674
 7069TIP3    H245403   3.025   2.156   5.622  0.2783 -1.6484 -0.1048
 7070TIP3   OH245404   5.459   2.563   7.139 -0.0541 -0.0107  0.4423
 7070TIP3    H145405   5.496   2.476   7.153 -1.7351 -0.9579 -0.6949
 7070TIP3    H245406   5.516   2.621   7.189  0.3718 -1.8919  2.2770
 7071TIP3   OH245407   5.970   3.653   6.718  0.3458 -0.6882  0.4406
 7071TIP3    H145408   5.882   3.673   6.687  0.5804  0.5628  0.5322
 7071TIP3    H245409   6.001   3.735   6.757  1.6592 -1.0171  0.1433
 7072TIP3   OH245410   5.285   3.622   6.432 -0.4820  0.7613 -0.4855
 7072TIP3    H145411   5.300   3.708   6.394  0.9196  1.1459  0.8856
 7072TIP3    H245412   5.328   3.624   6.517 -0.1456 -1.3847 -0.5335
 7073TIP3   OH245413   2.229   5.425   6.060  0.7811 -0.0721  0.2683
 7073TIP3    H145414   2.278   5.479   5.998  0.3897  0.2098  0.2021
 7073TIP3    H245415   2.216   5.480   6.136 -1.4654  0.7226 -0.6039
 7074TIP3   OH245416   1.317   5.667   8.097  0.0818  0.3848  0.5960
 7074TIP3    H145417   1.298   5.627   8.182 -1.0833  1.0506  0.6645
 7074TIP3    H245418   1.296   5.760   8.109 -0.8281  0.3562 -0.6353
 7075TIP3   OH245419   5.087   3.469   5.735  0.3563 -0.0803  0.1744
 7075TIP3    H145420   5.014   3.525   5.710  1.1996  0.8950 -0.2229
 7075TIP3    H245421   5.047   3.387   5.762 -0.8048 -0.0973 -1.4176
 7076TIP3   OH245422   1.687   5.323   8.269 -0.2727 -0.3659  0.1173
 7076TIP3    H145423   1.739   5.337   8.190  0.9465 -1.9521  0.5826
 7076TIP3    H245424   1.664   5.411   8.300  1.3352  0.3428 -0.6368
 7077TIP3   OH245425   6.471   5.812   7.410 -0.4904  0.3541  0.4092
 7077TIP3    H145426   6.386   5.775   7.435 -0.8275  1.2226  0.5807
 7077TIP3    H245427   6.478   5.798   7.316 -0.5982 -0.1605  0.4758
 7078TIP3   OH245428   5.814   4.096   8.813  0.1396  0.4718 -0.5809
 7078TIP3    H145429   5.721   4.116   8.818  0.0426 -0.0519 -0.2123
 7078TIP3    H245430   5.819   4.015   8.763  0.3145 -0.0632  0.2898
 7079TIP3   OH245431   4.051   4.581   7.641 -0.5154 -0.5689 -0.6410
 7079TIP3    H145432   4.019   4.595   7.552 -1.2050  0.7801 -0.2050
 7079TIP3    H245433   4.058   4.669   7.678 -1.4064 -1.1769  1.0444
 7080TIP3   OH245434   3.445   3.429   5.951 -0.0762 -0.0143  0.0946
 7080TIP3    H145435   3.520   3.487   5.969  1.0194 -1.8020  1.6167
 7080TIP3    H245436   3.369   3.479   5.979  0.6347  1.4019 -0.3762
 7081TIP3   OH245437   0.311   2.570   8.532 -0.0545  0.3003 -0.2329
 7081TIP3    H145438   0.283   2.660   8.552 -0.4969  0.2506 -0.6215
 7081TIP3    H245439   0.251   2.515   8.582 -0.1526  0.2106 -0.4481
 7082TIP3   OH245440   0.827   2.069   7.371  0.4289 -0.1561 -0.0110
 7082TIP3    H145441   0.917   2.100   7.359 -0.2366  1.6280 -0.9089
 7082TIP3    H245442   0.778   2.148   7.396 -1.4572 -0.3005 -2.7433
 7083TIP3   OH245443   0.649   4.704   5.522 -0.4320 -0.4934  0.2899
 7083TIP3    H145444   0.621   4.613   5.510  0.3743 -0.6941 -0.1692
 7083TIP3    H245445   0.580   4.756   5.481 -1.2882 -0.8546  1.2530
 7084TIP3   OH245446   2.000   0.520   7.891  0.1656  0.0328 -0.0584
 7084TIP3    H145447   2.051   0.565   7.823  0.6536  0.2271  0.4236
 7084TIP3    H245448   2.048   0.439   7.906 -0.6941 -0.6538 -0.8995
 7085TIP3   OH245449   2.337   2.210   7.505 -0.7695  0.1874 -0.1376
 7085TIP3    H145450   2.249   2.202   7.467  0.2866 -0.3321 -2.7003
 7085TIP3    H245451   2.387   2.141   7.462  1.3313  1.6293 -0.1344
 7086TIP3   OH245452   2.774   0.555   6.584 -1.0620 -0.1589  0.4806
 7086TIP3    H145453   2.753   0.518   6.670  0.0929 -0.3470  0.7001
 7086TIP3    H245454   2.814   0.482   6.536 -1.2246  0.0867 -0.0356
 7087TIP3   OH245455   2.089   0.415   8.516  0.0280 -0.2193  0.3801
 7087TIP3    H145456   2.157   0.468   8.475 -1.2072  1.3337  0.2134
 7087TIP3    H245457   2.133   0.370   8.589  1.2128  0.7568  0.2916
 7088TIP3   OH245458   1.966   3.907   6.361  0.5318  0.6499 -0.6057
 7088TIP3    H145459   1.939   3.817   6.342 -3.8168  1.5631 -0.0013
 7088TIP3    H245460   2.004   3.903   6.449 -0.3725 -0.5317 -0.2394
 7089TIP3   OH245461   0.435   4.922   5.470  0.3511  0.1903 -0.2059
 7089TIP3    H145462   0.404   4.923   5.560  0.3692 -0.5383 -0.1790
 7089TIP3    H245463   0.440   5.014   5.444 -1.5032  0.3543 -0.1063
 7090TIP3   OH245464   6.428   5.290   8.529  0.1260 -0.4639  0.2592
 7090TIP3    H145465   6.379   5.303   8.611  0.6920  1.4692  0.3493
 7090TIP3    H245466   6.518   5.276   8.557  0.3944  0.6250 -0.0210
 7091TIP3   OH245467   6.621   0.749   8.129 -0.2682  0.9941 -0.2373
 7091TIP3    H145468   6.661   0.663   8.122 -2.4014 -0.1088  0.3363
 7091TIP3    H245469   6.652   0.796   8.051  2.3702  0.3986  0.3554
 7092TIP3   OH245470   4.438   4.178   6.113 -0.3769 -0.4033  0.4087
 7092TIP3    H145471   4.486   4.196   6.194 -0.4596  0.8924  0.1977
 7092TIP3    H245472   4.357   4.230   6.121 -1.4486 -2.0133  0.4571
 7093TIP3   OH245473   0.555   0.864   7.815 -0.0050 -0.4446  0.7221
 7093TIP3    H145474   0.588   0.815   7.891  0.8585  1.2052  1.4786
 7093TIP3    H245475   0.460   0.867   7.827 -0.1534 -2.4639  0.2902
 7094TIP3   OH245476   1.364   6.120   5.643  0.1781 -0.1059 -0.2235
 7094TIP3    H145477   1.416   6.047   5.677  0.0467 -0.2450 -0.3127
 7094TIP3    H245478   1.410   6.199   5.671 -0.0442 -0.2152  0.4532
 7095TIP3   OH245479   0.958   1.236   6.130 -0.0940  0.4918 -0.0250
 7095TIP3    H145480   0.906   1.317   6.132 -1.2442 -0.2268  1.0297
 7095TIP3    H245481   0.897   1.168   6.159  1.4577 -0.3860  1.3873
 7096TIP3   OH245482   0.115   0.725   6.605 -0.2982 -0.2410  0.5009
 7096TIP3    H145483   0.185   0.663   6.581 -1.4305 -1.8471  1.1270
 7096TIP3    H245484   0.155   0.811   6.596  1.3763 -1.0546 -0.3779
 7097TIP3   OH245485   1.169   2.545   6.838  0.1145 -0.6175 -0.2959
 7097TIP3    H145486   1.230   2.472   6.835  1.5891  0.1631  3.8358
 7097TIP3    H245487   1.121   2.534   6.921 -3.1270  0.5974 -1.8153
 7098TIP3   OH245488   5.009   0.828   5.730  0.1383  0.2694 -0.6098
 7098TIP3    H145489   5.069   0.877   5.674  0.4887 -0.7635 -1.1793
 7098TIP3    H245490   5.034   0.852   5.819 -0.3351  1.8276 -0.8693
 7099TIP3   OH245491   1.528   1.314   8.963  0.6254 -0.1296 -0.3168
 7099TIP3    H145492   1.572   1.321   9.048  0.9737  3.2517 -0.6519
 7099TIP3    H245493   1.548   1.225   8.933  2.2144 -0.7211  2.1818
 7100TIP3   OH245494   6.245   1.522   6.459 -0.3983 -0.4410 -0.1955
 7100TIP3    H145495   6.310   1.576   6.503  0.3799  0.5610 -2.4507
 7100TIP3    H245496   6.163   1.571   6.467 -0.0609  0.2135 -0.6688
 7101TIP3   OH245497   3.741   6.572   5.525  0.1648 -0.0343  0.0844
 7101TIP3    H145498   3.716   6.481   5.507  0.0562  0.2545 -1.3523
 7101TIP3    H245499   3.837   6.571   5.522  0.1460  0.0463 -0.7999
 7102TIP3   OH245500   3.038   5.379   6.067  0.0417 -0.0422 -0.2443
 7102TIP3    H145501   3.106   5.315   6.085  0.2428  0.0930 -0.5135
 7102TIP3    H245502   3.029   5.379   5.972  0.2215  0.5034 -0.2684
 7103TIP3   OH245503   2.207   2.916   9.210  0.0411  0.0677  0.1701
 7103TIP3    H145504   2.160   2.973   9.149 -0.0219  0.1729  0.3154
 7103TIP3    H245505   2.138   2.865   9.252  0.1191 -0.3131 -0.1571
 7104TIP3   OH245506   4.904   3.209   7.464  0.1033  0.2066  0.2166
 7104TIP3    H145507   4.836   3.142   7.458 -0.2392  0.5967 -0.3502
 7104TIP3    H245508   4.856   3.292   7.467  0.5507  0.4896 -0.1968
 7105TIP3   OH245509   5.788   4.763   8.208  0.0984  0.1428  0.2582
 7105TIP3    H145510   5.769   4.797   8.295 -0.6805  0.3947 -0.0042
 7105TIP3    H245511   5.703   4.756   8.165  0.2785 -1.7128  0.1329
 7106TIP3   OH245512   4.749   6.290   5.616 -0.3107 -0.3820  0.1792
 7106TIP3    H145513   4.844   6.297   5.621 -0.3954  1.0314  0.1028
 7106TIP3    H245514   4.733   6.208   5.568  0.8369 -1.0192  0.8532
 7107TIP3   OH245515   2.352   2.997   8.548  0.4262  0.0576  0.0251
 7107TIP3    H145516   2.367   2.903   8.538  0.2292  0.1897 -1.9249
 7107TIP3    H245517   2.296   3.004   8.625  2.2164 -1.2065  1.5423
 7108TIP3   OH245518   3.443   5.244   5.694 -0.5649  0.2036  0.3940
 7108TIP3    H145519   3.532   5.277   5.704 -1.2863  2.2758  0.3916
 7108TIP3    H245520   3.409   5.237   5.783 -0.5170 -0.2901  0.3775
 7109TIP3   OH245521   5.060   6.127   8.317  0.2074 -0.4374  0.0753
 7109TIP3    H145522   4.996   6.135   8.246  0.5331  0.4237 -0.1348
 7109TIP3    H245523   5.020   6.066   8.379 -0.9217  0.2584  0.0605
 7110TIP3   OH245524   4.603   0.544   5.930 -0.5277  0.3479  0.3013
 7110TIP3    H145525   4.596   0.562   6.024  1.3738 -1.8879  0.9799
 7110TIP3    H245526   4.639   0.624   5.893 -1.2996  1.2758  1.4750
 7111TIP3   OH245527   1.486   2.052   7.220 -0.5360 -0.4401  0.0198
 7111TIP3    H145528   1.536   2.125   7.258 -1.5473  0.5357 -0.4658
 7111TIP3    H245529   1.534   2.029   7.140 -0.0259 -0.5433  0.3506
 7112TIP3   OH245530   6.118   5.124   5.317  0.5250 -0.5399 -0.0771
 7112TIP3    H145531   6.198   5.075   5.297 -0.0382 -1.2926 -0.4885
 7112TIP3    H245532   6.050   5.084   5.264 -0.0659  0.3364 -0.0104
 7113TIP3   OH245533   2.044   5.417   7.216 -0.5046 -0.1587  0.8590
 7113TIP3    H145534   1.968   5.360   7.203  0.3370 -0.8441 -1.6653
 7113TIP3    H245535   2.116   5.357   7.232 -0.1600  0.3884  1.3946
 7114TIP3   OH245536   1.928   0.000   7.518  0.2554  0.1290  0.0037
 7114TIP3    H145537   1.904  -0.044   7.599  1.9414 -0.8410  0.0014
 7114TIP3    H245538   1.847  -0.002   7.466 -0.4711 -0.4351  1.1070
 7115TIP3   OH245539   5.781   4.749   8.499 -0.0728  0.1198 -0.6879
 7115TIP3    H145540   5.840   4.812   8.541  0.1284  0.5423 -1.5678
 7115TIP3    H245541   5.735   4.707   8.572  0.7161  0.3690 -0.0246
 7116TIP3   OH245542   2.091   3.531   7.681 -0.3591 -0.1972  0.0251
 7116TIP3    H145543   2.178   3.493   7.686 -0.6902 -0.8123  1.5705
 7116TIP3    H245544   2.102   3.609   7.625  0.8927 -0.9576 -0.8453
 7117TIP3   OH245545   0.263   4.278   8.062  0.2637 -0.4025 -0.3533
 7117TIP3    H145546   0.281   4.372   8.054  0.4460 -0.5147 -1.3446
 7117TIP3    H245547   0.217   4.256   7.982 -2.2790 -0.6134  1.0699
 7118TIP3   OH245548   4.660   6.362   8.264 -0.9682  0.3114 -0.1160
 7118TIP3    H145549   4.601   6.438   8.261 -2.0990 -0.5699 -1.5263
 7118TIP3    H245550   4.618   6.297   8.208  0.3278 -1.1197  0.5065
 7119TIP3   OH245551   6.207   5.670   8.078 -0.3878  0.2470 -0.1450
 7119TIP3    H145552   6.294   5.683   8.042  0.5993  0.8949  2.2858
 7119TIP3    H245553   6.155   5.741   8.040  0.3155  0.3223 -1.0062
 7120TIP3   OH245554   4.178   0.128   7.151 -0.1032  0.1110  0.2780
 7120TIP3    H145555   4.213   0.139   7.239  1.5199 -1.5577 -0.0853
 7120TIP3    H245556   4.256   0.128   7.094 -1.0821  0.8003 -1.1277
 7121TIP3   OH245557   0.584   5.003   6.762  0.8094 -0.0124  0.1837
 7121TIP3    H145558   0.494   5.035   6.769  0.5794 -0.8802  1.3891
 7121TIP3    H245559   0.596   4.983   6.669  0.6346  2.5619 -0.4680
 7122TIP3   OH245560   1.477   2.417   6.954  0.7944  0.7041 -0.4842
 7122TIP3    H145561   1.431   2.484   7.005 -0.9093 -0.9052  0.1985
 7122TIP3    H245562   1.467   2.336   7.005  2.9233 -0.0817 -1.2075
 7123TIP3   OH245563   3.786   3.878   6.078  0.3107  0.0714 -0.0969
 7123TIP3    H145564   3.830   3.963   6.081 -0.7941  0.6794 -0.4206
 7123TIP3    H245565   3.804   3.845   5.990  2.1189 -0.8267  0.5555
 7124TIP3   OH245566   0.327   3.879   6.951 -0.2305 -0.0317  0.3239
 7124TIP3    H145567   0.317   3.866   7.045 -1.0767 -1.4991  0.0619
 7124TIP3    H245568   0.284   3.962   6.933 -0.6860 -0.0893  1.1289
 7125TIP3   OH245569   3.793   2.238   5.789 -0.5272 -0.2249  0.0280
 7125TIP3    H145570   3.880   2.254   5.752 -0.8402  2.5213  0.2564
 7125TIP3    H245571   3.810   2.200   5.875  0.5229  0.9764  0.3870
 7126TIP3   OH245572   5.548   6.490   7.344 -1.1453 -0.2341  0.4719
 7126TIP3    H145573   5.563   6.462   7.254  1.8709 -1.9205  1.3491
 7126TIP3    H245574   5.487   6.426   7.381  0.2745 -1.6323  0.5030
 7127TIP3   OH245575   0.647   2.417   6.843 -0.0348  0.4039  0.3066
 7127TIP3    H145576   0.731   2.384   6.874  0.4744  1.2326 -0.1655
 7127TIP3    H245577   0.660   2.511   6.833  0.1183  0.1361 -3.1620
 7128TIP3   OH245578   1.413   5.766   5.856  0.5575 -0.9418 -0.0494
 7128TIP3    H145579   1.435   5.692   5.800 -1.8559 -0.7613 -1.3299
 7128TIP3    H245580   1.336   5.805   5.816  0.5253  1.0289  1.7604
 7129TIP3   OH245581   2.357   6.508   6.082 -0.0567 -0.0719 -0.2438
 7129TIP3    H145582   2.439   6.473   6.117  0.7662  1.6713 -0.3779
 7129TIP3    H245583   2.291   6.442   6.108  1.4950 -2.0772 -1.0982
 7130TIP3   OH245584   4.312   0.797   7.396 -0.2464 -0.4873 -0.1518
 7130TIP3    H145585   4.266   0.876   7.426  2.0663  0.9865 -0.2136
 7130TIP3    H245586   4.345   0.757   7.476 -0.4000 -0.7432 -0.2146
 7131TIP3   OH245587   0.985   5.866   6.844  0.5731 -0.6267 -0.0720
 7131TIP3    H145588   0.969   5.879   6.750  0.8885 -0.6123 -0.1252
 7131TIP3    H245589   1.059   5.805   6.847  1.5481  0.5392  0.1578
 7132TIP3   OH245590   4.465   3.764   5.576  0.2889  0.2267  0.3290
 7132TIP3    H145591   4.540   3.716   5.540 -1.7118 -2.8889 -0.0834
 7132TIP3    H245592   4.476   3.759   5.671  0.5707 -0.3084  0.2726
 7133TIP3   OH245593   0.169   4.679   5.390 -0.2883 -0.2080  0.0033
 7133TIP3    H145594   0.114   4.658   5.466  0.2429 -1.6869  0.0168
 7133TIP3    H245595   0.232   4.608   5.386  0.4321  0.4601 -1.1512
 7134TIP3   OH245596   4.379   4.997   6.253  0.3631 -0.3673  0.5883
 7134TIP3    H145597   4.435   5.065   6.216 -0.8923  0.2629 -0.2413
 7134TIP3    H245598   4.413   4.984   6.342  2.0761 -0.3485 -0.0304
 7135TIP3   OH245599   2.404   4.293   6.919 -0.2674 -0.5198 -0.7316
 7135TIP3    H145600   2.391   4.241   6.840 -0.8785  0.2696 -1.1623
 7135TIP3    H245601   2.424   4.229   6.987 -1.0853 -1.3239 -1.2355
 7136TIP3   OH245602   0.215   3.888   6.021  0.8399  0.0578 -0.5044
 7136TIP3    H145603   0.138   3.884   5.965 -0.4791  1.8977  1.0351
 7136TIP3    H245604   0.211   3.974   6.062  2.3743 -0.7091  1.4782
 7137TIP3   OH245605   1.792   6.056   8.715 -0.7066 -0.0501  0.2717
 7137TIP3    H145606   1.826   6.020   8.798 -1.8023  0.6754  1.0705
 7137TIP3    H245607   1.773   6.148   8.735 -0.5803  0.2438 -0.9223
 7138TIP3   OH245608   5.407   1.697   5.809 -0.5076  0.2452 -0.1907
 7138TIP3    H145609   5.495   1.734   5.815 -0.1110 -0.5079 -1.1512
 7138TIP3    H245610   5.373   1.728   5.725 -1.4488  1.1124  0.4853
 7139TIP3   OH245611   5.642   0.462   6.897 -0.6124 -0.3577 -0.1741
 7139TIP3    H145612   5.611   0.403   6.966  1.8768 -1.6350 -0.0087
 7139TIP3    H245613   5.694   0.528   6.944 -0.7006  0.0457 -0.6377
 7140TIP3   OH245614   2.715   4.559   7.589  0.0225  0.0332  0.3362
 7140TIP3    H145615   2.690   4.507   7.513  1.8662  0.9755 -0.9620
 7140TIP3    H245616   2.637   4.557   7.645 -1.8932  0.3831 -2.1234
 7141TIP3   OH245617   6.549   2.840   7.513  0.5902  0.1651 -0.2436
 7141TIP3    H145618   6.592   2.872   7.434  0.4377  2.0185  0.3832
 7141TIP3    H245619   6.501   2.915   7.548 -0.6946 -1.0305  0.7411
 7142TIP3   OH245620   2.698   2.146   8.352 -0.0068  0.3799 -0.0008
 7142TIP3    H145621   2.630   2.079   8.338 -0.0887  0.4060  0.2684
 7142TIP3    H245622   2.681   2.179   8.440  1.2427 -0.6249  0.6359
 7143TIP3   OH245623   6.213   1.174   8.393  0.0440  0.0920  0.3543
 7143TIP3    H145624   6.147   1.216   8.448 -0.8930 -2.0374  0.9843
 7143TIP3    H245625   6.266   1.123   8.455  0.4121 -0.5463 -0.4631
 7144TIP3   OH245626   6.515   5.619   7.746  0.2959 -0.1156 -0.7561
 7144TIP3    H145627   6.491   5.712   7.741  1.0128  0.0131 -2.7664
 7144TIP3    H245628   6.605   5.620   7.777 -0.2526 -0.2604  0.9024
 7145TIP3   OH245629   4.497   2.373   8.691  0.4723  0.0127 -0.4061
 7145TIP3    H145630   4.580   2.401   8.728 -1.0783  2.3265  1.5466
 7145TIP3    H245631   4.499   2.405   8.601  1.7449 -0.1186 -0.4391
 7146TIP3   OH245632   3.702   1.638   6.495 -0.4961  0.4656  0.2461
 7146TIP3    H145633   3.620   1.601   6.527  0.2650 -1.2491  0.3217
 7146TIP3    H245634   3.700   1.621   6.401 -0.1695  0.2794  0.2713
 7147TIP3   OH245635   2.013   5.153   9.437 -0.3482 -0.0753 -0.5024
 7147TIP3    H145636   1.974   5.196   9.513  1.8244  0.6149  0.2771
 7147TIP3    H245637   2.039   5.226   9.380  2.1221 -0.3452  0.2037
 7148TIP3   OH245638   4.505   0.177   6.189  0.0159 -0.3927 -0.4863
 7148TIP3    H145639   4.538   0.149   6.274 -1.3064 -0.5123 -0.0026
 7148TIP3    H245640   4.584   0.182   6.134  0.8316 -0.7085  0.6165
 7149TIP3   OH245641   5.997   5.602   7.868 -0.1215  0.4399  0.2640
 7149TIP3    H145642   5.926   5.552   7.829  0.9112  0.0669 -1.2033
 7149TIP3    H245643   6.009   5.563   7.955 -0.3866 -0.8120 -0.2439
 7150TIP3   OH245644   6.457   5.492   7.463 -0.0224 -0.0024  0.3899
 7150TIP3    H145645   6.373   5.477   7.505 -0.2059  3.4887  1.5750
 7150TIP3    H245646   6.518   5.507   7.536  0.9124  0.6321 -0.4916
 7151TIP3   OH245647   4.308   4.486   7.672 -0.1001 -0.0632 -0.1876
 7151TIP3    H145648   4.213   4.495   7.664 -0.2723 -0.8028  0.7717
 7151TIP3    H245649   4.343   4.539   7.600 -1.2302  0.2046 -0.5742
 7152TIP3   OH245650   4.859   0.444   8.487  0.3350  0.3406 -0.2559
 7152TIP3    H145651   4.801   0.509   8.528  1.3168 -0.8587  3.3894
 7152TIP3    H245652   4.801   0.394   8.429 -1.1263  2.3450 -0.6421
 7153TIP3   OH245653   0.553   0.099   6.468 -0.2339 -0.3496  0.6289
 7153TIP3    H145654   0.468   0.141   6.464  0.2500  0.7339  1.1988
 7153TIP3    H245655   0.534   0.005   6.466 -1.3416 -0.1395 -0.7520
 7154TIP3   OH245656   2.386   5.562   9.070  0.4480  0.0609  0.1443
 7154TIP3    H145657   2.309   5.571   9.014  0.6873 -1.3117 -0.4510
 7154TIP3    H245658   2.423   5.651   9.075 -0.8094  0.6134 -0.0566
 7155TIP3   OH245659   2.213   0.204   8.315  0.8371 -0.5695  0.8645
 7155TIP3    H145660   2.214   0.179   8.408  1.3397  0.3021  1.1009
 7155TIP3    H245661   2.168   0.288   8.313  0.1534 -0.9389  0.2116
 7156TIP3   OH245662   6.328   4.290   8.035 -0.4851 -0.1966 -0.0706
 7156TIP3    H145663   6.284   4.271   8.118  0.4317  1.5135  0.8635
 7156TIP3    H245664   6.385   4.365   8.055 -0.1722  0.1986 -2.2274
 7157TIP3   OH245665   1.691   5.680   6.934  0.7863 -0.1521 -0.2222
 7157TIP3    H145666   1.732   5.657   7.018  1.5537 -0.6371 -0.7158
 7157TIP3    H245667   1.762   5.719   6.883  0.0385  1.2557 -0.2308
 7158TIP3   OH245668   3.992   4.812   7.778  0.5300 -0.0581  0.0597
 7158TIP3    H145669   4.000   4.768   7.863  0.1374  0.2672  0.2687
 7158TIP3    H245670   3.897   4.818   7.763  0.5357  1.5186  0.4608
 7159TIP3   OH245671   0.449   4.852   7.923 -0.3643 -0.0270  0.4635
 7159TIP3    H145672   0.453   4.945   7.898  0.5814  0.2902  1.6982
 7159TIP3    H245673   0.458   4.805   7.840  1.6995  0.9852  0.0375
 7160TIP3   OH245674   6.163   2.186   7.305  0.4237  0.5714 -0.1642
 7160TIP3    H145675   6.173   2.156   7.396 -2.8103  0.9876  0.4478
 7160TIP3    H245676   6.219   2.263   7.299  0.3425  0.8220  1.6727
 7161TIP3   OH245677   2.317   6.567   5.829 -0.1069  0.0202  0.0550
 7161TIP3    H145678   2.328   6.546   5.922  0.2353 -1.3877 -0.2745
 7161TIP3    H245679   2.250   6.506   5.798  2.0535 -1.8531 -1.3092
 7162TIP3   OH245680   2.440   6.116   6.552 -0.7371  0.4422  0.3000
 7162TIP3    H145681   2.387   6.101   6.630 -0.7184 -1.8277 -0.0474
 7162TIP3    H245682   2.405   6.196   6.514 -4.2141 -1.0894 -0.0822
 7163TIP3   OH245683   4.629   3.871   6.634 -0.2074 -0.3481  0.0232
 7163TIP3    H145684   4.699   3.896   6.574  1.3448 -1.5575  1.2161
 7163TIP3    H245685   4.613   3.779   6.615 -1.2451 -0.1768  0.0195
 7164TIP3   OH245686   3.712   5.267   5.764 -0.8537  0.1770  0.3492
 7164TIP3    H145687   3.685   5.355   5.738 -0.5546  0.4885  1.0605
 7164TIP3    H245688   3.707   5.268   5.860 -0.8746 -0.5881  0.3584
 7165TIP3   OH245689   3.365   5.676   5.046  0.7175  0.9202  0.6712
 7165TIP3    H145690   3.448   5.631   5.031 -0.5885 -1.3946 -0.1605
 7165TIP3    H245691   3.374   5.760   5.001  3.2093  1.5477  2.1358
 7166TIP3   OH245692   5.479   5.219   6.220  0.0456 -0.3407  0.6790
 7166TIP3    H145693   5.524   5.288   6.173 -0.9952  0.0863  0.2834
 7166TIP3    H245694   5.547   5.157   6.243  0.7943  0.1852 -0.0832
 7167TIP3   OH245695   2.877   6.030   7.309 -0.2423 -0.0615  0.2124
 7167TIP3    H145696   2.878   5.938   7.284 -0.8004  0.3489 -1.4408
 7167TIP3    H245697   2.963   6.046   7.348  0.8472 -0.6921 -1.8169
 7168TIP3   OH245698   2.390   1.240   7.939 -0.1862 -0.1771 -0.4942
 7168TIP3    H145699   2.325   1.170   7.934  1.6917 -2.4219  2.6817
 7168TIP3    H245700   2.349   1.308   7.992 -0.2165 -1.2980  0.9573
 7169TIP3   OH245701   6.536   3.890   6.591 -0.3315 -0.0465 -0.0122
 7169TIP3    H145702   6.578   3.966   6.631  0.1375 -0.5780  0.5286
 7169TIP3    H245703   6.449   3.921   6.566 -0.4467  0.4512  0.9589
 7170TIP3   OH245704   2.269   5.547   8.636  0.2777  0.2697 -0.6174
 7170TIP3    H145705   2.345   5.555   8.694 -0.2976  0.2510  0.1564
 7170TIP3    H245706   2.301   5.576   8.550  0.7108  2.0160  0.0802
 7171TIP3   OH245707   2.015   3.397   6.349  0.0871  0.0417 -0.2675
 7171TIP3    H145708   2.081   3.346   6.302  0.2460  0.8086 -0.8992
 7171TIP3    H245709   1.980   3.337   6.415  0.6264 -0.7153 -0.6620
 7172TIP3   OH245710   3.811   5.072   6.774 -0.3971 -0.2813 -0.3712
 7172TIP3    H145711   3.745   5.140   6.766  1.0152  0.9930 -1.7608
 7172TIP3    H245712   3.864   5.098   6.849  1.1953  1.1677 -1.9308
 7173TIP3   OH245713   0.052   3.198   6.727 -0.0817  0.1864  0.2348
 7173TIP3    H145714   0.086   3.171   6.812 -1.1361 -1.1796  0.2686
 7173TIP3    H245715   0.120   3.253   6.689  1.3270 -0.9233  1.0670
 7174TIP3   OH245716   2.295   3.365   6.245 -0.3422  0.5074  0.0680
 7174TIP3    H145717   2.291   3.461   6.241  0.7054  0.6506  1.4900
 7174TIP3    H245718   2.348   3.340   6.169 -0.5063  1.0617 -0.2356
 7175TIP3   OH245719   0.420   2.936   8.488 -0.2801  0.3867 -0.1597
 7175TIP3    H145720   0.398   3.024   8.458  0.0654  0.2439 -0.8498
 7175TIP3    H245721   0.344   2.908   8.539 -1.3577  0.2266 -1.7813
 7176TIP3   OH245722   3.060   5.039   7.969 -0.2951 -0.1414  0.0594
 7176TIP3    H145723   3.021   5.050   7.882 -1.1598 -0.2144  0.4203
 7176TIP3    H245724   3.144   5.084   7.965 -0.7251  0.6173 -0.5465
 7177TIP3   OH245725   3.830   3.332   7.242 -0.0867 -0.5736 -0.0410
 7177TIP3    H145726   3.893   3.339   7.170 -1.5667 -1.3580 -1.4884
 7177TIP3    H245727   3.770   3.264   7.214 -1.0562 -0.4844  1.7103
 7178TIP3   OH245728   0.811   5.921   7.816  0.7200 -0.1498  0.3937
 7178TIP3    H145729   0.780   5.845   7.865  0.2128 -1.0508 -1.2447
 7178TIP3    H245730   0.854   5.883   7.739 -0.5156  1.2034 -1.0262
 7179TIP3   OH245731   1.642   1.715   7.903  0.3094  0.0362  0.2338
 7179TIP3    H145732   1.663   1.658   7.829  0.3579 -1.9956  1.7377
 7179TIP3    H245733   1.580   1.665   7.955 -2.6087  2.8811 -0.2103
 7180TIP3   OH245734   5.097   5.501   6.479  0.2917  0.4774  0.1444
 7180TIP3    H145735   5.110   5.440   6.406  0.9378  1.3826 -0.5100
 7180TIP3    H245736   5.021   5.466   6.525 -0.9215  0.5756 -1.6685
 7181TIP3   OH245737   6.314   6.352   6.509 -0.2511 -0.0281  0.3890
 7181TIP3    H145738   6.244   6.357   6.574 -0.5522  1.3234  0.0067
 7181TIP3    H245739   6.315   6.439   6.469  0.6216 -0.5077 -0.6896
 7182TIP3   OH245740   6.670   0.526   7.171  0.2645  0.3428  0.6454
 7182TIP3    H145741   6.626   0.549   7.088  1.5645  0.0832 -0.1401
 7182TIP3    H245742   6.648   0.598   7.230 -0.5254  0.6338  0.0150
 7183TIP3   OH245743   6.365   6.106   6.585  0.0443  0.2206 -0.2247
 7183TIP3    H145744   6.346   6.189   6.542  1.0646 -0.7728 -2.7698
 7183TIP3    H245745   6.455   6.114   6.617 -0.1486  0.3724  0.2941
 7184TIP3   OH245746   2.957   0.374   7.602  0.3489  0.3643  1.1608
 7184TIP3    H145747   2.941   0.363   7.508 -1.1264  0.4875  1.3658
 7184TIP3    H245748   3.052   0.373   7.611  0.4933 -1.1110 -0.1542
 7185TIP3   OH245749   6.186   3.062   6.397  0.4430 -0.4702 -0.0484
 7185TIP3    H145750   6.209   3.147   6.435  1.5360 -0.8354  0.1396
 7185TIP3    H245751   6.222   2.998   6.458 -1.4386 -1.1013  0.4526
 7186TIP3   OH245752   2.019   1.313   6.930  0.1959 -0.0817 -0.2132
 7186TIP3    H145753   1.953   1.382   6.924 -1.6924 -1.8239 -0.2103
 7186TIP3    H245754   2.066   1.318   6.846  0.3659  1.3942 -0.0736
 7187TIP3   OH245755   3.679   0.009   6.862 -0.1699  0.4168 -0.0291
 7187TIP3    H145756   3.595   0.012   6.908 -0.8844 -0.8918 -1.1612
 7187TIP3    H245757   3.729  -0.058   6.909 -1.1600 -1.4263 -1.4775
 7188TIP3   OH245758   1.447   1.427   7.352 -0.1425  0.5141 -0.2988
 7188TIP3    H145759   1.415   1.511   7.320 -1.1846  0.3019  0.1499
 7188TIP3    H245760   1.424   1.426   7.445 -0.6593 -0.4833 -0.4150
 7189TIP3   OH245761   4.782   2.542   6.909 -0.1598 -0.0366  0.3404
 7189TIP3    H145762   4.807   2.488   6.984  0.3735 -0.5091 -0.1692
 7189TIP3    H245763   4.844   2.518   6.840  0.0337  1.1783  0.0766
 7190TIP3   OH245764   2.485   3.070   6.066  0.5300 -0.3462  0.0714
 7190TIP3    H145765   2.418   3.015   6.108  0.4348  0.2947  0.7676
 7190TIP3    H245766   2.446   3.094   5.982 -0.0949 -0.0536  0.4321
 7191TIP3   OH245767   2.421   4.722   6.508  0.0830  0.1751 -0.2251
 7191TIP3    H145768   2.486   4.761   6.449  0.4627 -0.3477 -0.1598
 7191TIP3    H245769   2.458   4.734   6.595 -0.3633  0.7286 -0.1046
 7192TIP3   OH245770   3.125   4.116   6.998  0.6358  0.8134 -0.0027
 7192TIP3    H145771   3.210   4.119   7.043 -0.0766  1.3283  1.3846
 7192TIP3    H245772   3.081   4.197   7.025 -0.4147  0.4139 -0.4598
 7193TIP3   OH245773   4.790   2.698   6.299 -0.4095 -0.2805  0.0305
 7193TIP3    H145774   4.703   2.662   6.283 -0.3461  0.1733 -1.4421
 7193TIP3    H245775   4.850   2.628   6.274 -0.3229  0.1491 -0.9951
 7194TIP3   OH245776   3.736   0.239   8.402  0.3083 -0.9067  0.7566
 7194TIP3    H145777   3.745   0.296   8.479 -1.0743 -0.8796  0.9177
 7194TIP3    H245778   3.826   0.220   8.376  0.8054 -1.1317  2.5433
 7195TIP3   OH245779   5.173   3.922   7.674  0.0393 -0.4578  0.3311
 7195TIP3    H145780   5.157   4.005   7.629 -1.4396 -0.8707  0.0209
 7195TIP3    H245781   5.145   3.937   7.764  0.7819 -0.3200  0.5459
 7196TIP3   OH245782   0.502   2.016   5.497  0.4351 -0.2998 -0.6691
 7196TIP3    H145783   0.574   2.076   5.482  1.3856 -1.4316 -0.7583
 7196TIP3    H245784   0.485   2.021   5.591  2.7369 -2.2832 -0.0570
 7197TIP3   OH245785   1.991   6.620   8.966 -0.4667 -0.1448 -0.6970
 7197TIP3    H145786   2.049   6.695   8.954 -0.1101 -0.1722  0.7605
 7197TIP3    H245787   2.017   6.558   8.898  0.8229  0.0854 -0.4381
 7198TIP3   OH245788   1.475   1.023   6.014  0.0690 -0.2202  0.0597
 7198TIP3    H145789   1.536   1.084   6.055  1.1452 -0.6775 -0.8068
 7198TIP3    H245790   1.411   1.003   6.083  0.3887  0.9396  0.7171
 7199TIP3   OH245791   2.627   0.028   7.529  0.3551 -0.0623 -0.1143
 7199TIP3    H145792   2.623  -0.024   7.609 -0.7314  0.8389  0.4409
 7199TIP3    H245793   2.592   0.113   7.553 -0.6423  0.0309 -1.6986
 7200TIP3   OH245794   1.898   5.122   5.816 -1.2118  0.2283 -0.0962
 7200TIP3    H145795   1.882   5.166   5.900 -1.1680 -0.7642  0.4535
 7200TIP3    H245796   1.993   5.119   5.807 -1.2168  0.3507 -0.1891
 7201TIP3   OH245797   5.837   5.125   6.519 -0.1927  0.3523  0.1257
 7201TIP3    H145798   5.814   5.204   6.568 -1.3000 -0.4734  0.9991
 7201TIP3    H245799   5.807   5.053   6.575 -0.3695 -0.6596 -1.2225
 7202TIP3   OH245800   5.140   5.032   7.059  0.3956 -0.6304  0.0998
 7202TIP3    H145801   5.116   4.953   7.108 -1.1616  0.1407  0.6340
 7202TIP3    H245802   5.234   5.021   7.042  0.4396 -2.1091  1.0532
 7203TIP3   OH245803   5.263   2.038   9.352 -0.0866 -0.8200  0.2818
 7203TIP3    H145804   5.333   2.060   9.414 -1.1315 -0.6925  1.4623
 7203TIP3    H245805   5.307   1.993   9.281  1.7455  2.2833 -0.7701
 7204TIP3   OH245806   6.040   2.489   6.204  0.0526 -0.0620 -0.0759
 7204TIP3    H145807   6.003   2.577   6.196  1.6361  0.6403 -0.0768
 7204TIP3    H245808   6.080   2.472   6.119  0.1770 -0.5849  0.0829
 7205TIP3   OH245809   2.882   2.891   5.580  0.0438  0.0536 -0.0314
 7205TIP3    H145810   2.903   2.822   5.642  1.9718  0.5181 -0.1001
 7205TIP3    H245811   2.859   2.966   5.636  1.1766  0.2923  0.1417
 7206TIP3   OH245812   4.186   0.637   6.731 -0.2777 -0.0648  0.2741
 7206TIP3    H145813   4.253   0.606   6.669 -1.6145 -0.3647 -1.0793
 7206TIP3    H245814   4.173   0.729   6.708 -0.6794 -0.1387  0.2052
 7207TIP3   OH245815   6.147   1.877   9.012  0.0248  0.0329  0.0193
 7207TIP3    H145816   6.127   1.865   8.919 -1.0626 -0.2063  0.2568
 7207TIP3    H245817   6.116   1.965   9.032 -1.1676 -0.4502  0.4634
 7208TIP3   OH245818   0.501   4.392   8.437  0.1197 -0.1286  0.1485
 7208TIP3    H145819   0.450   4.366   8.514 -0.4913 -1.0245 -0.5403
 7208TIP3    H245820   0.582   4.341   8.444 -0.2424 -0.7578 -0.1695
 7209TIP3   OH245821   0.462   2.624   6.336 -0.8226  0.3866  0.0970
 7209TIP3    H145822   0.463   2.598   6.428  0.2406 -0.9346 -0.2691
 7209TIP3    H245823   0.375   2.599   6.305 -0.6522 -0.5693  0.3701
 7210TIP3   OH245824   4.632   2.552   7.707  0.0504 -0.4610 -0.3933
 7210TIP3    H145825   4.669   2.626   7.659  0.1451 -0.2161  0.0595
 7210TIP3    H245826   4.667   2.560   7.795 -0.8971 -0.3532 -0.0103
 7211TIP3   OH245827   0.140   0.559   7.503  0.2442  0.2731  0.2253
 7211TIP3    H145828   0.176   0.601   7.581  0.0776  1.1017 -0.1285
 7211TIP3    H245829   0.207   0.571   7.436  0.8428 -1.3622  0.4954
 7212TIP3   OH245830   1.259   5.244   7.046  0.2768  0.1022  0.8332
 7212TIP3    H145831   1.193   5.218   6.982  0.6760  0.7437  0.1356
 7212TIP3    H245832   1.289   5.330   7.016  3.1088 -1.1260 -0.2971
 7213TIP3   OH245833   0.352   4.184   6.798 -0.2060 -0.0867 -0.5176
 7213TIP3    H145834   0.286   4.219   6.858 -0.4284  0.2982 -0.9810
 7213TIP3    H245835   0.341   4.234   6.717 -0.2143 -0.9103 -1.0385
 7214TIP3   OH245836   2.525   2.735   6.461 -0.6626  0.2320 -0.0452
 7214TIP3    H145837   2.597   2.778   6.415 -0.1854 -0.9188 -0.4314
 7214TIP3    H245838   2.567   2.665   6.511 -1.4926 -0.4001 -0.2021
 7215TIP3   OH245839   3.528   2.105   5.688  0.4981 -0.6912 -0.0897
 7215TIP3    H145840   3.621   2.124   5.671  0.1035  1.2812 -0.2997
 7215TIP3    H245841   3.482   2.184   5.660 -1.1600 -1.2250  0.9896
 7216TIP3   OH245842   4.536   0.636   6.187 -0.3880  0.3835 -0.2150
 7216TIP3    H145843   4.467   0.576   6.160 -1.3393  1.7795 -0.9666
 7216TIP3    H245844   4.502   0.678   6.266 -0.2438  0.8028 -0.3726
 7217TIP3   OH245845   1.189   5.166   8.387 -0.0123  0.3178  0.2294
 7217TIP3    H145846   1.143   5.128   8.461  1.2700  0.2924  1.0431
 7217TIP3    H245847   1.280   5.138   8.397  0.3520  0.9946 -0.8950
 7218TIP3   OH245848   5.005   5.313   8.902  0.5057 -0.2944  0.0119
 7218TIP3    H145849   4.989   5.392   8.851  0.3609 -0.8999 -0.9018
 7218TIP3    H245850   4.922   5.297   8.948  0.8272  0.5877  0.9301
 7219TIP3   OH245851   1.082   6.461   7.977 -0.2310 -0.1374  0.4178
 7219TIP3    H145852   1.137   6.539   7.989 -1.6556  1.1503 -0.9301
 7219TIP3    H245853   1.137   6.401   7.927  0.4209  0.5650  0.2633
 7220TIP3   OH245854   2.742   5.594   6.245 -0.5685  0.3290  0.3532
 7220TIP3    H145855   2.810   5.662   6.248  0.8522 -1.0017 -0.3845
 7220TIP3    H245856   2.789   5.513   6.227 -2.2155 -0.8950  1.2633
 7221TIP3   OH245857   1.209   1.468   6.654 -0.2683 -0.1784  0.0340
 7221TIP3    H145858   1.137   1.405   6.653 -1.4045  1.0490  0.9510
 7221TIP3    H245859   1.194   1.520   6.733 -0.8202  2.8407 -1.8667
 7222TIP3   OH245860   6.438   1.228   6.173  0.3060  0.1029 -0.1363
 7222TIP3    H145861   6.499   1.265   6.236  0.7724 -2.4880  1.0776
 7222TIP3    H245862   6.352   1.239   6.213  0.5809 -1.3253  0.9433
 7223TIP3   OH245863   3.739   3.341   5.666  0.0805  0.0963 -0.3419
 7223TIP3    H145864   3.787   3.263   5.635  0.4119  0.8501 -1.8135
 7223TIP3    H245865   3.649   3.310   5.677  0.6537 -1.0949  1.5219
 7224TIP3   OH245866   1.881   1.833   6.178  0.1639  0.3511 -0.9576
 7224TIP3    H145867   1.831   1.915   6.184  0.2664  0.4332 -1.2279
 7224TIP3    H245868   1.951   1.852   6.117  1.8935  0.9477  1.0867
 7225TIP3   OH245869   1.855   1.065   9.815 -0.0975  0.2585 -0.1602
 7225TIP3    H145870   1.873   1.038   9.725  0.3109 -0.7428  0.2029
 7225TIP3    H245871   1.761   1.080   9.818 -0.0154  0.9791 -0.9238
 7226TIP3   OH245872   5.335   1.835   9.114 -0.1325 -0.3088  0.6601
 7226TIP3    H145873   5.267   1.793   9.061  0.2579 -1.3815  0.9762
 7226TIP3    H245874   5.343   1.780   9.192  0.7667  0.0651  0.8542
 7227TIP3   OH245875   2.265   0.256   9.156 -0.5032  0.2686  0.4884
 7227TIP3    H145876   2.322   0.312   9.104 -0.0675 -0.0845  0.5792
 7227TIP3    H245877   2.190   0.311   9.177 -1.4236 -0.0182 -1.7777
 7228TIP3   OH245878   1.149   5.911   8.730  0.5673 -0.2258 -0.1391
 7228TIP3    H145879   1.095   5.851   8.679 -0.0249  0.9857 -0.9854
 7228TIP3    H245880   1.151   5.873   8.818 -0.7683 -0.8630 -0.3607
 7229TIP3   OH245881   4.073   3.365   6.557  0.0974  0.0301 -0.3301
 7229TIP3    H145882   4.106   3.301   6.620  0.4172  0.1050 -0.4198
 7229TIP3    H245883   4.028   3.311   6.491  1.3997 -0.2252 -1.0502
 7230TIP3   OH245884   1.367   1.140   6.806  0.0082 -0.0489 -0.3335
 7230TIP3    H145885   1.377   1.228   6.770 -1.5978  0.1290 -0.4217
 7230TIP3    H245886   1.295   1.148   6.869  1.5298 -0.7588  1.5850
 7231TIP3   OH245887   5.952   5.201   8.200  0.1677  0.6122  0.5362
 7231TIP3    H145888   5.912   5.161   8.278  0.1571 -0.6555 -0.0901
 7231TIP3    H245889   5.996   5.128   8.157  1.5917  1.6263  0.2276
 7232TIP3   OH245890   1.928   2.733   6.592 -0.0081  0.7165 -0.6492
 7232TIP3    H145891   1.936   2.644   6.559 -0.9051  1.0160 -1.7443
 7232TIP3    H245892   2.001   2.780   6.550  1.0940  0.2950  0.7385
 7233TIP3   OH245893   2.147   3.626   6.467  0.0653 -0.6402  0.1834
 7233TIP3    H145894   2.070   3.621   6.410 -0.4770 -0.7740  0.8996
 7233TIP3    H245895   2.214   3.667   6.413 -1.0482  1.1651  0.0662
 7234TIP3   OH245896   3.703   6.049   5.839  0.5097  0.0646 -0.4778
 7234TIP3    H145897   3.759   6.049   5.916 -0.7937  0.6626  0.5158
 7234TIP3    H245898   3.661   6.135   5.840  1.0680  0.4151 -2.3373
 7235TIP3   OH245899   4.524   2.823   6.457 -0.3660  0.4030  0.2334
 7235TIP3    H145900   4.454   2.882   6.428  0.4402  0.8607 -0.8277
 7235TIP3    H245901   4.591   2.829   6.389  0.0945 -1.1332  0.5060
 7236TIP3   OH245902   5.638   0.862   9.244  0.0825 -0.4032  0.1397
 7236TIP3    H145903   5.565   0.912   9.281 -0.5260 -1.8003  0.9215
 7236TIP3    H245904   5.627   0.869   9.149 -0.2792  0.5159  0.2431
 7237TIP3   OH245905   5.244   3.118   6.328 -0.5030 -0.5123 -0.5958
 7237TIP3    H145906   5.177   3.185   6.318  1.7711  1.6519 -3.1008
 7237TIP3    H245907   5.219   3.049   6.267 -0.7084  0.0881 -1.2045
 7238TIP3   OH245908   2.894   3.249   8.005 -0.1375 -0.1942  0.1923
 7238TIP3    H145909   2.979   3.291   7.994  0.5293 -1.1102  1.6405
 7238TIP3    H245910   2.913   3.165   8.047 -1.6659 -0.8723 -0.3926
 7239TIP3   OH245911   0.765   5.508   5.521  0.0086 -0.6466  0.0270
 7239TIP3    H145912   0.670   5.513   5.530  0.2599  0.7452  2.8666
 7239TIP3    H245913   0.785   5.572   5.453 -1.0293 -0.7157 -0.3750
 7240TIP3   OH245914   4.640   2.289   7.935 -0.2018 -0.1200 -0.0319
 7240TIP3    H145915   4.671   2.372   7.971  4.2927 -1.4808 -0.0632
 7240TIP3    H245916   4.584   2.252   8.003  0.7148  1.3559  1.6146
 7241TIP3   OH245917   3.403   6.384   6.633 -0.4407  0.4399  0.6474
 7241TIP3    H145918   3.327   6.335   6.604 -0.1707  0.1048  0.4935
 7241TIP3    H245919   3.473   6.357   6.573 -0.2101  0.7652  0.7662
 7242TIP3   OH245920   0.395   4.271   7.597  0.5562  0.6140 -0.8875
 7242TIP3    H145921   0.303   4.271   7.571  0.4277  2.1724 -0.5298
 7242TIP3    H245922   0.422   4.363   7.589  1.1924  0.7869  2.0315
 7243TIP3   OH245923   2.259   0.651   7.981 -0.3597  0.3416 -0.5184
 7243TIP3    H145924   2.350   0.678   7.972  0.7497 -1.9856  2.2076
 7243TIP3    H245925   2.227   0.644   7.891  1.3254  3.5439 -1.5102
 7244TIP3   OH245926   0.710   1.740   7.062  0.1927  0.3154  0.2699
 7244TIP3    H145927   0.620   1.772   7.052  0.1764  0.3175  0.4291
 7244TIP3    H245928   0.765   1.816   7.040  0.1561  0.8922  2.0382
 7245TIP3   OH245929   1.939   0.902   7.718 -0.4191  0.7832 -0.1363
 7245TIP3    H145930   1.855   0.857   7.709 -0.9503  1.8309 -0.7272
 7245TIP3    H245931   1.943   0.928   7.810 -0.7565  0.7288 -0.1029
 7246TIP3   OH245932   3.263   2.646   5.680 -0.0845 -0.6054 -0.8127
 7246TIP3    H145933   3.289   2.738   5.681  2.3773 -1.1185 -3.5568
 7246TIP3    H245934   3.321   2.604   5.743  0.8877 -0.6823 -1.7369
 7247TIP3   OH245935   6.460   0.882   8.763 -0.3240  0.7323  0.4982
 7247TIP3    H145936   6.497   0.900   8.849  3.2927 -1.1909 -0.4557
 7247TIP3    H245937   6.397   0.811   8.778 -0.0940  0.7498  1.6256
 7248TIP3   OH245938   1.769   4.499   6.529  0.1076  0.2123  0.3447
 7248TIP3    H145939   1.804   4.413   6.504  2.7638  1.6206 -1.3635
 7248TIP3    H245940   1.817   4.522   6.608 -0.1676  0.3576  0.4702
 7249TIP3   OH245941   0.423   5.496   8.282 -0.1620  0.1187  0.5656
 7249TIP3    H145942   0.474   5.577   8.281  0.9574 -0.5533 -0.8823
 7249TIP3    H245943   0.488   5.426   8.280 -1.1167 -0.7966  0.3454
 7250TIP3   OH245944   1.967   3.538   6.977  0.2025 -0.2542 -0.0829
 7250TIP3    H145945   1.893   3.484   7.003 -1.5553  2.0945  0.1718
 7250TIP3    H245946   1.998   3.500   6.896 -0.2259 -2.2402  0.6347
 7251TIP3   OH245947   4.054   4.663   8.008 -0.2448  0.4724 -0.3822
 7251TIP3    H145948   4.016   4.622   8.085 -0.0339  2.7048  0.9915
 7251TIP3    H245949   4.134   4.613   7.991 -0.1944  0.0580  0.9709
 7252TIP3   OH245950   4.177   5.522   6.234 -0.3132  0.5118  0.7054
 7252TIP3    H145951   4.082   5.511   6.236 -0.2580  0.0235  0.7230
 7252TIP3    H245952   4.209   5.442   6.192  0.1190  0.4738  1.1061
 7253TIP3   OH245953   5.392   2.362   9.310  0.2630  0.2642 -0.5559
 7253TIP3    H145954   5.353   2.328   9.390  1.5870  0.1475  0.0622
 7253TIP3    H245955   5.469   2.307   9.295 -0.6024 -0.5187 -2.6016
 7254TIP3   OH245956   1.625   6.398   6.556  0.4871 -0.2832  0.5282
 7254TIP3    H145957   1.561   6.457   6.516 -0.6789 -1.0094  1.2358
 7254TIP3    H245958   1.708   6.445   6.552 -0.1716  0.8739 -0.0296
 7255TIP3   OH245959   6.115   1.737   7.827  0.0038  0.1622  0.1261
 7255TIP3    H145960   6.050   1.732   7.897 -2.1562 -1.8167 -1.8642
 7255TIP3    H245961   6.115   1.829   7.801 -1.2789  0.3718  0.7877
 7256TIP3   OH245962   1.469   0.924   7.569 -0.5083  0.3448  0.3306
 7256TIP3    H145963   1.402   0.940   7.635 -0.1962 -1.3932  1.1468
 7256TIP3    H245964   1.496   1.011   7.540 -0.8511  1.1693  2.3069
 7257TIP3   OH245965   3.497   1.977   6.250  0.0714  0.1981  0.3132
 7257TIP3    H145966   3.582   1.935   6.235  1.0699  1.9390  0.8404
 7257TIP3    H245967   3.474   2.016   6.166  1.0455  1.8324  0.7542
 7258TIP3   OH245968   0.851   5.809   5.868 -0.1604 -0.2999  0.1210
 7258TIP3    H145969   0.766   5.847   5.848 -0.2801 -1.1376 -1.1133
 7258TIP3    H245970   0.894   5.873   5.924 -1.2546  0.5494  0.0154
 7259TIP3   OH245971   1.667   4.410   8.262  0.2309  0.4639 -0.7139
 7259TIP3    H145972   1.615   4.386   8.184 -1.5940  0.8635  0.3230
 7259TIP3    H245973   1.634   4.496   8.287 -0.3348 -0.3062  1.3817
 7260TIP3   OH245974   6.625   2.054   8.311  0.2185 -0.2239  0.5070
 7260TIP3    H145975   6.686   1.980   8.320  0.5870 -0.0433 -0.3676
 7260TIP3    H245976   6.539   2.013   8.307  0.4054 -0.6037  0.2253
 7261TIP3   OH245977   0.577   1.537   7.795 -0.3916  0.2794 -0.3598
 7261TIP3    H145978   0.644   1.514   7.859 -1.3334  0.4895  0.7388
 7261TIP3    H245979   0.626   1.569   7.719  0.8425 -1.9469 -0.5963
 7262TIP3   OH245980   4.829   0.090   7.749  0.8841  0.2118  0.6080
 7262TIP3    H145981   4.771   0.035   7.802  1.2282  0.2131  0.9876
 7262TIP3    H245982   4.915   0.079   7.789  1.3993 -0.7775 -0.6954
 7263TIP3   OH245983   6.482   2.592   8.325 -0.0630 -0.2398  0.8215
 7263TIP3    H145984   6.516   2.505   8.305  0.0636 -0.4908  2.0700
 7263TIP3    H245985   6.531   2.620   8.403  1.3456  1.7920 -0.6863
 7264TIP3   OH245986   6.196   5.947   7.253 -0.1453  0.0021  0.6056
 7264TIP3    H145987   6.170   5.963   7.163 -0.0862 -3.1987 -0.1234
 7264TIP3    H245988   6.113   5.941   7.301 -0.2516  0.3054  0.4583
 7265TIP3   OH245989   3.815   0.763  14.949 -0.2448 -0.1389 -0.1602
 7265TIP3    H145990   3.885   0.813  14.991 -1.5909 -1.0316  3.5933
 7265TIP3    H245991   3.857   0.683  14.918  0.5446 -0.4320  1.5636
 7266TIP3   OH245992   4.268   5.156   8.981 -0.0975 -0.1886 -0.2862
 7266TIP3    H145993   4.303   5.067   8.993  0.1333 -0.0483  0.0711
 7266TIP3    H245994   4.183   5.142   8.939 -1.1355 -0.7132  1.8546
 7267TIP3   OH245995   3.654   2.322   8.809  0.1336 -0.3031  0.9192
 7267TIP3    H145996   3.691   2.236   8.787 -0.4574 -0.5971  1.0635
 7267TIP3    H245997   3.560   2.310   8.802 -0.0474 -0.1738  2.7218
 7268TIP3   OH245998   6.324   5.894   7.948  0.3274 -0.3206 -0.4214
 7268TIP3    H145999   6.231   5.910   7.934  0.2757  0.1902  0.4349
 7268TIP3    H246000   6.364   5.910   7.863 -0.1822  0.9085 -0.4481
 7269TIP3   OH246001   0.296   4.420   6.650  0.1159 -0.8567 -0.1254
 7269TIP3    H146002   0.324   4.509   6.629  0.1096 -1.0938 -1.1909
 7269TIP3    H246003   0.208   4.413   6.613 -0.4603 -0.8696  1.1795
 7270TIP3   OH246004   6.593   2.855   9.293  0.3072  0.0243  0.2991
 7270TIP3    H146005   6.676   2.858   9.246  0.5062 -0.8515  0.5837
 7270TIP3    H246006   6.583   2.764   9.319 -1.0939 -0.0229 -0.3346
 7271TIP3   OH246007   4.720   3.451   7.391 -0.1757 -0.4686 -0.3749
 7271TIP3    H146008   4.777   3.428   7.317  0.5672 -0.4255  0.1750
 7271TIP3    H246009   4.728   3.546   7.398 -0.0830 -0.4974 -0.1054
 7272TIP3   OH246010   3.829   2.482   7.065  0.4998 -0.4341  0.1761
 7272TIP3    H146011   3.752   2.486   7.009  0.9405  1.0045 -0.3790
 7272TIP3    H246012   3.813   2.408   7.124 -1.1002 -0.4173 -0.2095
 7273TIP3   OH246013   5.066   1.033   7.190  0.0074 -0.3523 -0.4800
 7273TIP3    H146014   5.111   0.988   7.261 -0.4467 -0.2481 -0.1207
 7273TIP3    H246015   5.066   1.125   7.217 -2.0952 -0.5781  0.4721
 7274TIP3   OH246016   1.149   6.372   6.519  0.3347 -0.3157 -0.5763
 7274TIP3    H146017   1.064   6.408   6.544  0.1550 -1.5979  0.7302
 7274TIP3    H246018   1.212   6.441   6.542 -0.1099 -0.3613  0.8239
 7275TIP3   OH246019   0.062   6.485   8.339  0.7085  0.8033 -0.5173
 7275TIP3    H146020   0.069   6.442   8.424  0.1645 -1.2715 -1.4428
 7275TIP3    H246021  -0.005   6.552   8.351 -1.0763 -0.9827  0.1816
 7276TIP3   OH246022   3.746   5.407   7.590  0.3437 -0.6123 -0.0099
 7276TIP3    H146023   3.796   5.432   7.512 -1.0403 -0.4249 -0.8690
 7276TIP3    H246024   3.797   5.441   7.663  0.7930  0.7742 -0.9211
 7277TIP3   OH246025   1.621   5.186   6.952 -0.3697 -0.3093 -0.2387
 7277TIP3    H146026   1.708   5.226   6.948 -0.8186  0.7663  0.3829
 7277TIP3    H246027   1.584   5.199   6.865 -0.7814  1.3032  0.1469
 7278TIP3   OH246028   1.579   2.243   8.578 -0.3058  0.2274 -0.3102
 7278TIP3    H146029   1.665   2.216   8.545 -0.8307 -0.9219 -0.8032
 7278TIP3    H246030   1.518   2.186   8.532 -1.3550  1.1825 -0.1225
 7279TIP3   OH246031   1.083   2.394   5.828  0.5853 -0.1167  0.7462
 7279TIP3    H146032   1.002   2.345   5.840  0.3525  0.3092  0.9513
 7279TIP3    H246033   1.149   2.328   5.810  0.1072 -0.4386  0.1423
 7280TIP3   OH246034   1.573   5.555   5.754 -0.2001  0.6682 -0.6863
 7280TIP3    H146035   1.528   5.485   5.802  0.3629  0.5679 -0.2815
 7280TIP3    H246036   1.651   5.512   5.718 -0.7141  0.7051 -1.8567
 7281TIP3   OH246037   3.186   5.520   6.522  0.0496 -0.0222 -0.0372
 7281TIP3    H146038   3.185   5.506   6.427  0.6286  0.3497 -0.1050
 7281TIP3    H246039   3.278   5.513   6.546 -0.0323  0.4225  0.4174
 7282TIP3   OH246040   3.146   2.270   5.942 -0.4303 -0.2146  0.0591
 7282TIP3    H146041   3.099   2.303   5.865 -1.4809  1.1831  1.2499
 7282TIP3    H246042   3.082   2.214   5.987 -1.1146  1.8059  1.7654
 7283TIP3   OH246043   4.784   2.738   7.589  0.1253  0.2004  0.1080
 7283TIP3    H146044   4.789   2.819   7.539 -1.2710 -0.4139 -1.1346
 7283TIP3    H246045   4.788   2.669   7.523 -1.9154 -0.6417  0.7700
 7284TIP3   OH246046   6.172   6.576   7.543 -0.0106  0.0639 -0.0902
 7284TIP3    H146047   6.205   6.490   7.515  0.4418  0.6439 -1.4354
 7284TIP3    H246048   6.083   6.559   7.573  0.7167 -1.1797  1.5409
 7285TIP3   OH246049   0.689   3.814   6.309 -0.0258  0.2314 -0.2378
 7285TIP3    H146050   0.710   3.792   6.218  0.9196  0.8938 -0.1908
 7285TIP3    H246051   0.663   3.906   6.306 -0.9076  0.0014  0.0309
 7286TIP3   OH246052   5.946   3.812   8.873 -0.3961  0.3862  0.2039
 7286TIP3    H146053   6.033   3.775   8.859 -0.4311  0.4092 -0.0665
 7286TIP3    H246054   5.901   3.801   8.790  0.0848  2.3865 -0.3799
 7287TIP3   OH246055   2.512   5.688   7.234  0.0385  0.3439  0.1661
 7287TIP3    H146056   2.532   5.644   7.152 -0.5229 -0.9870  0.7133
 7287TIP3    H246057   2.564   5.643   7.300 -2.0407 -0.9027  1.0516
 7288TIP3   OH246058   5.959   3.199   6.657  0.3152  0.1547  0.2966
 7288TIP3    H146059   5.880   3.163   6.698  0.3953 -1.2093 -0.6854
 7288TIP3    H246060   6.031   3.156   6.703  0.5184  1.3695  1.1625
 7289TIP3   OH246061   3.388   4.937   8.263  0.1716 -0.4384 -0.0717
 7289TIP3    H146062   3.371   4.903   8.350 -1.7894  0.8658  0.1332
 7289TIP3    H246063   3.321   5.005   8.250  0.8395 -0.1029 -2.3125
 7290TIP3   OH246064   3.578   2.746   6.755  0.4067 -0.1680  0.1570
 7290TIP3    H146065   3.494   2.790   6.772 -0.2381 -1.5968  0.8306
 7290TIP3    H246066   3.577   2.730   6.660  1.6377  3.0845 -0.5620
 7291TIP3   OH246067   0.569   2.705   8.603  0.1245  0.3386  0.0926
 7291TIP3    H146068   0.500   2.642   8.581 -0.5246  1.1019 -0.1286
 7291TIP3    H246069   0.541   2.787   8.561  0.6817  0.9079  0.7968
 7292TIP3   OH246070   2.519   5.861   8.730  0.9862 -0.3207  0.0141
 7292TIP3    H146071   2.476   5.839   8.812  1.4884 -0.3564  0.2687
 7292TIP3    H246072   2.587   5.924   8.755 -0.9028  2.2039 -0.7609
 7293TIP3   OH246073   5.936   2.371   8.515  0.4280  0.3302 -0.2994
 7293TIP3    H146074   6.021   2.357   8.558  1.2185 -0.4284 -2.0145
 7293TIP3    H246075   5.941   2.460   8.481  1.6495 -0.5171 -2.5912
 7294TIP3   OH246076   4.645   4.606   8.262 -0.0519 -0.0512 -0.0186
 7294TIP3    H146077   4.725   4.659   8.261  0.2918 -0.4972  1.5251
 7294TIP3    H246078   4.644   4.566   8.349 -0.9194 -1.6362 -0.7142
 7295TIP3   OH246079   2.036   4.137   6.474 -0.3586 -0.0490 -0.1397
 7295TIP3    H146080   2.100   4.148   6.404 -1.1465 -1.1129 -1.0480
 7295TIP3    H246081   1.979   4.067   6.444 -0.3367 -0.9888  1.8496
 7296TIP3   OH246082   2.200   5.155   5.816 -0.1392  0.1681  0.0423
 7296TIP3    H146083   2.197   5.249   5.834  0.2292  0.0440  0.7920
 7296TIP3    H246084   2.293   5.137   5.800 -0.0956 -0.2028  0.6828
 7297TIP3   OH246085   6.347   4.628   6.040 -0.3384  0.3559 -0.0256
 7297TIP3    H146086   6.258   4.596   6.028 -0.6104  0.7513  0.8515
 7297TIP3    H246087   6.385   4.571   6.107  0.1967 -0.0368 -0.6490
 7298TIP3   OH246088   4.854   4.430   8.540  0.0428  0.3887 -0.5669
 7298TIP3    H146089   4.878   4.463   8.626  0.3940 -0.6044 -0.2646
 7298TIP3    H246090   4.765   4.462   8.525 -0.3218 -0.0807  0.5098
 7299TIP3   OH246091   6.701   0.347   5.293  0.1068 -0.0954 -0.3395
 7299TIP3    H146092   6.610   0.360   5.318  0.4267 -1.3613  1.7711
 7299TIP3    H246093   6.724   0.425   5.243 -1.9967  0.4441 -0.5299
 7300TIP3   OH246094   2.428   5.309   8.289  0.2172  0.0241 -0.0907
 7300TIP3    H146095   2.464   5.386   8.333 -1.4804  0.1000  1.3034
 7300TIP3    H246096   2.439   5.238   8.353  1.1876 -0.7652 -1.1068
 7301TIP3   OH246097   4.939   3.070   6.157  0.0529 -0.0890  0.6184
 7301TIP3    H146098   5.008   3.008   6.181  0.3445  0.3173  0.8346
 7301TIP3    H246099   4.973   3.155   6.183 -0.7629  0.0598  1.2625
 7302TIP3   OH246100   3.813   5.611   8.249 -0.0097  0.3226 -0.0788
 7302TIP3    H146101   3.861   5.533   8.222 -0.0562 -0.4138  1.8411
 7302TIP3    H246102   3.852   5.636   8.333 -1.6679  0.8539  0.5854
 7303TIP3   OH246103   6.100   2.681   7.220  0.0937 -0.0033  0.3100
 7303TIP3    H146104   6.141   2.767   7.222  0.3047 -0.1084  1.7777
 7303TIP3    H246105   6.038   2.685   7.148  2.2499  0.3391 -1.6650
 7304TIP3   OH246106   5.888   6.375   5.428 -0.0088 -0.5664 -0.0607
 7304TIP3    H146107   5.983   6.388   5.427  0.0591 -1.0066 -0.6702
 7304TIP3    H246108   5.877   6.284   5.399 -0.6501 -0.1994 -1.0382
 7305TIP3   OH246109   3.198   0.906   5.857  0.2984 -0.0159  0.5866
 7305TIP3    H146110   3.291   0.895   5.838  0.3410 -0.3331  0.9559
 7305TIP3    H246111   3.183   1.000   5.854  0.2350 -0.0338 -1.3088
 7306TIP3   OH246112   2.340   4.179   7.912 -0.1431  0.3594  0.2059
 7306TIP3    H146113   2.369   4.205   8.000 -1.5171 -1.2302  1.1906
 7306TIP3    H246114   2.245   4.181   7.917 -0.2441 -0.1470 -1.1411
 7307TIP3   OH246115   2.617   6.448   6.542  0.0559  0.1461  0.1203
 7307TIP3    H146116   2.552   6.519   6.538  0.0762  0.1291 -1.0473
 7307TIP3    H246117   2.606   6.410   6.629 -2.4218 -0.7053 -0.4844
 7308TIP3   OH246118   2.680   0.568   6.852  0.8992  0.1826 -0.0449
 7308TIP3    H146119   2.685   0.663   6.846  0.3050  0.3703  1.9288
 7308TIP3    H246120   2.653   0.550   6.942  1.2991 -1.8743 -0.2800
 7309TIP3   OH246121   5.320   2.944   8.364  0.7919  0.2134  0.0865
 7309TIP3    H146122   5.316   3.038   8.380 -0.2894  0.3894 -1.0351
 7309TIP3    H246123   5.398   2.931   8.310  0.4273  0.6138 -0.5494
 7310TIP3   OH246124   6.071   1.971   8.763 -0.2269  0.3311 -0.1590
 7310TIP3    H146125   6.124   2.045   8.733 -0.9921  0.6251 -0.8255
 7310TIP3    H246126   5.982   2.006   8.768 -1.1411 -1.2303 -3.2424
 7311TIP3   OH246127   1.020   5.581   6.080  0.1105  0.3500 -0.3506
 7311TIP3    H146128   0.985   5.632   6.153  2.0688 -2.6430  3.0396
 7311TIP3    H246129   0.957   5.510   6.068  0.5101  0.0299 -0.5828
 7312TIP3   OH246130   1.880   4.065   7.594 -0.5231 -0.0196  0.0871
 7312TIP3    H146131   1.864   3.978   7.631 -2.3783 -0.7421 -2.2553
 7312TIP3    H246132   1.923   4.048   7.510  0.6407  1.4536  0.3320
 7313TIP3   OH246133   3.423   3.178   6.282 -0.1669  0.1170  0.0341
 7313TIP3    H146134   3.500   3.163   6.229  0.9113  0.7096  1.3736
 7313TIP3    H246135   3.428   3.271   6.306 -1.3812  0.2073  0.0254
 7314TIP3   OH246136   1.492   4.959   6.624  0.4627 -0.4132 -0.3881
 7314TIP3    H146137   1.425   4.892   6.637 -1.0657  1.0870 -0.0848
 7314TIP3    H246138   1.552   4.948   6.697 -1.6804  0.6740  1.6782
 7315TIP3   OH246139   1.918   0.028   5.690 -0.0604  0.2546 -0.0026
 7315TIP3    H146140   1.885   0.087   5.757 -0.3016  1.1888 -0.9230
 7315TIP3    H246141   2.011   0.050   5.683  0.2897 -0.7795  0.9470
 7316TIP3   OH246142   3.791   2.839   8.173 -0.6031 -0.2055  0.4388
 7316TIP3    H146143   3.830   2.891   8.102 -1.6076  0.5070  0.3864
 7316TIP3    H246144   3.796   2.897   8.250  0.5196 -0.9878  0.9848
 7317TIP3   OH246145   3.036   1.053   5.453  0.6038  0.0465  0.3806
 7317TIP3    H146146   3.123   1.032   5.419  0.1374 -3.1540  0.9083
 7317TIP3    H246147   3.050   1.068   5.546  0.8057  1.4418  0.1512
 7318TIP3   OH246148   5.912   3.064   8.690 -0.1809  0.0025  0.2827
 7318TIP3    H146149   5.900   3.014   8.770 -0.9813 -0.6979 -0.2573
 7318TIP3    H246150   5.981   3.127   8.711 -1.4597  0.9223  2.0280
 7319TIP3   OH246151   0.513   4.472   5.535  0.0432 -0.1444 -0.5338
 7319TIP3    H146152   0.457   4.483   5.611  1.9740  0.9285  0.8095
 7319TIP3    H246153   0.565   4.395   5.554  1.3797  0.8175 -0.1708
 7320TIP3   OH246154   0.173   4.774   8.088 -0.2951 -0.1537  0.3756
 7320TIP3    H146155   0.212   4.848   8.040  1.0688 -1.1283 -0.0709
 7320TIP3    H246156   0.220   4.772   8.171  1.2838 -1.8180 -0.4735
 7321TIP3   OH246157   0.779   1.279   7.395 -0.3483 -0.7114 -0.0166
 7321TIP3    H146158   0.821   1.193   7.402  0.2113 -0.4123  0.3821
 7321TIP3    H246159   0.727   1.274   7.315 -0.8332 -1.6352  0.3464
 7322TIP3   OH246160   3.975   4.845   4.853 -0.1019 -0.3627 -0.1813
 7322TIP3    H146161   3.910   4.797   4.802 -0.8473  0.6106 -0.1812
 7322TIP3    H246162   3.942   4.843   4.943  0.2241 -0.4464 -0.0622
 7323TIP3   OH246163   4.211   5.462   8.093 -0.2386 -0.0798  0.2145
 7323TIP3    H146164   4.215   5.369   8.069 -2.3189  0.2629 -1.8139
 7323TIP3    H246165   4.127   5.471   8.137 -0.5589  1.0024 -0.5754
 7324TIP3   OH246166   3.551   5.019   6.065 -0.0537  0.0826  0.1188
 7324TIP3    H146167   3.644   5.035   6.051 -0.2216  0.9358 -0.0741
 7324TIP3    H246168   3.544   4.997   6.158  0.0232  2.6815  0.8039
 7325TIP3   OH246169   1.013   1.577   9.100  0.1315  0.1297  0.1665
 7325TIP3    H146170   0.926   1.617   9.105  0.5472  1.4403 -1.8338
 7325TIP3    H246171   1.058   1.606   9.179 -1.4905 -1.3230  1.7076
 7326TIP3   OH246172   0.020   2.030   6.345  0.4238 -0.3916  0.5470
 7326TIP3    H146173  -0.045   1.998   6.281  1.7898 -2.4786  0.1164
 7326TIP3    H246174   0.098   2.048   6.292  1.7247 -2.5627  1.6005
 7327TIP3   OH246175   6.520   4.664   5.550 -0.2800 -0.1156  0.1840
 7327TIP3    H146176   6.601   4.620   5.577 -1.1092 -0.4800  2.3077
 7327TIP3    H246177   6.549   4.738   5.496  1.3617 -0.9912 -0.1951
 7328TIP3   OH246178   4.794   1.688   8.071 -0.0605 -0.2068  0.3789
 7328TIP3    H146179   4.703   1.708   8.094 -0.7528 -3.5357  1.2294
 7328TIP3    H246180   4.799   1.700   7.977 -1.9986 -1.6844  0.0266
 7329TIP3   OH246181   2.837   4.528   6.290 -0.0907 -0.1617 -0.1138
 7329TIP3    H146182   2.834   4.623   6.281 -1.7740 -0.1152  0.6901
 7329TIP3    H246183   2.859   4.514   6.383  1.2714 -0.5884 -0.4735
 7330TIP3   OH246184   5.524   1.218   8.288  0.0815  0.5740 -0.1517
 7330TIP3    H146185   5.464   1.280   8.245  0.7466 -0.0267 -2.0778
 7330TIP3    H246186   5.468   1.143   8.308 -0.3730  1.1077  0.6329
 7331TIP3   OH246187   3.459   2.390   7.867  0.8613  0.0653 -0.3919
 7331TIP3    H146188   3.493   2.329   7.802  0.7348 -1.4538  0.9105
 7331TIP3    H246189   3.485   2.353   7.951  0.3051  1.5354  0.4702
 7332TIP3   OH246190   6.446   2.863   5.598  0.5579 -0.5592 -0.0186
 7332TIP3    H146191   6.463   2.887   5.689  0.5673 -1.2107  0.1592
 7332TIP3    H246192   6.435   2.947   5.553 -1.5890 -0.2355  0.9878
 7333TIP3   OH246193   2.601   2.202   6.743  0.0652  0.0752 -0.2164
 7333TIP3    H146194   2.584   2.294   6.724  1.9022  0.6318  0.5387
 7333TIP3    H246195   2.693   2.201   6.771  0.6844 -2.2657 -2.0641
 7334TIP3   OH246196   2.915   4.952   7.722 -0.1565  0.1676 -0.2540
 7334TIP3    H146197   2.859   4.912   7.789 -0.5029 -0.8704 -1.1399
 7334TIP3    H246198   2.854   5.002   7.668  0.0540  0.6106 -0.0830
 7335TIP3   OH246199   5.874   4.400   8.048  0.1962 -0.7297 -0.0811
 7335TIP3    H146200   5.966   4.377   8.056  0.1726 -0.1063  3.9788
 7335TIP3    H246201   5.830   4.317   8.029  1.4759 -1.1931 -1.1342
 7336TIP3   OH246202   3.949   2.036   7.725  0.5085 -0.1328  0.2532
 7336TIP3    H146203   3.876   2.085   7.765  1.1758  2.7285 -1.7257
 7336TIP3    H246204   3.987   1.986   7.797 -1.4014  0.8332  2.0309
 7337TIP3   OH246205   3.972   2.612   6.211  0.8672  0.0281  0.4105
 7337TIP3    H146206   3.877   2.604   6.223  0.7486  1.9289  1.0784
 7337TIP3    H246207   4.006   2.523   6.227 -0.9195 -1.1103 -1.5642
 7338TIP3   OH246208   2.826   0.784   6.432  0.2565  0.3357  0.1654
 7338TIP3    H146209   2.838   0.696   6.467  3.8646  0.1694 -1.0702
 7338TIP3    H246210   2.826   0.841   6.509 -0.3828 -0.5942  0.8690
 7339TIP3   OH246211   0.543   6.361   7.416 -0.1819  0.1145 -0.1463
 7339TIP3    H146212   0.567   6.397   7.501 -0.2566  0.8343 -0.4219
 7339TIP3    H246213   0.590   6.416   7.353  0.0243 -0.5319 -0.5627
 7340TIP3   OH246214   0.577   2.061   7.007 -0.0041 -0.5548  0.3837
 7340TIP3    H146215   0.573   1.985   6.949 -0.3271 -0.3714  0.1609
 7340TIP3    H246216   0.667   2.062   7.039  1.3285  1.4615 -2.9840
 7341TIP3   OH246217   1.413   3.237   7.493 -1.1125 -0.5072 -0.0754
 7341TIP3    H146218   1.380   3.265   7.408 -0.0651  0.5249 -0.1605
 7341TIP3    H246219   1.397   3.311   7.551 -1.9451 -1.2528  0.6841
 7342TIP3   OH246220   3.116   4.172   5.964 -0.0934  0.5398 -0.5252
 7342TIP3    H146221   3.207   4.144   5.967 -0.2479  0.1071  0.5898
 7342TIP3    H246222   3.119   4.266   5.985 -0.0392  0.1248  1.5595
 7343TIP3   OH246223   1.866   5.913   6.378 -0.3624 -0.3552 -0.9429
 7343TIP3    H146224   1.795   5.977   6.381 -1.2614 -1.2234 -2.5292
 7343TIP3    H246225   1.897   5.915   6.288  1.5659 -0.1029 -0.3168
 7344TIP3   OH246226   6.427   5.366   7.805 -0.2192 -0.4325 -0.2302
 7344TIP3    H146227   6.454   5.457   7.803  0.6856 -0.6843 -1.9718
 7344TIP3    H246228   6.504   5.317   7.776 -1.0923 -1.6207 -0.6677
 7345TIP3   OH246229   1.678   1.967   7.432  0.1429 -0.3783  0.3058
 7345TIP3    H146230   1.612   1.926   7.376  1.2972 -2.5656  0.4484
 7345TIP3    H246231   1.753   1.908   7.428  0.6490 -0.0861  3.3305
 7346TIP3   OH246232   2.056   0.289   7.654 -0.2483 -0.3070  0.5645
 7346TIP3    H146233   2.113   0.290   7.577 -0.1010 -1.1774  0.6532
 7346TIP3    H246234   2.115   0.308   7.727 -0.1501 -0.7713  0.6069
 7347TIP3   OH246235   5.668   1.815   8.052  0.2906  0.3319 -0.1439
 7347TIP3    H146236   5.587   1.846   8.011 -0.4486 -2.3563 -0.9096
 7347TIP3    H246237   5.638   1.772   8.133  0.7395 -1.5785 -0.9272
 7348TIP3   OH246238   4.384   1.388   8.369 -0.6395 -0.2488 -0.2630
 7348TIP3    H146239   4.467   1.352   8.400 -0.1401  2.1638  1.4544
 7348TIP3    H246240   4.317   1.340   8.418 -0.1262 -0.5335  0.1684
 7349TIP3   OH246241   0.359   1.203   7.867 -0.1497 -0.1955  0.8227
 7349TIP3    H146242   0.332   1.119   7.904 -0.1302 -1.3475 -1.6155
 7349TIP3    H246243   0.416   1.181   7.793  0.7541  2.0071  0.7590
 7350TIP3   OH246244   6.075   4.117   6.548 -0.4083 -0.2788 -0.7542
 7350TIP3    H146245   6.155   4.169   6.557 -0.4823 -0.2335 -0.3603
 7350TIP3    H246246   6.107   4.028   6.533 -0.2538 -0.6231  1.3270
 7351TIP3   OH246247   4.788   4.025   7.143  0.6177  0.0221  0.4909
 7351TIP3    H146248   4.721   4.093   7.151 -0.6847 -1.2314  0.6673
 7351TIP3    H246249   4.766   3.980   7.061  0.6012 -1.0771  1.0891
 7352TIP3   OH246250   2.053   0.047   6.265  0.0755  0.6030  0.0346
 7352TIP3    H146251   2.057   0.061   6.170  0.6938 -3.0820 -0.6230
 7352TIP3    H246252   1.967   0.006   6.279 -0.3481  1.8520  1.2276
 7353TIP3   OH246253   0.921   5.106   7.088 -0.5876  0.4085 -0.0348
 7353TIP3    H146254   0.934   5.200   7.079  1.0620  0.2844  0.7886
 7353TIP3    H246255   0.992   5.076   7.145 -0.2474 -1.5470 -1.3643
 7354TIP3   OH246256   2.442   2.280   8.221 -0.2832 -0.4057 -0.2143
 7354TIP3    H146257   2.435   2.201   8.168  1.2015  0.3425 -1.6414
 7354TIP3    H246258   2.531   2.311   8.205 -0.1587  0.4973  1.8702
 7355TIP3   OH246259   2.591   3.893   7.429  0.3069 -0.0253  0.1690
 7355TIP3    H146260   2.499   3.919   7.422  0.6046  0.6748 -1.9078
 7355TIP3    H246261   2.607   3.839   7.351  1.9911  1.0168 -0.2572
 7356TIP3   OH246262   0.588   4.887   7.206  0.0375  1.1515 -0.0712
 7356TIP3    H146263   0.648   4.924   7.271  0.4938  0.9784 -0.3973
 7356TIP3    H246264   0.631   4.900   7.122 -1.5013  3.3518 -0.6002
 7357TIP3   OH246265   1.759   6.690   6.308 -0.5262  0.6797 -0.2221
 7357TIP3    H146266   1.752   6.659   6.398  0.5191 -1.0503 -0.7071
 7357TIP3    H246267   1.730   6.781   6.312 -1.5805  0.3130  1.6514
 7358TIP3   OH246268   3.791   6.617   5.808  0.4151  0.1108 -0.1176
 7358TIP3    H146269   3.784   6.708   5.836  1.9005  0.1240  0.3241
 7358TIP3    H246270   3.770   6.618   5.715  1.3193  1.0782 -0.3305
 7359TIP3   OH246271   6.473   4.168   5.472 -0.1801 -0.3326 -0.2993
 7359TIP3    H146272   6.475   4.111   5.395  0.6154 -1.9078  0.8451
 7359TIP3    H246273   6.383   4.201   5.474  0.1283  0.8787 -2.6563
 7360TIP3   OH246274   5.300   5.719   7.308  0.5416  0.3536 -0.0474
 7360TIP3    H146275   5.219   5.770   7.297  1.2380  1.4177 -0.4352
 7360TIP3    H246276   5.298   5.689   7.399 -0.6698 -0.3256 -0.2796
 7361TIP3   OH246277   1.316   1.372   8.513 -0.2977  0.6212 -0.5429
 7361TIP3    H146278   1.327   1.278   8.505 -0.6705  0.4686  0.6148
 7361TIP3    H246279   1.308   1.388   8.607 -1.4417  1.6557 -0.7891
 7362TIP3   OH246280   0.693   4.724   8.826  0.1356 -0.6056  0.4393
 7362TIP3    H146281   0.613   4.676   8.804 -0.2237 -0.7533  1.9588
 7362TIP3    H246282   0.754   4.656   8.856  1.0172 -0.5530 -1.1255
 7363TIP3   OH246283   6.582   4.633   6.524  0.6325 -0.1908  0.3396
 7363TIP3    H146284   6.616   4.593   6.604  1.4954 -1.8081 -0.7643
 7363TIP3    H246285   6.658   4.641   6.467 -0.1172  0.0824 -0.6451
 7364TIP3   OH246286   2.077   1.574   8.426 -0.3890 -0.4050 -0.1139
 7364TIP3    H146287   2.022   1.608   8.356  0.2543  0.2791 -0.2941
 7364TIP3    H246288   2.016   1.557   8.498 -0.6296  2.2270  0.4045
 7365TIP3   OH246289   6.165   3.015   8.553  0.0017  0.1682  0.3310
 7365TIP3    H146290   6.124   2.947   8.607 -0.5051  1.0473  1.0743
 7365TIP3    H246291   6.186   3.086   8.614  1.7724  0.1544 -0.1976
 7366TIP3   OH246292   4.262   5.927   7.405 -0.1860  0.6915  0.2700
 7366TIP3    H146293   4.300   5.846   7.441 -0.5194 -0.0671 -1.0169
 7366TIP3    H246294   4.325   5.995   7.428  0.2047  0.0338  1.2011
 7367TIP3   OH246295   3.146   2.032   7.506  0.0085 -0.3824  0.3042
 7367TIP3    H146296   3.080   2.050   7.439 -0.7761 -0.9254  0.9238
 7367TIP3    H246297   3.190   1.952   7.476  0.7949  0.2849 -0.3966
 7368TIP3   OH246298   3.038   4.742   7.992 -0.3584 -0.0003 -0.3981
 7368TIP3    H146299   3.026   4.825   7.947 -0.3516  0.5605  0.5960
 7368TIP3    H246300   3.132   4.727   7.992 -0.3838 -0.1641 -0.8445
 7369TIP3   OH246301   4.930   5.398   8.013 -0.0802  0.2743  0.1418
 7369TIP3    H146302   4.845   5.439   7.997 -0.0524  0.0298 -0.6549
 7369TIP3    H246303   4.962   5.373   7.926  0.6409  0.0322  0.4679
 7370TIP3   OH246304   4.311   0.443   6.183 -0.2648  0.1177  0.2954
 7370TIP3    H146305   4.306   0.370   6.244 -0.3256  0.1103  0.2821
 7370TIP3    H246306   4.249   0.421   6.113  0.3165 -0.1979 -0.1262
 7371TIP3   OH246307   4.038   0.427   8.484  0.2522  0.1177  0.7412
 7371TIP3    H146308   4.019   0.505   8.537  2.5841 -0.7633  3.1076
 7371TIP3    H246309   4.043   0.356   8.548 -0.8839 -1.8816 -1.2436
 7372TIP3   OH246310   3.459   6.039   5.637 -0.5894  0.1187 -0.1510
 7372TIP3    H146311   3.531   6.077   5.587 -1.3661  0.7928 -0.7906
 7372TIP3    H246312   3.405   6.114   5.661 -1.0035 -0.3639  0.4336
 7373TIP3   OH246313   2.677   6.674   5.916  0.2469  0.5483 -0.4116
 7373TIP3    H146314   2.691   6.593   5.868  2.7041  0.9939 -0.5551
 7373TIP3    H246315   2.707   6.656   6.005 -2.3325  0.3598  0.5048
 7374TIP3   OH246316   3.522   3.126   8.490  0.3937 -0.6730 -0.3806
 7374TIP3    H146317   3.576   3.157   8.564 -0.7483 -1.4476  0.8246
 7374TIP3    H246318   3.487   3.042   8.520 -0.4684 -0.7916 -1.6449
 7375TIP3   OH246319   0.836   6.437   8.318  0.2416 -0.2636 -0.0873
 7375TIP3    H146320   0.853   6.484   8.237 -2.1380 -0.8270 -1.0074
 7375TIP3    H246321   0.858   6.346   8.299 -0.1180 -0.3615 -0.0512
 7376TIP3   OH246322   4.001   3.307   8.572  0.2705 -0.2256 -0.3089
 7376TIP3    H146323   3.997   3.353   8.656 -2.4015 -1.1461  0.1850
 7376TIP3    H246324   3.909   3.301   8.544  1.0007 -0.8391 -2.8129
 7377TIP3   OH246325   2.866   1.170   7.017  0.2601  0.5449  0.3421
 7377TIP3    H146326   2.946   1.164   6.965  0.8468 -2.0201  1.4020
 7377TIP3    H246327   2.894   1.151   7.107 -0.9828  3.3309  1.4596
 7378TIP3   OH246328   1.496   5.290   5.853  0.7189 -0.1505  0.3173
 7378TIP3    H146329   1.525   5.225   5.789 -0.3561 -0.9359  0.6108
 7378TIP3    H246330   1.523   5.253   5.938 -0.0079 -0.2979  0.4937
 7379TIP3   OH246331   4.241   5.614   6.505  0.6126  0.4655  0.4354
 7379TIP3    H146332   4.181   5.689   6.505 -0.9694 -0.7334  1.1950
 7379TIP3    H246333   4.231   5.576   6.418 -1.6157 -1.0793  1.2660
 7380TIP3   OH246334   3.138   2.097   9.184  0.4301 -0.2072  0.1127
 7380TIP3    H146335   3.192   2.127   9.111  0.6321  0.2649  0.4570
 7380TIP3    H246336   3.194   2.106   9.261  0.0680 -0.2871  0.3864
 7381TIP3   OH246337   4.734   6.428   7.616  0.4338 -0.0569 -0.2262
 7381TIP3    H146338   4.682   6.449   7.539  0.6472 -1.1425 -0.6865
 7381TIP3    H246339   4.714   6.336   7.634  0.0744  0.2765  1.2670
 7382TIP3   OH246340   5.246   0.813   6.916  0.3183 -0.2648 -0.1050
 7382TIP3    H146341   5.269   0.891   6.967  0.4886 -1.3252  1.5191
 7382TIP3    H246342   5.271   0.835   6.826  0.9405  1.3131  0.4169
 7383TIP3   OH246343   0.947   2.376   5.572 -0.1798  0.1882  0.2535
 7383TIP3    H146344   1.039   2.349   5.572  0.0183  0.8460 -0.0026
 7383TIP3    H246345   0.930   2.403   5.662  0.8070  3.0685 -0.3052
 7384TIP3   OH246346   5.122   3.255   7.298 -0.1751 -0.2271 -0.3290
 7384TIP3    H146347   5.168   3.324   7.346 -1.3572  0.2458  0.1511
 7384TIP3    H246348   5.065   3.214   7.363 -2.9234  1.4005 -1.5223
 7385TIP3   OH246349   3.392   2.159   6.083 -0.1937 -0.0618 -0.2226
 7385TIP3    H146350   3.316   2.204   6.046  0.1567 -0.0008 -0.8838
 7385TIP3    H246351   3.454   2.229   6.103 -0.7172 -0.0020  1.3463
 7386TIP3   OH246352   0.755   4.464   7.228  0.2777 -0.0531  0.3290
 7386TIP3    H146353   0.679   4.464   7.171 -0.0690  1.8422  0.7160
 7386TIP3    H246354   0.830   4.472   7.169  0.1241 -0.8539  0.0112
 7387TIP3   OH246355   1.208   2.859   6.147  0.3247  0.0298  0.6719
 7387TIP3    H146356   1.287   2.864   6.093 -0.3718 -1.1288 -0.5157
 7387TIP3    H246357   1.228   2.912   6.224  1.7989  0.7577 -0.1703
 7388TIP3   OH246358   1.034   1.373   8.183 -0.3969 -0.1895  0.2335
 7388TIP3    H146359   0.941   1.367   8.158 -0.6762 -1.3863  1.4227
 7388TIP3    H246360   1.037   1.335   8.271  1.1816  0.1351  0.3420
 7389TIP3   OH246361   5.002   1.024   6.892 -1.0375  0.1139  0.1390
 7389TIP3    H146362   5.033   1.080   6.964 -0.1342 -0.4192  0.1684
 7389TIP3    H246363   4.914   0.997   6.920 -0.4716 -0.5656  1.3360
 7390TIP3   OH246364   2.118   4.499   9.027  0.1568  0.3442  0.1906
 7390TIP3    H146365   2.046   4.545   8.984 -1.5145 -0.8394  1.5889
 7390TIP3    H246366   2.145   4.558   9.098 -2.2027 -0.7950  2.1938
 7391TIP3   OH246367   6.456   1.384   6.893  0.3829  0.1743 -0.4760
 7391TIP3    H146368   6.493   1.299   6.872  1.3422  0.3303  0.4713
 7391TIP3    H246369   6.524   1.447   6.869  2.0570  0.3288  3.6837
 7392TIP3   OH246370   1.434   3.178   8.945  0.2593  0.3634 -0.1084
 7392TIP3    H146371   1.381   3.168   8.866 -0.3115 -0.5083  0.3638
 7392TIP3    H246372   1.491   3.101   8.947  2.1697  1.6817 -1.0228
 7393TIP3   OH246373   5.973   4.729   5.364  0.2742 -0.2009  0.3553
 7393TIP3    H146374   5.946   4.807   5.317 -0.2545 -0.5160  0.1358
 7393TIP3    H246375   6.040   4.760   5.425  4.6670 -0.4235 -3.7597
 7394TIP3   OH246376   1.035   0.798   7.493 -0.1027  0.2022  0.4092
 7394TIP3    H146377   0.981   0.868   7.456 -1.1885 -0.7667  0.1253
 7394TIP3    H246378   1.091   0.770   7.421 -0.3458  0.1112  0.2586
 7395TIP3   OH246379   5.834   1.934   7.532 -0.0975  0.0909 -0.3976
 7395TIP3    H146380   5.840   1.856   7.477 -0.3001 -0.0111 -0.2728
 7395TIP3    H246381   5.746   1.932   7.567  1.1876 -2.1054  3.2522
 7396TIP3   OH246382   1.030   0.393   5.745 -0.2000  0.2874 -0.2377
 7396TIP3    H146383   0.985   0.309   5.734  0.2324  0.0782 -0.4405
 7396TIP3    H246384   1.123   0.371   5.737 -0.1289  0.9452 -1.3338
 7397TIP3   OH246385   2.551   3.176   7.766  0.0025  0.8161 -0.1662
 7397TIP3    H146386   2.533   3.087   7.736 -1.7388  1.0912 -0.0060
 7397TIP3    H246387   2.592   3.218   7.690  1.1161 -0.1699 -0.1508
 7398TIP3   OH246388   5.675   3.233   6.747 -0.6683  0.2574 -0.1646
 7398TIP3    H146389   5.603   3.220   6.685 -1.0066 -1.9311  0.6073
 7398TIP3    H246390   5.694   3.327   6.742 -0.3816  0.1476 -3.8859
 7399TIP3   OH246391   4.359   2.699   7.136  0.0836  0.3016 -0.4153
 7399TIP3    H146392   4.271   2.728   7.157  0.4601  2.2422 -1.3214
 7399TIP3    H246393   4.364   2.704   7.040  1.9651  2.9561 -0.2954
 7400TIP3   OH246394   4.559   5.629   6.296 -0.1849 -0.7443 -0.0451
 7400TIP3    H146395   4.488   5.692   6.307  0.8831  0.4918  0.0743
 7400TIP3    H246396   4.515   5.544   6.286 -1.6770  0.0318 -0.4212
 7401TIP3   OH246397   4.777   3.424   6.556 -0.6405  0.1312 -0.8311
 7401TIP3    H146398   4.861   3.438   6.512  0.1646  0.1786  0.6887
 7401TIP3    H246399   4.719   3.490   6.518  0.1574  0.4935 -1.4569
 7402TIP3   OH246400   4.074   4.200   8.696  0.1278 -0.1056  0.1016
 7402TIP3    H146401   4.003   4.157   8.743 -0.0973  1.1251  0.9527
 7402TIP3    H246402   4.057   4.183   8.604 -1.5165  0.5050  0.2637
 7403TIP3   OH246403   2.807   3.100   7.108 -0.0153 -0.6738 -0.1807
 7403TIP3    H146404   2.776   3.190   7.096  1.3781 -0.1949 -0.3731
 7403TIP3    H246405   2.727   3.049   7.120 -0.9435  0.3527 -1.5865
 7404TIP3   OH246406   3.731   6.288   5.465 -0.4315  0.2335  0.0294
 7404TIP3    H146407   3.753   6.254   5.379 -2.7109 -0.7028 -0.2382
 7404TIP3    H246408   3.778   6.231   5.526  0.0078 -0.0295 -0.5403
 7405TIP3   OH246409   6.239   4.617   6.454  0.4278  0.5934 -0.6185
 7405TIP3    H146410   6.277   4.531   6.432  0.3065  0.7223 -1.3564
 7405TIP3    H246411   6.314   4.670   6.479  0.2982 -0.3614  2.1205
 7406TIP3   OH246412   2.436   0.719   6.602 -0.8048  0.1546 -0.2370
 7406TIP3    H146413   2.461   0.734   6.693  1.2150 -0.3238 -0.6715
 7406TIP3    H246414   2.374   0.789   6.582  0.4327  1.6173  0.8530
 7407TIP3   OH246415   3.870   1.965   7.014  0.0940  0.1730  0.3173
 7407TIP3    H146416   3.870   2.019   6.935  0.2106  0.0014  0.1978
 7407TIP3    H246417   3.847   1.878   6.983 -1.1343  0.3628  0.6611
 7408TIP3   OH246418   1.475   4.546   7.405 -0.2403  0.6076 -0.1631
 7408TIP3    H146419   1.460   4.534   7.311 -0.6843  1.3977 -0.2041
 7408TIP3    H246420   1.539   4.479   7.428  0.7147  1.0880 -1.2640
 7409TIP3   OH246421   5.361   2.941   5.998  0.2438 -0.3828  0.1208
 7409TIP3    H146422   5.407   2.858   5.983  2.0949  0.6763 -0.5123
 7409TIP3    H246423   5.425   3.008   5.973 -0.9946  1.2584  1.1445
 7410TIP3   OH246424   3.023   3.172   6.519 -0.5658 -0.3152  0.3030
 7410TIP3    H146425   2.972   3.111   6.465 -0.7159  0.2751 -0.2305
 7410TIP3    H246426   2.986   3.163   6.606 -0.4597 -1.1312  0.2698
 7411TIP3   OH246427   5.259   4.293   5.919  0.2459 -0.2496  0.0251
 7411TIP3    H146428   5.347   4.266   5.945 -0.0082 -1.5337 -0.3909
 7411TIP3    H246429   5.201   4.231   5.962 -0.3353 -0.7279 -1.4065
 7412TIP3   OH246430   3.101   3.926   6.347  0.0089 -0.2786  0.2929
 7412TIP3    H146431   3.136   3.981   6.417  0.4170  0.5788 -0.5599
 7412TIP3    H246432   3.009   3.914   6.369 -0.4919  2.0754 -0.2894
 7413TIP3   OH246433   1.039   1.414   7.378  0.2877  0.4261  0.5356
 7413TIP3    H146434   0.995   1.420   7.462  1.0141  0.6264  0.9100
 7413TIP3    H246435   0.996   1.479   7.323  0.2877  0.8085  0.9799
 7414TIP3   OH246436   3.833   1.318   7.420  0.1222  0.0865  0.4019
 7414TIP3    H146437   3.878   1.234   7.413 -0.3117 -0.1120 -0.0628
 7414TIP3    H246438   3.816   1.328   7.514 -2.2429 -1.6727  0.2506
 7415TIP3   OH246439   3.018   2.538   5.547  0.1701 -0.7083 -0.6324
 7415TIP3    H146440   3.003   2.522   5.640  0.1986 -1.5084 -0.7554
 7415TIP3    H246441   3.096   2.595   5.544 -0.3716  0.0701 -0.1456
 7416TIP3   OH246442   6.399   1.467   7.174 -0.0270 -0.2438 -0.0532
 7416TIP3    H146443   6.409   1.428   7.088  1.1105 -0.0809 -0.0096
 7416TIP3    H246444   6.440   1.553   7.166  2.4419 -1.1945  1.3069
 7417TIP3   OH246445   6.201   4.184   5.334  0.9492 -0.5382  0.0772
 7417TIP3    H146446   6.196   4.089   5.339  1.1420 -0.5450  0.1184
 7417TIP3    H246447   6.263   4.202   5.264  1.4511 -0.4412  0.5411
 7418TIP3   OH246448   6.137   1.861   6.738 -0.1402  0.2531  0.3837
 7418TIP3    H146449   6.095   1.776   6.751 -0.5634  0.3962 -0.0585
 7418TIP3    H246450   6.231   1.842   6.747 -0.1615 -0.4640 -0.7940
 7419TIP3   OH246451   5.269   1.506   7.893 -0.2929  0.2884  0.3213
 7419TIP3    H146452   5.298   1.441   7.829  0.5880  0.2099  0.7898
 7419TIP3    H246453   5.239   1.580   7.841  1.6288  0.7490 -0.1886
 7420TIP3   OH246454   5.998   6.683   6.540 -0.2962  0.2593  0.4342
 7420TIP3    H146455   6.023   6.762   6.588  0.0395  0.2321  0.3089
 7420TIP3    H246456   5.929   6.713   6.480  0.7338  0.7495 -0.5326
 7421TIP3   OH246457   0.109   1.404   8.672 -0.1640 -0.1280  0.1664
 7421TIP3    H146458   0.105   1.425   8.765 -0.5934  0.7654 -0.0415
 7421TIP3    H246459   0.032   1.349   8.656 -1.2826  1.4528 -0.0633
 7422TIP3   OH246460   6.206   2.617   6.412 -0.4268  0.0050 -0.0149
 7422TIP3    H146461   6.138   2.644   6.349  1.0949  0.0630 -1.7001
 7422TIP3    H246462   6.183   2.527   6.434 -0.8911 -0.0752 -0.7916
 7423TIP3   OH246463   3.733   2.570   5.774  0.1734 -0.2790 -0.7585
 7423TIP3    H146464   3.796   2.622   5.825 -0.1448  1.9421 -2.4927
 7423TIP3    H246465   3.773   2.483   5.769  2.6837  0.8051 -1.0112
 7424TIP3   OH246466   6.617   6.644   6.761  0.8408 -0.0575 -0.1831
 7424TIP3    H146467   6.667   6.567   6.786  2.2123  1.0739  0.7363
 7424TIP3    H246468   6.574   6.620   6.678 -2.0233 -3.1606  1.9400
 7425TIP3   OH246469   1.710   4.609   7.663 -0.4259  0.0428  0.0544
 7425TIP3    H146470   1.720   4.529   7.715  1.6174  0.6502  0.6971
 7425TIP3    H246471   1.747   4.587   7.578 -1.0457 -0.0481 -0.2024
 7426TIP3   OH246472   4.371   3.807   7.893 -0.0109 -0.0559 -0.8014
 7426TIP3    H146473   4.403   3.817   7.803  1.0429 -3.5415 -0.9817
 7426TIP3    H246474   4.451   3.802   7.946 -0.5959  0.9469  0.2131
 7427TIP3   OH246475   0.228   6.082   5.982 -0.1498 -0.4450 -0.9160
 7427TIP3    H146476   0.310   6.128   5.962  1.1898 -2.3674 -0.1404
 7427TIP3    H246477   0.211   6.029   5.904  0.5722 -1.6755 -0.2763
 7428TIP3   OH246478   4.635   1.083   8.736 -0.4948 -0.3739  0.0361
 7428TIP3    H146479   4.633   1.007   8.678  1.9513  0.6205 -1.5422
 7428TIP3    H246480   4.682   1.053   8.813  0.1395 -0.5964 -0.4265
 7429TIP3   OH246481   0.522   6.662   8.528 -0.1206 -0.4700 -0.2997
 7429TIP3    H146482   0.435   6.671   8.489 -0.2088 -1.7991 -0.4642
 7429TIP3    H246483   0.506   6.663   8.623  0.1525  3.3267 -0.1534
 7430TIP3   OH246484   3.824   1.864   5.945 -0.3143 -0.2525 -0.1558
 7430TIP3    H146485   3.730   1.878   5.938 -0.2259  1.8509  1.6677
 7430TIP3    H246486   3.835   1.814   6.026  0.2003  0.9028  0.5064
 7431TIP3   OH246487   4.976   5.357   7.175  0.1221 -0.5296  0.0220
 7431TIP3    H146488   5.041   5.325   7.238  0.0870  0.8031  0.7781
 7431TIP3    H246489   4.934   5.278   7.141  0.6399 -1.3086  1.1413
 7432TIP3   OH246490   5.848   1.481   7.363 -0.4220 -0.3841 -0.0239
 7432TIP3    H146491   5.815   1.459   7.450  0.5270 -0.1055  0.4192
 7432TIP3    H246492   5.941   1.457   7.365  0.0804  1.3532 -0.3090
 7433TIP3   OH246493   3.892   5.201   7.980  0.3834  0.0428  0.5121
 7433TIP3    H146494   3.905   5.116   8.022  1.5690 -0.5927 -1.0324
 7433TIP3    H246495   3.867   5.180   7.891 -0.5271  1.3458  0.4312
 7434TIP3   OH246496   2.193   6.240   6.694 -0.2606  0.0674 -0.0641
 7434TIP3    H146497   2.146   6.171   6.647  2.8347 -1.1244 -1.7182
 7434TIP3    H246498   2.206   6.204   6.782  2.7325 -2.4560 -1.3246
 7435TIP3   OH246499   3.368   5.538   5.575 -0.5853  0.4943  0.1598
 7435TIP3    H146500   3.353   5.617   5.523  0.8802  0.5132 -0.2603
 7435TIP3    H246501   3.307   5.473   5.537 -1.3449  1.2208  0.1021
 7436TIP3   OH246502   0.498   6.325   8.655 -0.0690  0.3568 -0.1848
 7436TIP3    H146503   0.493   6.369   8.740 -0.5792 -1.3500  0.7100
 7436TIP3    H246504   0.464   6.237   8.672  0.5502 -0.2626 -1.9980
 7437TIP3   OH246505   2.789   4.743   8.925  0.0317 -0.0528 -0.6133
 7437TIP3    H146506   2.832   4.659   8.939 -0.8119 -0.8694 -2.5812
 7437TIP3    H246507   2.696   4.725   8.939 -0.3723  0.0427 -2.9092
 7438TIP3   OH246508   0.873   5.069   6.086 -0.4424 -0.5563  1.2467
 7438TIP3    H146509   0.861   5.059   5.992 -0.9981 -1.6871  1.4220
 7438TIP3    H246510   0.954   5.023   6.106  0.7882  1.4114  1.0539
 7439TIP3   OH246511   2.019   0.364   6.284 -0.0577  0.3991  1.1492
 7439TIP3    H146512   1.944   0.327   6.331 -0.3597 -0.7058 -0.1266
 7439TIP3    H246513   2.092   0.305   6.303 -0.5130 -0.9132 -0.7999
 7440TIP3   OH246514   3.570   0.183   6.353  0.3593  0.0281 -0.3696
 7440TIP3    H146515   3.567   0.147   6.441  1.8327 -0.3118 -0.4284
 7440TIP3    H246516   3.489   0.152   6.312 -1.1594  1.5419  1.3271
 7441TIP3   OH246517   0.802   2.281   6.298  0.0932 -0.1480  0.2670
 7441TIP3    H146518   0.774   2.308   6.211 -0.3614  0.3504  0.5561
 7441TIP3    H246519   0.748   2.334   6.358 -0.2134 -1.0966  0.8539
 7442TIP3   OH246520   4.841   5.973   5.468  0.1814 -0.3955  0.2109
 7442TIP3    H146521   4.916   6.031   5.484 -0.4805  0.7422 -0.6053
 7442TIP3    H246522   4.880   5.887   5.451  1.3511  0.2785 -0.7243
 7443TIP3   OH246523   3.302   3.881   6.090  0.1456  0.4176 -0.5882
 7443TIP3    H146524   3.244   3.921   6.155  0.4034  0.3098 -0.2908
 7443TIP3    H246525   3.390   3.909   6.116  0.2570  0.3044 -0.8439
 7444TIP3   OH246526   4.872   0.753   6.728 -0.1858 -0.2356  0.1992
 7444TIP3    H146527   4.827   0.682   6.681 -0.1023  1.0419 -1.9284
 7444TIP3    H246528   4.907   0.711   6.807 -0.5581 -2.4513 -0.7398
 7445TIP3   OH246529   0.316   3.810   7.229 -0.1331 -0.7224  0.4389
 7445TIP3    H146530   0.388   3.748   7.243  0.3821 -0.3135 -0.3402
 7445TIP3    H246531   0.351   3.895   7.256 -0.1975 -0.4596 -0.2806
 7446TIP3   OH246532   4.131   5.466   6.972 -0.0884  0.0344 -0.6954
 7446TIP3    H146533   4.145   5.492   6.881 -0.8018  0.8135 -0.5910
 7446TIP3    H246534   4.050   5.511   6.998  0.2441  0.0241  0.4073
 7447TIP3   OH246535   3.357   0.755   6.117  0.0369  0.0824  0.1176
 7447TIP3    H146536   3.264   0.779   6.117 -0.0930 -0.3546  1.3975
 7447TIP3    H246537   3.394   0.805   6.189  1.0539  1.0792 -1.0402
 7448TIP3   OH246538   3.273   6.576   6.827 -0.6178 -0.4398  0.5381
 7448TIP3    H146539   3.338   6.632   6.870 -0.9776  1.2647 -1.0027
 7448TIP3    H246540   3.323   6.503   6.791  0.3350  0.4225  0.0830
 7449TIP3   OH246541   4.910   4.884   6.141 -0.3013 -0.3775 -0.1266
 7449TIP3    H146542   4.935   4.959   6.195 -0.3084 -1.0883  0.8907
 7449TIP3    H246543   4.826   4.856   6.177  0.7439 -2.2429  1.0121
 7450TIP3   OH246544   5.446   6.288   6.660 -0.5903 -0.0650  0.1275
 7450TIP3    H146545   5.510   6.222   6.635 -1.0627 -1.1599  1.6580
 7450TIP3    H246546   5.399   6.249   6.734 -0.9526  1.9460  1.0179
 7451TIP3   OH246547   3.154   5.483   7.707 -0.4711 -0.3089 -0.3945
 7451TIP3    H146548   3.219   5.456   7.771 -1.8744  1.2396  1.8446
 7451TIP3    H246549   3.130   5.402   7.661  1.1962 -1.3318  0.4527
 7452TIP3   OH246550   3.709   0.636   6.680 -0.3319 -0.8449  0.1449
 7452TIP3    H146551   3.634   0.578   6.677 -0.8399 -0.2231  0.5412
 7452TIP3    H246552   3.673   0.723   6.663  0.5570 -0.7400 -1.4481
 7453TIP3   OH246553   4.929   1.724   7.650  0.4273 -0.6325  0.0858
 7453TIP3    H146554   4.938   1.813   7.618 -1.6316 -0.9245 -1.4847
 7453TIP3    H246555   4.879   1.732   7.731 -1.0595 -0.4290 -0.8244
 7454TIP3   OH246556   6.496   1.790   8.718 -0.3762 -0.8845  0.3388
 7454TIP3    H146557   6.433   1.732   8.675  0.2221 -1.7079  0.5448
 7454TIP3    H246558   6.467   1.793   8.809 -0.8684 -0.2090  0.1673
 7455TIP3   OH246559   4.993   6.587   8.407 -0.2263  0.1946  0.5962
 7455TIP3    H146560   4.996   6.523   8.478  1.8227  0.5410  0.8840
 7455TIP3    H246561   4.903   6.620   8.408 -0.4431 -0.3465  2.5359
 7456TIP3   OH246562   5.160   4.369   8.071 -0.7977  0.1308 -0.6639
 7456TIP3    H146563   5.204   4.370   8.155 -1.3833  2.3902 -0.3257
 7456TIP3    H246564   5.203   4.299   8.022 -0.1654 -0.9522  1.3361
 7457TIP3   OH246565   5.228   5.696   7.597 -0.1622  0.2860 -0.5118
 7457TIP3    H146566   5.239   5.789   7.579  0.8199  0.3250  0.2009
 7457TIP3    H246567   5.247   5.688   7.691 -2.4145 -0.3011 -0.0357
 7458TIP3   OH246568   0.945   1.270   8.718 -0.3246  0.3291  0.1267
 7458TIP3    H146569   0.968   1.362   8.729 -2.7608  0.9738  0.2333
 7458TIP3    H246570   0.850   1.267   8.726 -0.2721 -2.3037  0.7731
 7459TIP3   OH246571   4.889   1.104   6.061 -0.4151 -0.6573 -0.2540
 7459TIP3    H146572   4.820   1.166   6.035 -0.0303  0.3971  1.1252
 7459TIP3    H246573   4.969   1.140   6.023 -0.1028  0.0247  1.0075
 7460TIP3   OH246574   4.941   4.120   6.451 -0.2862 -0.3364  0.0487
 7460TIP3    H146575   4.924   4.031   6.481 -0.3525 -0.5043 -0.4677
 7460TIP3    H246576   4.927   4.116   6.356  0.1029  0.1282 -0.0336
 7461TIP3   OH246577   1.025   0.752   8.154 -0.2488  0.1548  0.0178
 7461TIP3    H146578   0.930   0.761   8.153 -0.2946 -0.3468 -0.6466
 7461TIP3    H246579   1.044   0.700   8.232 -0.5785 -0.3605 -0.2435
 7462TIP3   OH246580   0.988   0.998   5.435  0.3420 -0.5111 -0.1229
 7462TIP3    H146581   0.934   0.950   5.373  1.5599  1.5463 -3.0208
 7462TIP3    H246582   0.955   1.088   5.431  2.4670  0.3302 -0.3171
 7463TIP3   OH246583   6.051   5.745   6.681 -0.0531  0.1430 -0.2764
 7463TIP3    H146584   6.013   5.694   6.610  0.6414 -0.7173 -0.0537
 7463TIP3    H246585   5.977   5.767   6.738 -0.3455 -0.7492 -0.3001
 7464TIP3   OH246586   0.532   4.507   7.535 -0.3386  0.0862  0.0470
 7464TIP3    H146587   0.501   4.587   7.494  0.6593  0.0555 -0.8297
 7464TIP3    H246588   0.626   4.506   7.516  0.3013  0.2905  2.7234
 7465TIP3   OH246589   0.132   3.202   7.010  0.7654  0.0279  0.2929
 7465TIP3    H146590   0.137   3.201   7.105 -0.8173  0.0928  0.4138
 7465TIP3    H246591   0.090   3.285   6.989 -0.0112 -0.5120 -0.3679
 7466TIP3   OH246592   3.934   4.814   5.127 -0.2363  0.2194  0.3967
 7466TIP3    H146593   4.002   4.855   5.181 -0.0338  0.1466  0.1969
 7466TIP3    H246594   3.858   4.810   5.185 -0.9429  2.8422 -0.2211
 7467TIP3   OH246595   1.538   2.400   5.876  0.2865 -0.2888 -0.4946
 7467TIP3    H146596   1.578   2.486   5.862  1.6700 -0.7016  0.6904
 7467TIP3    H246597   1.453   2.420   5.916 -0.0260  0.5534 -1.5361
 7468TIP3   OH246598   6.220   4.329   7.273 -0.3086 -0.7749 -0.0546
 7468TIP3    H146599   6.163   4.382   7.217  1.1449 -0.0500 -0.9114
 7468TIP3    H246600   6.167   4.312   7.351 -1.2997  0.8245 -0.3157
 7469TIP3   OH246601   5.701   1.765   8.709 -0.6933  0.2893  0.0187
 7469TIP3    H146602   5.753   1.845   8.712  1.2332 -0.9292  2.0037
 7469TIP3    H246603   5.726   1.723   8.626  1.0719  0.0693  0.6128
 7470TIP3   OH246604   4.948   1.362   6.216  0.7613  0.4984  0.3004
 7470TIP3    H146605   4.989   1.303   6.279  0.2545  0.6349  0.7693
 7470TIP3    H246606   4.856   1.335   6.214  0.3605  1.7255  1.0673
 7471TIP3   OH246607   2.711   2.498   5.786 -1.1500 -0.1548  0.2116
 7471TIP3    H146608   2.667   2.430   5.838 -1.5068 -1.6376 -1.8932
 7471TIP3    H246609   2.800   2.500   5.820 -1.1025 -1.7675  0.2836
 7472TIP3   OH246610   3.141   0.231   7.994 -0.0878 -0.0206  0.3903
 7472TIP3    H146611   3.221   0.275   7.964  0.6352 -0.3395  1.7950
 7472TIP3    H246612   3.073   0.264   7.935  1.2423 -0.5951 -1.5625
 7473TIP3   OH246613   6.061   1.845   5.760 -0.6473 -0.2329 -0.3496
 7473TIP3    H146614   6.150   1.812   5.746 -0.7563 -2.1649  2.6613
 7473TIP3    H246615   6.022   1.844   5.672  1.1853 -2.8584 -1.2814
 7474TIP3   OH246616   2.213   1.966   7.161 -0.4196 -0.3614  0.4900
 7474TIP3    H146617   2.277   1.993   7.227 -0.9635 -0.2198  0.9692
 7474TIP3    H246618   2.219   1.870   7.160  2.7264 -0.3194 -2.4203
 7475TIP3   OH246619   5.445   6.299   8.635  0.6050 -0.3996  0.1630
 7475TIP3    H146620   5.494   6.380   8.623 -0.1023 -0.0955 -0.8118
 7475TIP3    H246621   5.373   6.305   8.572 -1.8226  0.0285  2.7505
 7476TIP3   OH246622   0.031   2.814   7.167  0.5276 -0.4102 -0.0924
 7476TIP3    H146623  -0.051   2.781   7.204  1.2005 -1.0568  0.8399
 7476TIP3    H246624   0.027   2.909   7.183 -0.1559 -0.3959 -0.3061
 7477TIP3   OH246625   0.860   4.574   8.946  0.1746  0.3943  0.4013
 7477TIP3    H146626   0.927   4.525   8.900  1.8121  1.3334  1.6884
 7477TIP3    H246627   0.854   4.532   9.032 -1.6695 -0.3122 -0.0025
 7478TIP3   OH246628   6.399   6.616   5.425 -0.8410 -0.2185 -0.6697
 7478TIP3    H146629   6.482   6.642   5.385 -0.5115 -0.6389 -0.2480
 7478TIP3    H246630   6.342   6.693   5.412 -0.5159 -0.0727 -1.2965
 7479TIP3   OH246631   3.598   5.260  13.462 -0.0478  0.3672  0.6293
 7479TIP3    H146632   3.604   5.174  13.502  1.3966  0.5694  0.9185
 7479TIP3    H246633   3.648   5.318  13.520  0.4108  1.0574 -0.4131
 7480TIP3   OH246634   5.531   0.865   8.980 -0.5568 -0.7816  0.2451
 7480TIP3    H146635   5.467   0.934   8.960 -0.0366  0.2216  1.7944
 7480TIP3    H246636   5.485   0.783   8.963 -1.6213 -0.0592 -0.4597
 7481TIP3   OH246637   0.068   5.932   6.669  0.0069  0.3105  0.2252
 7481TIP3    H146638  -0.012   5.983   6.659  0.3382  0.8751  0.4181
 7481TIP3    H246639   0.048   5.869   6.738  0.7369  2.5651  2.6706
 7482TIP3   OH246640   3.506   0.853   6.326 -0.3375  0.7206 -0.1926
 7482TIP3    H146641   3.539   0.937   6.293 -0.7796  0.7572 -0.5509
 7482TIP3    H246642   3.575   0.790   6.302 -0.5061  0.7991 -0.9235
 7483TIP3   OH246643   2.489   5.264   5.983 -0.2089 -0.0648  0.1069
 7483TIP3    H146644   2.460   5.285   6.072 -2.4080 -0.4512 -0.4558
 7483TIP3    H246645   2.538   5.340   5.954 -0.5357  0.5829  1.2168
 7484TIP3   OH246646   0.441   0.495   7.833 -0.2737 -0.2191  0.6095
 7484TIP3    H146647   0.439   0.413   7.882  0.5798 -0.8524 -0.3638
 7484TIP3    H246648   0.528   0.532   7.852 -0.1525 -0.1974  0.0365
 7485TIP3   OH246649   6.283   2.751   6.942 -0.4802  0.2470 -0.5407
 7485TIP3    H146650   6.272   2.832   6.893  5.0285  0.8971 -1.3041
 7485TIP3    H246651   6.308   2.780   7.030  1.3732 -0.5126 -0.7764
 7486TIP3   OH246652   6.540   3.786   7.460  0.4757 -0.0635 -0.1386
 7486TIP3    H146653   6.575   3.708   7.503 -0.0540  0.0654  0.5404
 7486TIP3    H246654   6.449   3.765   7.442  1.1336 -0.8340 -2.9410
 7487TIP3   OH246655   5.851   5.270   8.493  0.0910  0.0421 -0.3725
 7487TIP3    H146656   5.845   5.320   8.575 -0.5761 -1.5760  0.6053
 7487TIP3    H246657   5.923   5.209   8.508 -0.8502 -1.1119 -0.5065
 7488TIP3   OH246658   0.027   0.563   8.445  0.3331  0.2114  0.3098
 7488TIP3    H146659   0.107   0.546   8.396  1.1915  0.7016  1.4799
 7488TIP3    H246660   0.030   0.502   8.519 -1.9264 -1.9307 -1.2091
 7489TIP3   OH246661   4.865   2.208   6.044 -0.2113  0.2492  0.1504
 7489TIP3    H146662   4.828   2.179   5.961 -0.1761 -0.8220  0.4945
 7489TIP3    H246663   4.932   2.143   6.065 -0.7839  0.0189  1.4157
 7490TIP3   OH246664   5.198   5.548   5.763  0.6618  0.3419 -0.0110
 7490TIP3    H146665   5.154   5.477   5.809  0.8072 -0.1009 -0.5439
 7490TIP3    H246666   5.176   5.627   5.812  1.7636 -0.2580  1.5220
 7491TIP3   OH246667   0.041   5.694   7.432  0.0472 -0.7713  0.2124
 7491TIP3    H146668   0.005   5.696   7.344  1.5037  3.3226 -0.5122
 7491TIP3    H246669  -0.020   5.747   7.484  1.7207  1.1705  0.3379
 7492TIP3   OH246670   4.144   1.583   5.821  0.5332 -0.2189  0.0188
 7492TIP3    H146671   4.139   1.645   5.749 -1.6879  0.0095  0.3032
 7492TIP3    H246672   4.177   1.634   5.895 -0.7499  0.5192  0.1078
 7493TIP3   OH246673   0.208   0.020   7.574  0.1990 -0.4629  0.5755
 7493TIP3    H146674   0.261  -0.036   7.631 -1.2055 -0.5585  1.8447
 7493TIP3    H246675   0.126  -0.028   7.564  0.0521  0.0359 -0.7282
 7494TIP3   OH246676   0.584   3.860   6.871  0.2839  0.3239 -0.5107
 7494TIP3    H146677   0.595   3.903   6.786 -1.1757 -1.8214 -1.8807
 7494TIP3    H246678   0.491   3.870   6.892  0.3378 -0.3630  0.1305
 7495TIP3   OH246679   4.571   2.498   5.789  0.0879 -0.0205  0.1298
 7495TIP3    H146680   4.638   2.522   5.852  1.2680 -0.5279 -0.8829
 7495TIP3    H246681   4.553   2.406   5.806 -0.4994  0.1569  0.5111
 7496TIP3   OH246682   0.108   6.238   7.426  0.0754 -0.2281 -0.4761
 7496TIP3    H146683   0.188   6.193   7.455 -1.0105 -2.3646 -0.5777
 7496TIP3    H246684   0.045   6.223   7.496 -0.1845  1.7758 -0.2160
 7497TIP3   OH246685   5.615   1.383   5.784  0.3427 -0.2169 -0.2563
 7497TIP3    H146686   5.626   1.439   5.707  2.2364  2.0633  1.4780
 7497TIP3    H246687   5.704   1.364   5.812 -0.1874  0.8748  2.5170
 7498TIP3   OH246688   0.101   4.899   5.237  0.1954  0.5233  0.6465
 7498TIP3    H146689   0.162   4.916   5.166 -1.0224 -0.4506 -0.6757
 7498TIP3    H246690   0.127   4.813   5.271 -0.2646  0.2268  0.2553
 7499TIP3   OH246691   4.583   5.077   5.300  0.5776 -0.6001 -0.2295
 7499TIP3    H146692   4.575   5.109   5.210  0.9494 -1.7821 -0.7104
 7499TIP3    H246693   4.675   5.090   5.322  0.2371  0.8136  0.4469
 7500TIP3   OH246694   4.383   4.804   8.100  0.0992  0.0015  0.6870
 7500TIP3    H146695   4.353   4.825   8.012 -0.6746 -0.2989  0.8720
 7500TIP3    H246696   4.476   4.828   8.100 -0.2925  1.6510  0.3250
 7501TIP3   OH246697   3.406   5.691   6.256 -0.1972 -0.4602 -0.1701
 7501TIP3    H146698   3.438   5.757   6.194 -2.4061  1.4640  0.5931
 7501TIP3    H246699   3.412   5.735   6.341 -0.7046 -1.6849  0.5130
 7502TIP3   OH246700   2.324   1.546   7.548  0.1177  0.5622 -0.2922
 7502TIP3    H146701   2.244   1.544   7.494 -0.2908  0.2378  0.3203
 7502TIP3    H246702   2.292   1.558   7.637  0.7647  0.5098 -0.0517
 7503TIP3   OH246703   5.314   6.620   6.546  0.3195  0.1848  0.1267
 7503TIP3    H146704   5.305   6.557   6.474  1.3708  0.5324 -0.3247
 7503TIP3    H246705   5.228   6.662   6.552  0.2532  0.2354 -1.0151
 7504TIP3   OH246706   1.376   1.059   6.290  0.0545  0.1775  0.0105
 7504TIP3    H146707   1.288   1.061   6.328 -0.3441 -0.8317 -0.8012
 7504TIP3    H246708   1.403   1.151   6.289 -1.2447  0.5871 -0.2842
 7505TIP3   OH246709   0.941   3.041   6.518  0.1972  0.6056  0.7106
 7505TIP3    H146710   0.932   3.126   6.475 -2.2080  0.7321  1.3281
 7505TIP3    H246711   1.001   3.058   6.591  1.3293  1.2640 -0.3305
 7506TIP3   OH246712   3.034   2.676   7.314 -0.0185  0.8277 -0.0470
 7506TIP3    H146713   3.107   2.723   7.275  2.0800 -1.5238  0.7850
 7506TIP3    H246714   2.997   2.737   7.378  3.2358  1.1255  1.7609
 7507TIP3   OH246715   1.141   0.594   8.632 -0.2423  0.6423  0.1750
 7507TIP3    H146716   1.189   0.588   8.714  1.9444 -0.3158 -1.0825
 7507TIP3    H246717   1.073   0.526   8.639 -0.0851  0.5771  1.1791
 7508TIP3   OH246718   0.887   0.780   5.742  0.2097  0.5407  0.1330
 7508TIP3    H146719   0.931   0.727   5.675  1.5432 -0.6721  1.8821
 7508TIP3    H246720   0.926   0.752   5.824 -2.4883  0.8138  1.6212
 7509TIP3   OH246721   5.220   6.270   7.639  0.3560 -0.5368 -0.6495
 7509TIP3    H146722   5.151   6.230   7.586 -0.4285  0.6876 -0.6112
 7509TIP3    H246723   5.177   6.347   7.678  1.8795  0.5466 -1.0266
 7510TIP3   OH246724   0.210   1.050   5.858  0.1737 -0.0074 -0.2110
 7510TIP3    H146725   0.154   1.072   5.784  0.6292  0.6084 -0.3774
 7510TIP3    H246726   0.158   1.076   5.935 -0.3415 -0.7483 -0.3009
 7511TIP3   OH246727   6.395   0.477   5.994 -0.2629 -0.3531 -0.5264
 7511TIP3    H146728   6.334   0.540   6.033  1.6035  0.3912  1.3882
 7511TIP3    H246729   6.481   0.518   6.004  0.8071 -2.3476 -1.0721
 7512TIP3   OH246730   0.400   1.013   5.481 -0.3909 -0.0143  0.2766
 7512TIP3    H146731   0.486   0.985   5.512 -0.1767  0.7957  0.4502
 7512TIP3    H246732   0.338   0.959   5.530 -0.0052  0.0147  0.8104
 7513TIP3   OH246733   2.793   1.475   6.107 -0.3180 -0.2891  0.2302
 7513TIP3    H146734   2.772   1.535   6.035  0.4744  0.9495  0.9809
 7513TIP3    H246735   2.767   1.524   6.186  1.2660 -0.5080  0.9199
 7514TIP3   OH246736   5.679   1.760   6.658 -0.0409  0.5548 -0.0603
 7514TIP3    H146737   5.599   1.800   6.626  0.2512  0.0270 -1.5395
 7514TIP3    H246738   5.739   1.834   6.671 -0.6653  0.9244  0.8117
 7515TIP3   OH246739   1.101   4.916   6.929 -0.0555  0.0270  0.1282
 7515TIP3    H146740   1.069   4.902   6.840  1.9829 -0.3536 -0.6157
 7515TIP3    H246741   1.102   5.011   6.940 -1.2940  0.0544  0.1604
 7516TIP3   OH246742   2.612   4.660   5.986  0.3088  0.0873  0.0213
 7516TIP3    H146743   2.691   4.606   5.988  0.1164 -0.2368 -0.7673
 7516TIP3    H246744   2.644   4.748   5.966  0.4680 -0.0678 -0.4316
 7517TIP3   OH246745   3.264   0.958   6.397  0.2628  0.1149  0.5200
 7517TIP3    H146746   3.342   0.915   6.361  0.0241  0.3289 -0.2568
 7517TIP3    H246747   3.193   0.934   6.338 -0.1546  0.3984  0.8971
 7518TIP3   OH246748   6.135   2.974   7.709  0.0202 -0.3147 -0.3036
 7518TIP3    H146749   6.128   2.900   7.649 -1.9378  1.3340 -2.3144
 7518TIP3    H246750   6.064   2.961   7.772 -1.1317  0.3758 -1.3986
 7519TIP3   OH246751   4.570   2.447   6.365 -0.1274  0.2104 -0.2823
 7519TIP3    H146752   4.606   2.449   6.454 -0.5288 -1.5702 -0.0264
 7519TIP3    H246753   4.478   2.423   6.377  0.0368 -1.0343 -1.1867
 7520TIP3   OH246754   5.288   2.873   6.724 -0.3820 -0.4026 -0.3972
 7520TIP3    H146755   5.328   2.935   6.785 -1.6780  1.1911 -1.0938
 7520TIP3    H246756   5.289   2.789   6.771  1.9104 -0.0132  0.3560
 7521TIP3   OH246757   5.515   1.888   6.497 -0.7366  0.2769  0.4037
 7521TIP3    H146758   5.561   1.966   6.466 -0.7408  0.5906  1.1702
 7521TIP3    H246759   5.456   1.865   6.426 -0.4008  0.6996 -0.0156
 7522TIP3   OH246760   1.700   3.116   7.539  0.1498  0.0051  0.8015
 7522TIP3    H146761   1.747   3.199   7.529  0.1939  0.2083  2.5184
 7522TIP3    H246762   1.608   3.138   7.527  0.0275  0.5802  2.5843
 7523TIP3   OH246763   3.376   2.377   8.531  0.1404  0.3302  0.1038
 7523TIP3    H146764   3.400   2.469   8.520 -2.0619  0.7688 -1.8058
 7523TIP3    H246765   3.379   2.362   8.625  1.8870  1.9342  0.3642
 7524TIP3   OH246766   3.893   0.756   6.073  0.3896  0.0487 -0.9761
 7524TIP3    H146767   3.926   0.728   5.987  0.3589  0.3709 -1.0949
 7524TIP3    H246768   3.897   0.852   6.070  1.4380  0.0506 -0.2130
 7525TIP3   OH246769   3.843   0.014   7.668  0.4417  0.2901  0.2633
 7525TIP3    H146770   3.881   0.060   7.743 -0.5869  2.0792 -0.2493
 7525TIP3    H246771   3.907   0.025   7.598  0.6578  0.0510  0.4222
 7526TIP3   OH246772   2.544   5.731   7.658  0.2269 -0.8785  0.0788
 7526TIP3    H146773   2.463   5.692   7.624  0.0499 -2.3773  2.0089
 7526TIP3    H246774   2.605   5.728   7.584 -1.3815  0.1464 -1.3799
 7527TIP3   OH246775   1.918   2.440   8.253 -0.4567  0.7328  0.8886
 7527TIP3    H146776   1.888   2.354   8.279 -1.4266 -0.6059 -3.7542
 7527TIP3    H246777   2.014   2.434   8.252 -0.5296 -0.7312 -0.3535
 7528TIP3   OH246778   0.025   4.876   5.828 -0.0941  0.8453  0.0321
 7528TIP3    H146779  -0.044   4.868   5.894  0.3123  0.4377  0.4220
 7528TIP3    H246780  -0.002   4.949   5.773 -0.4443  1.1982  0.6566
 7529TIP3   OH246781   3.080   0.595   6.039  0.1817  0.1160 -0.4863
 7529TIP3    H146782   3.034   0.528   5.989  0.5181  0.2375 -0.9627
 7529TIP3    H246783   3.171   0.588   6.011  0.3806  0.1694  0.1297
 7530TIP3   OH246784   2.351   3.394   7.668 -0.4761  0.2200  0.2258
 7530TIP3    H146785   2.361   3.352   7.753  1.9184  1.4234  0.6202
 7530TIP3    H246786   2.368   3.325   7.605 -0.6881 -0.3234  0.7517
 7531TIP3   OH246787   2.444   1.479   8.561 -0.4995 -0.2927  0.0193
 7531TIP3    H146788   2.389   1.427   8.502 -1.4345 -1.0945  1.5520
 7531TIP3    H246789   2.516   1.420   8.584 -1.8147 -1.1899  2.1428
 7532TIP3   OH246790   6.583   5.414   6.353  0.3315 -0.2818  0.5540
 7532TIP3    H146791   6.624   5.396   6.438  1.8352 -1.1592 -0.3066
 7532TIP3    H246792   6.561   5.327   6.319  0.8205 -0.0258 -0.4514
 7533TIP3   OH246793   3.206   2.967   5.580  0.4959 -0.2504 -0.1411
 7533TIP3    H146794   3.138   2.905   5.553 -0.1628  0.0667  0.7797
 7533TIP3    H246795   3.220   3.023   5.503 -1.2476  0.5497  0.0958
 7534TIP3   OH246796   4.797   2.843   8.130  0.0589 -0.0895  0.7547
 7534TIP3    H146797   4.782   2.934   8.156 -2.6521  0.1972 -1.4084
 7534TIP3    H246798   4.710   2.808   8.113  1.1521 -2.5147 -0.3249
 7535TIP3   OH246799   2.167   4.489   8.172  0.1542 -0.7915  0.1019
 7535TIP3    H146800   2.114   4.568   8.164  0.6139 -0.4728  0.1721
 7535TIP3    H246801   2.194   4.470   8.082 -0.2322 -1.0641  0.0398
 7536TIP3   OH246802   4.046   3.182   5.939 -0.0586  0.9989  0.2457
 7536TIP3    H146803   4.071   3.149   6.025 -1.3435  1.5191  0.8534
 7536TIP3    H246804   3.993   3.112   5.901  0.6173  0.7153 -0.1955
 7537TIP3   OH246805   1.114   1.345   8.998 -0.0943 -0.1201 -0.2170
 7537TIP3    H146806   1.049   1.285   9.034 -0.2496  0.7482  1.0108
 7537TIP3    H246807   1.098   1.428   9.044  3.0249 -0.3153  1.4779
 7538TIP3   OH246808   6.562   6.058   5.673  0.6454  0.3717 -0.1025
 7538TIP3    H146809   6.624   5.999   5.716  0.6571 -0.2149 -0.8802
 7538TIP3    H246810   6.505   5.999   5.623 -1.0183  0.8448  1.1682
 7539TIP3   OH246811   0.801   1.559   8.503  0.1192 -0.5714 -0.1492
 7539TIP3    H146812   0.888   1.588   8.529  0.4390 -1.1504 -0.5528
 7539TIP3    H246813   0.750   1.560   8.585  0.8421 -1.4171  0.3347
 7540TIP3   OH246814   0.826   6.380   8.007  0.0656 -0.2426 -0.4750
 7540TIP3    H146815   0.919   6.394   7.991  0.2682 -0.5664  0.3786
 7540TIP3    H246816   0.814   6.286   7.997 -0.5502 -0.0018 -2.4182
 7541TIP3   OH246817   3.425   0.522   6.932  0.7114 -0.1924  0.2173
 7541TIP3    H146818   3.501   0.464   6.933  2.4858  1.9962  0.6424
 7541TIP3    H246819   3.452   0.596   6.878 -2.1840 -0.5459 -2.0052
 7542TIP3   OH246820   0.887   5.263   5.758 -0.2487  0.2330  0.6606
 7542TIP3    H146821   0.979   5.283   5.739 -0.5055  1.9667  1.0381
 7542TIP3    H246822   0.856   5.339   5.808 -1.4191 -1.1122  2.0811
 7543TIP3   OH246823   2.601   1.274   7.581  0.2444  0.1126 -0.2313
 7543TIP3    H146824   2.533   1.296   7.518 -0.0744 -0.0317  0.0622
 7543TIP3    H246825   2.564   1.203   7.634  0.3950  0.4296  0.3089
 7544TIP3   OH246826   6.105   0.714   6.436 -0.4778 -0.3003  0.2893
 7544TIP3    H146827   6.194   0.692   6.408 -0.2228 -1.4706  1.9086
 7544TIP3    H246828   6.064   0.630   6.452 -0.8459  0.2742  2.6076
 7545TIP3   OH246829   0.722   4.542   9.576  0.5415 -0.0697  0.2969
 7545TIP3    H146830   0.774   4.491   9.639 -1.5593 -1.1999  1.2103
 7545TIP3    H246831   0.707   4.482   9.503  1.0649  0.4884 -0.2832
 7546TIP3   OH246832   3.036   5.874   6.808 -0.4420  0.8194 -0.1129
 7546TIP3    H146833   3.079   5.902   6.727  1.0912  1.4490  0.9004
 7546TIP3    H246834   2.975   5.945   6.828 -0.7127  0.7358 -0.6067
 7547TIP3   OH246835   3.693   2.877   7.708 -0.3970 -0.0304  0.3848
 7547TIP3    H146836   3.762   2.932   7.744 -0.5385 -0.4838  1.3868
 7547TIP3    H246837   3.740   2.809   7.659 -0.1169 -0.3996  1.1495
 7548TIP3   OH246838   6.221   0.704   8.608 -0.6552 -0.0686 -0.1997
 7548TIP3    H146839   6.280   0.630   8.599 -0.3517 -0.1199  1.6393
 7548TIP3    H246840   6.133   0.666   8.607 -0.7555  0.0194 -3.0654
 7549TIP3   OH246841   5.010   6.587   8.141 -0.1984 -0.1914 -0.0978
 7549TIP3    H146842   5.018   6.603   8.235  0.3620  0.7806 -0.3002
 7549TIP3    H246843   4.989   6.494   8.135 -0.4714 -0.2208  0.9970
 7550TIP3   OH246844   1.398   3.707   8.354  0.9046 -0.3879 -0.0727
 7550TIP3    H146845   1.476   3.763   8.354  1.6885 -1.3985 -1.6616
 7550TIP3    H246846   1.357   3.723   8.269 -0.7483  0.2229  0.7806
 7551TIP3   OH246847   2.600   0.541   7.470  0.5100  0.1528  0.2924
 7551TIP3    H146848   2.620   0.608   7.406 -1.4545 -0.0266 -0.5784
 7551TIP3    H246849   2.621   0.458   7.426  0.9884  0.0927  0.6173
 7552TIP3   OH246850   0.672   3.425   9.342  0.0295  0.0515  0.0239
 7552TIP3    H146851   0.597   3.365   9.342  0.5656 -0.7422  2.7393
 7552TIP3    H246852   0.746   3.371   9.313  0.1815 -0.1549  0.7701
 7553TIP3   OH246853   6.274   2.131   8.269 -0.4890 -0.7657  0.6541
 7553TIP3    H146854   6.296   2.108   8.178 -1.0074 -0.2865  0.4003
 7553TIP3    H246855   6.271   2.048   8.315  1.5421 -0.9021  0.6376
 7554TIP3   OH246856   0.321   0.268   7.942  0.4614 -0.0441 -0.1450
 7554TIP3    H146857   0.276   0.270   7.858  0.0948 -1.0129  0.0179
 7554TIP3    H246858   0.281   0.196   7.990 -0.8250  1.7840  1.7081
 7555TIP3   OH246859   4.362   1.966   8.276  0.0211  0.2431 -0.4945
 7555TIP3    H146860   4.409   1.910   8.338  1.6835  0.7805 -1.2130
 7555TIP3    H246861   4.292   2.005   8.328  1.0283  0.2581  0.9193
 7556TIP3   OH246862   5.233   4.721   6.495  0.4032  0.7141 -0.6033
 7556TIP3    H146863   5.165   4.788   6.486  0.0603  0.3521 -0.7121
 7556TIP3    H246864   5.298   4.745   6.430 -0.5797 -0.0932 -1.9401
 7557TIP3   OH246865   1.945   2.838   8.152  0.5001 -0.2520  0.3455
 7557TIP3    H146866   1.920   2.768   8.092 -0.5698 -0.1095  0.6021
 7557TIP3    H246867   2.002   2.795   8.216 -0.3843 -0.9728  0.6765
 7558TIP3   OH246868   6.368   2.403   7.315  0.5321 -0.1007  0.2588
 7558TIP3    H146869   6.423   2.410   7.237 -1.1002  3.3763 -0.7974
 7558TIP3    H246870   6.395   2.476   7.370  0.1068 -1.1486  1.9219
 7559TIP3   OH246871   2.354   4.162   8.562 -0.6966 -0.4254 -0.0920
 7559TIP3    H146872   2.350   4.249   8.522  1.0208 -0.2487  0.0625
 7559TIP3    H246873   2.289   4.165   8.633 -0.5636  0.7721 -0.0075
 7560TIP3   OH246874   1.345   6.016   9.243  0.2944 -0.1639 -0.3969
 7560TIP3    H146875   1.413   6.051   9.300 -0.6028 -1.0482  1.2823
 7560TIP3    H246876   1.320   6.090   9.187  0.3848  1.1068  1.1590
 7561TIP3   OH246877   5.008   4.083   5.303  0.5299 -0.1575 -0.3022
 7561TIP3    H146878   5.064   4.155   5.335 -0.5459  0.2299  0.7572
 7561TIP3    H246879   4.995   4.027   5.379  2.5683 -2.3716 -1.4400
 7562TIP3   OH246880   5.485   3.157   6.233 -0.0713 -0.3897 -0.6095
 7562TIP3    H146881   5.441   3.192   6.156  0.8068  0.6569 -0.6668
 7562TIP3    H246882   5.414   3.139   6.295 -0.6150  1.1021 -0.7492
 7563TIP3   OH246883   4.766   5.153   7.988  0.8876 -0.1126 -0.5190
 7563TIP3    H146884   4.697   5.207   8.027  2.3163  1.3992  0.0355
 7563TIP3    H246885   4.738   5.138   7.898  0.7863  2.2387 -0.9332
 7564TIP3   OH246886   0.899   3.533   7.305  0.8777 -0.5850  0.1012
 7564TIP3    H146887   0.829   3.506   7.245  0.1067  1.0076  0.2289
 7564TIP3    H246888   0.852   3.566   7.382  1.7904  0.0708  0.3845
 7565TIP3   OH246889   3.463   2.455   6.666  0.2559 -0.3770 -0.3545
 7565TIP3    H146890   3.392   2.431   6.606 -1.0558  1.2861  0.4506
 7565TIP3    H246891   3.524   2.506   6.613 -1.0886  1.4108 -0.2740
 7566TIP3   OH246892   1.709   0.336   8.199  0.3752 -0.1632  0.2934
 7566TIP3    H146893   1.695   0.421   8.240  1.3309  0.7696 -1.1960
 7566TIP3    H246894   1.625   0.291   8.207 -0.9307  1.8793 -0.9638
 7567TIP3   OH246895   6.226   1.932   7.233  0.0507 -0.0804  0.3475
 7567TIP3    H146896   6.178   1.881   7.298  0.5426 -0.7500  0.2032
 7567TIP3    H246897   6.189   2.020   7.239  0.4714  0.0301  1.9383
 7568TIP3   OH246898   6.029   5.857   7.982  0.0712 -0.1458 -0.5294
 7568TIP3    H146899   5.979   5.939   7.980  0.5138  0.1559  0.2771
 7568TIP3    H246900   5.975   5.796   7.932 -0.0186  0.7637 -1.5973
 7569TIP3   OH246901   5.215   6.492   7.001 -0.0521  0.8576 -0.1182
 7569TIP3    H146902   5.299   6.450   7.021 -0.3676  0.1586 -0.2224
 7569TIP3    H246903   5.239   6.578   6.966  0.6107  0.7609  0.0790
 7570TIP3   OH246904   5.690   3.402   6.005 -0.0701 -0.1728  0.5947
 7570TIP3    H146905   5.658   3.430   6.090 -1.0093 -0.5342  0.3779
 7570TIP3    H246906   5.678   3.307   6.005 -2.6142  0.0620 -0.9000
 7571TIP3   OH246907   3.989   1.547   7.640 -0.0588  0.4268 -0.4756
 7571TIP3    H146908   4.084   1.541   7.653  0.0667 -0.8578 -1.7563
 7571TIP3    H246909   3.952   1.504   7.717  0.4150  0.2362 -0.3473
 7572TIP3   OH246910   2.725   2.087   5.736  0.1637  0.0662  0.4053
 7572TIP3    H146911   2.718   1.999   5.775 -0.8551 -0.4709 -0.9029
 7572TIP3    H246912   2.712   2.073   5.642  2.1954  1.3713 -0.1314
 7573TIP3   OH246913   3.262   5.016   6.801  0.0678  0.4557 -0.3319
 7573TIP3    H146914   3.187   5.020   6.741  0.1231  0.2240 -0.4188
 7573TIP3    H246915   3.308   5.099   6.788 -1.5629  1.7483  1.5718
 7574TIP3   OH246916   6.463   0.655   8.334  0.0687  0.7252  0.8104
 7574TIP3    H146917   6.499   0.628   8.418 -0.3712  0.9882  1.0871
 7574TIP3    H246918   6.533   0.705   8.292  0.2067  0.7891  1.1190
 7575TIP3   OH246919   0.852   5.618   8.230  0.2109  0.1887  0.4770
 7575TIP3    H146920   0.905   5.590   8.156 -0.6591 -0.2100 -0.0053
 7575TIP3    H246921   0.899   5.584   8.307  1.4076  1.0775  0.1685
 7576TIP3   OH246922   3.591   3.343   8.291  0.3995  0.3414  0.1559
 7576TIP3    H146923   3.606   3.332   8.197  1.1807 -0.4820  0.3547
 7576TIP3    H246924   3.523   3.279   8.312  0.0709  0.6749  0.1198
 7577TIP3   OH246925   4.254   0.639   8.830 -0.6295 -0.0224 -0.3717
 7577TIP3    H146926   4.301   0.562   8.796  1.4112  0.8050  0.4237
 7577TIP3    H246927   4.283   0.711   8.775  1.1489  0.9711  1.7097
 7578TIP3   OH246928   4.686   0.927   6.627  0.0097 -0.5192 -0.3279
 7578TIP3    H146929   4.739   0.853   6.658 -1.0217 -0.9069  0.6253
 7578TIP3    H246930   4.743   1.003   6.636  0.6501 -1.0176 -0.0399
 7579TIP3   OH246931   4.519   4.935   5.979 -0.3931 -0.2333  0.4485
 7579TIP3    H146932   4.556   5.011   6.024  1.8499  0.7884 -2.7685
 7579TIP3    H246933   4.449   4.971   5.925 -0.0011 -0.5910 -0.3133
 7580TIP3   OH246934   0.306   5.068   6.738 -0.1454 -0.4999  0.2779
 7580TIP3    H146935   0.241   5.112   6.792  1.3481  2.5728 -0.2001
 7580TIP3    H246936   0.297   5.108   6.652  1.7845 -0.5871 -0.0177
 7581TIP3   OH246937   1.846   4.371   6.227  0.4201  0.3326 -0.9709
 7581TIP3    H146938   1.909   4.378   6.298  0.2662  2.2798 -0.9965
 7581TIP3    H246939   1.882   4.302   6.170 -0.4022 -2.6661  1.8534
 7582TIP3   OH246940   6.200   5.289   8.372 -0.8565 -0.1247  0.2005
 7582TIP3    H146941   6.132   5.233   8.409  0.0196 -0.4635  1.3565
 7582TIP3    H246942   6.270   5.290   8.438 -0.3074  1.3049 -0.3473
 7583TIP3   OH246943   1.666   6.171   7.665 -0.4249  0.4424 -0.5858
 7583TIP3    H146944   1.741   6.113   7.652 -1.8846 -1.7572  0.2235
 7583TIP3    H246945   1.697   6.257   7.637  2.5738 -0.2409  0.3087
 7584TIP3   OH246946   6.019   3.049   7.389  0.3874  0.7220  0.3975
 7584TIP3    H146947   5.951   3.053   7.456 -1.4653  2.6631 -1.4361
 7584TIP3    H246948   6.047   3.140   7.377  0.8948  0.3908 -1.2323
 7585TIP3   OH246949   3.077   1.422   5.667 -0.2959  0.2150  0.7576
 7585TIP3    H146950   3.000   1.468   5.636 -0.5082 -0.2043  0.6598
 7585TIP3    H246951   3.129   1.490   5.711 -1.1510  0.3311  1.6417
 7586TIP3   OH246952   0.791   1.434   6.218  0.4070 -0.2823  0.2687
 7586TIP3    H146953   0.781   1.529   6.211 -0.2432 -0.2031  1.9346
 7586TIP3    H246954   0.706   1.399   6.194  0.5635 -0.4420 -0.0624
 7587TIP3   OH246955   2.033   5.706   9.201 -0.5393 -0.2079  0.1190
 7587TIP3    H146956   1.986   5.780   9.239  0.3766 -0.0731  0.9981
 7587TIP3    H246957   2.104   5.745   9.151  0.9814 -0.4972  1.9557
 7588TIP3   OH246958   6.504   2.113   8.882 -0.5283  0.1119 -0.1788
 7588TIP3    H146959   6.579   2.131   8.826 -0.7726  0.3411 -0.4345
 7588TIP3    H246960   6.483   2.198   8.921  0.6553 -0.3268  1.5418
 7589TIP3   OH246961   4.577   3.623   6.506  0.0269 -0.4915  0.0883
 7589TIP3    H146962   4.558   3.548   6.562 -0.0641  0.4932  1.4073
 7589TIP3    H246963   4.494   3.641   6.461 -0.0229 -0.9893 -0.0315
 7590TIP3   OH246964   3.547   3.774   7.307 -0.4465  0.0442 -0.0995
 7590TIP3    H146965   3.515   3.684   7.313  0.5240 -0.3217 -0.1508
 7590TIP3    H246966   3.615   3.771   7.239 -1.3326  1.1028 -1.0650
 7591TIP3   OH246967   6.184   0.960   6.552  0.1106  0.1799 -0.2924
 7591TIP3    H146968   6.276   0.973   6.575  0.2092  0.2080 -0.6946
 7591TIP3    H246969   6.180   0.872   6.515  0.2459  0.6804 -1.5748
 7592TIP3   OH246970   3.991   6.257   6.646  0.3402  0.5059 -0.3197
 7592TIP3    H146971   4.068   6.221   6.689  0.5498 -0.2409 -1.2857
 7592TIP3    H246972   3.985   6.347   6.679  1.0947  0.2886  0.4438
 7593TIP3   OH246973   2.253   5.006   6.831  0.2961 -0.0341  0.5020
 7593TIP3    H146974   2.198   5.012   6.908 -1.5056 -2.2255 -0.5254
 7593TIP3    H246975   2.192   5.008   6.757  1.7561 -0.4151 -0.7776
 7594TIP3   OH246976   6.605   3.502   5.464  0.1971  0.4667 -0.2753
 7594TIP3    H146977   6.539   3.500   5.533  0.4410 -0.0857 -0.0494
 7594TIP3    H246978   6.661   3.577   5.487  0.5394  0.0267  0.3892
 7595TIP3   OH246979   1.476   0.153   8.876  0.4396  0.0558 -0.3279
 7595TIP3    H146980   1.569   0.167   8.891  0.5392  0.2762 -1.0712
 7595TIP3    H246981   1.445   0.236   8.840  0.5840 -0.8670 -2.7959
 7596TIP3   OH246982   3.931   1.340   6.554  0.3775 -0.1825  0.2943
 7596TIP3    H146983   3.996   1.393   6.508  0.7602 -1.4386 -0.6506
 7596TIP3    H246984   3.899   1.397   6.624  0.5510  1.3962 -0.8643
 7597TIP3   OH246985   2.555   5.088   7.351 -0.7956 -0.4665 -0.1982
 7597TIP3    H146986   2.493   5.122   7.287 -0.8309  0.8128  0.4855
 7597TIP3    H246987   2.639   5.086   7.305 -1.0795 -0.8850 -0.7006
 7598TIP3   OH246988   3.681   0.367   6.139 -0.0404 -0.3182 -0.3908
 7598TIP3    H146989   3.679   0.313   6.218 -1.1941  1.4630  0.8737
 7598TIP3    H246990   3.701   0.455   6.171  0.7126  0.2450 -2.2547
 7599TIP3   OH246991   1.548   3.212   7.093 -0.1323  0.3284  0.1793
 7599TIP3    H146992   1.534   3.143   7.029  0.3780 -1.4782  1.9151
 7599TIP3    H246993   1.464   3.219   7.139 -0.0513  0.5458  0.2943
 7600TIP3   OH246994   1.981   1.337   7.650  0.1887 -0.3558 -0.4419
 7600TIP3    H146995   1.936   1.314   7.731 -1.6643  2.2963 -0.6048
 7600TIP3    H246996   1.962   1.264   7.591 -1.3755 -0.7413  0.4703
 7601TIP3   OH246997   2.023   0.392   7.038 -0.2212 -0.7433 -0.2140
 7601TIP3    H146998   2.086   0.391   7.110 -1.2683 -1.3358  0.7275
 7601TIP3    H246999   1.992   0.302   7.031 -2.8579 -0.0410  1.1096
 7602TIP3   OH247000   3.576   4.657   6.622 -0.0263  0.5825 -0.1357
 7602TIP3    H147001   3.625   4.715   6.681 -2.6128  2.5894  0.2032
 7602TIP3    H247002   3.488   4.695   6.618 -0.5110 -0.5400 -3.8392
 7603TIP3   OH247003   5.081   3.532   6.691 -0.2760 -0.0368  0.2823
 7603TIP3    H147004   5.050   3.618   6.665 -2.9136 -0.7059  0.8698
 7603TIP3    H247005   5.008   3.494   6.741  1.6475 -1.7207  2.0409
 7604TIP3   OH247006   5.610   4.449   6.172  0.8468 -0.1198  0.2625
 7604TIP3    H147007   5.566   4.511   6.113  2.0575  1.0215  0.5075
 7604TIP3    H247008   5.541   4.418   6.230  0.0103  0.2128 -0.5331
 7605TIP3   OH247009   5.063   1.716   6.320 -0.3177  0.0229 -0.2519
 7605TIP3    H147010   4.989   1.699   6.377 -0.0187  0.6435  0.3338
 7605TIP3    H247011   5.078   1.810   6.328  1.9180 -0.3926  1.3802
 7606TIP3   OH247012   3.095   0.882   6.970  0.2215  0.7174 -0.0076
 7606TIP3    H147013   3.140   0.889   7.054 -0.6173  0.4357  0.4849
 7606TIP3    H247014   3.135   0.806   6.927  2.5349  2.4356 -1.0858
 7607TIP3   OH247015   1.826   2.663   6.837 -0.0028 -0.3665  0.0647
 7607TIP3    H147016   1.869   2.679   6.752  0.3475 -1.1058  0.0963
 7607TIP3    H247017   1.776   2.743   6.854 -1.0788 -0.6615 -1.4363
 7608TIP3   OH247018   2.854   2.985   8.116 -0.3318  0.8544  0.1286
 7608TIP3    H147019   2.775   2.962   8.164 -0.4549  0.4433 -0.2727
 7608TIP3    H247020   2.906   2.905   8.115 -0.1352  0.9831 -0.0420
 7609TIP3   OH247021   5.668   5.739   5.960  0.2122 -0.3271 -0.1204
 7609TIP3    H147022   5.593   5.684   5.983  1.0512 -0.9356  1.3273
 7609TIP3    H247023   5.729   5.680   5.916  1.0894 -0.6003  1.3798
 7610TIP3   OH247024   1.783   2.806   7.127  0.1187 -0.5419 -0.7981
 7610TIP3    H147025   1.751   2.805   7.217 -0.0455  2.3006 -0.7499
 7610TIP3    H247026   1.861   2.750   7.128  0.3484 -0.2277  1.1892
 7611TIP3   OH247027   1.391   0.764   6.393  0.1244  0.3407 -0.6025
 7611TIP3    H147028   1.377   0.834   6.456 -0.0417  0.5742 -0.8908
 7611TIP3    H247029   1.343   0.793   6.315 -0.6450 -0.4801 -0.4493
 7612TIP3   OH247030   6.240   1.264   6.377  0.5393 -0.0501 -0.3770
 7612TIP3    H147031   6.227   1.356   6.400  0.0762 -0.4017  0.8794
 7612TIP3    H247032   6.244   1.218   6.461  1.5270 -1.0920 -0.9566
 7613TIP3   OH247033   4.481   1.827   7.834 -0.6875  0.2769 -0.5634
 7613TIP3    H147034   4.432   1.868   7.763 -0.7749 -0.0019 -0.6662
 7613TIP3    H247035   4.551   1.889   7.854 -0.7089  0.3905 -0.8401
 7614TIP3   OH247036   1.798   3.692   6.610 -0.0102  0.0047 -0.2134
 7614TIP3    H147037   1.850   3.722   6.685  1.2352 -0.6848 -0.7552
 7614TIP3    H247038   1.768   3.605   6.636  0.1142 -0.0824 -0.3585
 7615TIP3   OH247039   1.076   1.986   6.707  0.1055 -0.3175  0.1321
 7615TIP3    H147040   1.067   1.905   6.757  0.1607  0.4754  1.4675
 7615TIP3    H247041   1.045   2.054   6.767  2.7483  0.9930  0.1276
 7616TIP3   OH247042   0.404   1.423   6.318 -0.4347 -0.2597  0.0889
 7616TIP3    H147043   0.484   1.384   6.283 -0.6870 -0.6807 -0.0290
 7616TIP3    H247044   0.434   1.479   6.389 -0.1488 -1.6093  1.0793
 7617TIP3   OH247045   1.465   6.653   5.811  0.0715 -1.2368 -0.5049
 7617TIP3    H147046   1.452   6.593   5.738  0.4032 -2.0292  0.0704
 7617TIP3    H247047   1.426   6.609   5.886  4.8100 -3.3293  1.1200
 7618TIP3   OH247048   6.601   2.093   6.584  0.2568  0.0540 -0.3758
 7618TIP3    H147049   6.656   2.064   6.512  0.0374  0.3507 -0.6645
 7618TIP3    H247050   6.584   2.186   6.567 -0.7079 -0.1392 -0.5450
 7619TIP3   OH247051   0.915   2.871   8.994  0.2981  0.6490  0.0152
 7619TIP3    H147052   0.881   2.843   9.079  3.7415 -2.2794  0.6860
 7619TIP3    H247053   0.877   2.809   8.931  1.9132 -0.7674  0.3499
 7620TIP3   OH247054   6.638   2.035   5.623 -0.6399 -0.2979 -0.5823
 7620TIP3    H147055   6.682   2.114   5.593 -0.3146 -0.3028 -0.1239
 7620TIP3    H247056   6.547   2.063   5.639  0.2614  1.0980  3.5407
 7621TIP3   OH247057   0.124   5.051   7.676  0.4285  0.4675 -0.2350
 7621TIP3    H147058   0.142   5.027   7.585 -0.5062  0.9104 -0.5540
 7621TIP3    H247059   0.118   4.967   7.722  0.2497  0.2145 -0.7155
 7622TIP3   OH247060   5.626   2.379   7.703  0.2084  0.2244 -0.1833
 7622TIP3    H147061   5.718   2.375   7.678 -0.2907 -0.1598 -2.0859
 7622TIP3    H247062   5.605   2.473   7.703  0.9279  0.4415  1.7522
 7623TIP3   OH247063   0.988   6.355   6.868 -0.1145 -0.3097  0.0922
 7623TIP3    H147064   0.991   6.408   6.948  1.9907 -0.0252 -0.1206
 7623TIP3    H247065   1.079   6.329   6.853 -0.5665 -0.9305 -1.8498
 7624TIP3   OH247066   3.470   3.425   7.773 -0.5927  0.4655 -0.1057
 7624TIP3    H147067   3.451   3.357   7.837  0.4478 -0.0940 -0.3716
 7624TIP3    H247068   3.547   3.470   7.807 -0.5349  0.7113 -0.5451
 7625TIP3   OH247069   2.892   1.430   7.912 -0.5969  0.5515 -0.1233
 7625TIP3    H147070   2.970   1.481   7.932 -1.1381  0.6482  1.8866
 7625TIP3    H247071   2.847   1.481   7.845 -0.6159  2.2289  1.1121
 7626TIP3   OH247072   6.441   1.088   6.588 -0.2410  0.5084 -0.4744
 7626TIP3    H147073   6.428   1.121   6.677  1.9837 -1.1352  0.5818
 7626TIP3    H247074   6.519   1.134   6.557  1.1685 -1.4980 -0.0887
 7627TIP3   OH247075   1.436   1.630   8.466 -0.6112  0.3390  0.1356
 7627TIP3    H147076   1.402   1.649   8.378 -0.3235 -1.7776 -0.4848
 7627TIP3    H247077   1.375   1.566   8.502  1.2813 -1.6748 -0.0449
 7628TIP3   OH247078   6.450   0.672   7.061  0.0113  0.2872 -0.2013
 7628TIP3    H147079   6.432   0.737   7.129 -1.0847  2.4182 -2.3968
 7628TIP3    H247080   6.381   0.606   7.072 -0.1114  0.5633  0.7652
 7629TIP3   OH247081   2.510   2.611   7.923  0.7932 -0.2448  0.0824
 7629TIP3    H147082   2.437   2.549   7.918 -1.5215  2.3922 -1.7386
 7629TIP3    H247083   2.505   2.648   8.011 -1.0382  0.8778 -0.4441
 7630TIP3   OH247084   1.707   4.153   6.000  0.3370 -0.1218 -0.6583
 7630TIP3    H147085   1.784   4.203   6.029  0.7707 -0.8274 -0.5553
 7630TIP3    H247086   1.633   4.211   6.015  0.8539  0.5759 -0.7665
 7631TIP3   OH247087   2.139   3.364   7.982 -0.0343  0.5687 -0.2082
 7631TIP3    H147088   2.098   3.298   8.038  0.1674  0.1627 -0.5391
 7631TIP3    H247089   2.230   3.337   7.974 -0.0322  0.6909 -0.6348
 7632TIP3   OH247090   0.837   5.072   7.751 -0.2237  0.2195 -0.0292
 7632TIP3    H147091   0.795   5.137   7.696  0.9216 -0.1353 -1.3758
 7632TIP3    H247092   0.877   5.123   7.822 -1.7123  0.6684  0.5308
 7633TIP3   OH247093   1.613   0.341   5.323  0.4022  0.6228  0.1194
 7633TIP3    H147094   1.706   0.350   5.342  0.3996  0.0507  0.4500
 7633TIP3    H247095   1.597   0.246   5.330 -0.0016  0.6058 -0.8694
 7634TIP3   OH247096   0.953   1.697   8.305 -0.0624 -0.7430 -0.6033
 7634TIP3    H147097   1.003   1.696   8.386 -1.1987  1.3214  0.1813
 7634TIP3    H247098   0.886   1.630   8.317  0.8655 -1.7148 -0.6241
 7635TIP3   OH247099   0.665   6.024   6.604  0.2409  0.6144  0.6416
 7635TIP3    H147100   0.640   5.937   6.638  0.2263  0.2546 -0.2617
 7635TIP3    H247101   0.714   6.064   6.676 -0.0216 -0.0171  1.1914
 7636TIP3   OH247102   5.412   4.961   6.986  0.1532  0.3451  0.3108
 7636TIP3    H147103   5.485   4.987   7.042  0.6602 -0.0757 -0.1416
 7636TIP3    H247104   5.449   4.958   6.898 -0.4457  0.2574  0.0556
 7637TIP3   OH247105   2.415   6.682   8.841  0.5511 -0.1318  0.2859
 7637TIP3    H147106   2.387   6.626   8.913 -1.5000  0.9425  0.3742
 7637TIP3    H247107   2.463   6.753   8.883  1.9441 -1.0211  0.2845
 7638TIP3   OH247108   1.257   6.311   7.843 -0.2032 -0.1694  0.2167
 7638TIP3    H147109   1.232   6.251   7.772  0.3115 -0.0958 -0.0329
 7638TIP3    H247110   1.330   6.360   7.807 -1.7102  1.8668 -0.2442
 7639TIP3   OH247111   3.274   5.873   7.468 -0.1095  0.2404 -0.5571
 7639TIP3    H147112   3.309   5.812   7.533  0.5335  1.4538  0.2829
 7639TIP3    H247113   3.308   5.841   7.384  1.0221 -0.0106 -0.0244
 7640TIP3   OH247114   4.833   4.697   5.749 -0.6126  0.3354  0.4494
 7640TIP3    H147115   4.852   4.780   5.705  1.6607 -0.2942  0.0792
 7640TIP3    H247116   4.763   4.658   5.697  0.8250  0.3970 -1.6884
 7641TIP3   OH247117   3.089   5.226   7.624  0.2402  0.7710  0.0747
 7641TIP3    H147118   2.994   5.240   7.628  0.1944  0.2977  1.3733
 7641TIP3    H247119   3.098   5.135   7.596  0.2631  0.4637  1.0407
 7642TIP3   OH247120   4.833   5.533   5.893 -0.7243  0.0983 -0.0245
 7642TIP3    H147121   4.809   5.595   5.824  0.5388 -1.3635 -1.8469
 7642TIP3    H247122   4.819   5.582   5.974 -0.4237  2.5497 -1.3511
 7643TIP3   OH247123   1.417   2.894   6.667 -0.0659  1.0172  0.0746
 7643TIP3    H147124   1.510   2.875   6.657 -0.1763  1.0123 -0.9723
 7643TIP3    H247125   1.387   2.832   6.734 -0.2981 -2.3085 -2.8027
 7644TIP3   OH247126   4.925   1.476   8.541  0.8646 -0.0915  0.6605
 7644TIP3    H147127   4.846   1.530   8.538  0.7139  0.1251  4.3665
 7644TIP3    H247128   4.995   1.539   8.559  1.7427 -0.4625 -1.2211
 7645TIP3   OH247129   4.271   6.437   5.954 -0.3968 -0.4984 -0.5125
 7645TIP3    H147130   4.182   6.471   5.949 -0.2344  0.8370  2.9473
 7645TIP3    H247131   4.326   6.509   5.922 -0.4148  0.2815  1.0906
 7646TIP3   OH247132   6.031   4.669   8.703 -0.2137  0.3318  0.1889
 7646TIP3    H147133   5.972   4.673   8.778 -2.6933  1.0495 -1.6896
 7646TIP3    H247134   6.017   4.751   8.656  0.5569 -0.4732 -1.5539
 7647TIP3   OH247135   1.807   4.858   7.736  0.2261  0.6080  0.1902
 7647TIP3    H147136   1.888   4.842   7.785 -0.2294 -0.4942  0.6247
 7647TIP3    H247137   1.778   4.771   7.710 -1.0559  0.9549  0.4235
 7648TIP3   OH247138   1.769   4.764   7.078 -0.4546 -0.6937 -0.1129
 7648TIP3    H147139   1.837   4.805   7.131  0.3239 -0.0476 -1.5380
 7648TIP3    H247140   1.812   4.689   7.037 -0.3158  0.1672 -1.6401
 7649TIP3   OH247141   2.060   3.818   6.638 -0.0099  0.1739 -0.1930
 7649TIP3    H147142   2.073   3.754   6.568 -0.3116  1.1395 -1.1640
 7649TIP3    H247143   2.053   3.766   6.718 -0.5780 -1.0116 -0.9949
 7650TIP3   OH247144   6.484   5.492   7.170 -0.0333 -0.4853 -0.1350
 7650TIP3    H147145   6.406   5.523   7.125  0.6845 -0.7413 -1.6237
 7650TIP3    H247146   6.460   5.493   7.263 -1.9821 -1.0537 -0.5733
 7651TIP3   OH247147   5.398   4.551   5.363  0.7866  0.0305  0.2216
 7651TIP3    H147148   5.481   4.589   5.389  0.7170 -1.3725  2.8094
 7651TIP3    H247149   5.422   4.470   5.317  0.8677  0.0477  0.2343
 7652TIP3   OH247150   4.291   6.196   6.046  0.0859  0.0518  0.3006
 7652TIP3    H147151   4.272   6.248   6.125  2.3064 -1.1709  1.7255
 7652TIP3    H247152   4.274   6.256   5.974 -2.0807  1.2124  1.6532
 7653TIP3   OH247153   5.416   6.136   6.362 -0.3107  0.1749  0.1650
 7653TIP3    H147154   5.489   6.077   6.376  0.7064  1.0420 -1.2108
 7653TIP3    H247155   5.364   6.130   6.443  0.6621 -1.2751  0.7268
 7654TIP3   OH247156   5.117   0.280   5.495 -0.3053  0.0304  0.3266
 7654TIP3    H147157   5.147   0.361   5.535 -1.2305  0.2637  0.5585
 7654TIP3    H247158   5.027   0.298   5.468  0.3652  0.0113 -2.1859
 7655TIP3   OH247159   2.226   0.317   7.455  0.6625 -0.9013 -0.1455
 7655TIP3    H147160   2.240   0.230   7.419  1.5146 -0.6183 -0.5069
 7655TIP3    H247161   2.212   0.373   7.378 -0.4870 -0.8047  0.1030
 7656TIP3   OH247162   0.272   3.361   6.768 -0.6429  0.3970  0.3592
 7656TIP3    H147163   0.188   3.389   6.805  0.1177  1.3913  1.4180
 7656TIP3    H247164   0.332   3.433   6.789  0.5288 -0.4020 -0.1564
 7657TIP3   OH247165   3.701   0.481   8.251  0.5015 -0.6426 -0.3252
 7657TIP3    H147166   3.693   0.423   8.327  0.5270  0.3289  0.4444
 7657TIP3    H247167   3.651   0.437   8.182  0.4833 -1.5506  0.2490
 7658TIP3   OH247168   4.448   1.534   7.188  0.1030 -0.1752  0.0534
 7658TIP3    H147169   4.359   1.541   7.222 -0.2785 -1.2092 -0.6774
 7658TIP3    H247170   4.439   1.550   7.094  0.5706 -0.9541 -0.1351
 7659TIP3   OH247171   0.194   0.839   8.355  0.4704 -0.7814 -0.4018
 7659TIP3    H147172   0.118   0.786   8.381  0.2042 -0.8158 -1.2144
 7659TIP3    H247173   0.155   0.918   8.317  0.8378 -0.8607 -0.9464
 7660TIP3   OH247174   0.811   3.200   8.574 -0.1833  0.5950 -0.1531
 7660TIP3    H147175   0.875   3.271   8.579  0.8913 -0.1239 -2.3314
 7660TIP3    H247176   0.860   3.127   8.535 -1.6876 -0.8280  0.5199
 7661TIP3   OH247177   0.697   4.486   5.978 -0.8398 -0.5557  0.0351
 7661TIP3    H147178   0.755   4.411   5.966 -0.9571 -0.9408  1.6531
 7661TIP3    H247179   0.712   4.541   5.901  0.5593 -1.3711 -0.3022
 7662TIP3   OH247180   5.131   2.517   6.067  0.0295  0.0818 -0.2763
 7662TIP3    H147181   5.062   2.472   6.117  0.5937 -0.1189  0.3446
 7662TIP3    H247182   5.085   2.584   6.017 -0.5567  0.2970  0.5285
 7663TIP3   OH247183   6.595   6.385   8.120  0.9482 -0.4238  0.4983
 7663TIP3    H147184   6.675   6.349   8.158 -0.0426  0.3240  3.5630
 7663TIP3    H247185   6.565   6.450   8.183 -1.8290 -0.3075 -0.7752
 7664TIP3   OH247186   2.974   2.374   8.863  0.3359 -0.4401 -0.5755
 7664TIP3    H147187   3.040   2.310   8.835  0.5734 -0.6043  0.3190
 7664TIP3    H247188   2.900   2.320   8.892  1.0081 -0.3992  1.3691
 7665TIP3   OH247189   4.374   6.653   6.190 -0.5119  0.1262  0.9040
 7665TIP3    H147190   4.400   6.744   6.175 -0.3228 -0.3273 -2.1759
 7665TIP3    H247191   4.284   6.658   6.220 -0.0148  1.3560  2.2789
 7666TIP3   OH247192   4.894   6.338   6.825  0.6029 -0.2064 -0.1561
 7666TIP3    H147193   4.850   6.380   6.751 -1.4088 -2.2319 -0.2147
 7666TIP3    H247194   4.987   6.338   6.800  0.3042  1.5652 -1.4071
 7667TIP3   OH247195   1.244   5.299   5.711  0.1575  0.4823 -0.2022
 7667TIP3    H147196   1.322   5.279   5.763 -1.4633 -0.9893  1.8768
 7667TIP3    H247197   1.203   5.373   5.757 -1.2069 -0.7271  0.6471
 7668TIP3   OH247198   3.232   3.046   6.973 -0.2219 -0.1003  0.3283
 7668TIP3    H147199   3.251   3.132   7.010  0.6021  0.1971 -0.7694
 7668TIP3    H247200   3.155   3.016   7.023  0.8681  0.2445  2.3312
 7669TIP3   OH247201   6.232   5.386   8.113  0.5521  0.1897  0.7622
 7669TIP3    H147202   6.220   5.364   8.205  1.6684 -1.0016  0.6447
 7669TIP3    H247203   6.209   5.479   8.107 -0.9576 -0.0776  1.9469
 7670TIP3   OH247204   0.743   1.389   8.265 -0.0073 -0.3943  0.3874
 7670TIP3    H147205   0.740   1.436   8.349 -0.9670  0.4418 -0.1010
 7670TIP3    H247206   0.659   1.343   8.260  0.6855 -1.7448  0.5911
 7671TIP3   OH247207   4.524   0.946   8.391 -0.2897 -0.2744 -0.5504
 7671TIP3    H147208   4.563   0.925   8.476  0.5224  1.3244 -0.4925
 7671TIP3    H247209   4.430   0.947   8.407 -0.1855 -0.8215  0.1268
 7672TIP3   OH247210   3.336   3.471   6.577 -0.1554 -0.0780  1.0144
 7672TIP3    H147211   3.319   3.381   6.607  1.0680  0.2208  2.7586
 7672TIP3    H247212   3.282   3.480   6.499  1.2328 -3.0370 -0.4654
 7673TIP3   OH247213   2.531   2.637   8.184  0.7471 -0.5773  0.0545
 7673TIP3    H147214   2.467   2.598   8.243  0.9881  0.6741  1.1770
 7673TIP3    H247215   2.580   2.562   8.150 -0.1746 -1.4155  0.4958
 7674TIP3   OH247216   0.886   4.249   9.252 -0.7259  0.0990  0.0096
 7674TIP3    H147217   0.960   4.295   9.211 -0.6696 -1.5190 -1.8001
 7674TIP3    H247218   0.927   4.193   9.318 -0.7032  1.6837  1.4336
 7675TIP3   OH247219   4.790   3.726   8.595  0.1524  0.3720 -0.0393
 7675TIP3    H147220   4.844   3.805   8.588 -0.5710  0.8631 -0.2412
 7675TIP3    H247221   4.707   3.757   8.633  0.1518 -0.4348  0.6547
 7676TIP3   OH247222   0.938   1.087   5.701  0.9179  0.0754  0.0191
 7676TIP3    H147223   0.988   1.042   5.634 -1.5887  0.6930 -2.4424
 7676TIP3    H247224   0.863   1.030   5.717  0.2902  1.0367  0.6046
 7677TIP3   OH247225   2.975   3.032   7.650 -0.8568 -0.2999  0.1178
 7677TIP3    H147226   2.959   3.126   7.663 -2.5951 -0.3384 -1.4152
 7677TIP3    H247227   2.910   2.989   7.706 -0.4594 -0.6016  0.3544
 7678TIP3   OH247228   5.308   5.338   6.404  0.2679 -0.1517  0.1588
 7678TIP3    H147229   5.293   5.262   6.461  3.2718  0.0541  1.4039
 7678TIP3    H247230   5.365   5.304   6.335 -0.9492  0.3098 -1.1292
 7679TIP3   OH247231   4.256   1.582   7.720 -0.1495 -0.2726  0.5472
 7679TIP3    H147232   4.236   1.671   7.692 -1.4812 -0.8288 -0.3575
 7679TIP3    H247233   4.281   1.591   7.812  0.9475  1.1696  0.1307
 7680TIP3   OH247234   1.993   6.609   6.880  0.6789 -0.6087 -0.2974
 7680TIP3    H147235   2.070   6.567   6.843  0.8724 -1.3381  0.8906
 7680TIP3    H247236   1.920   6.555   6.852  0.6227 -0.0883 -1.1723
 7681TIP3   OH247237   1.910   1.695   6.426 -0.0694 -0.0482  0.1244
 7681TIP3    H147238   1.856   1.658   6.357  1.8960 -4.1353  0.4817
 7681TIP3    H247239   1.986   1.732   6.381  0.1709 -0.7380 -0.0481
 7682TIP3   OH247240   3.772   3.774   5.778 -0.2658  0.3232 -0.3708
 7682TIP3    H147241   3.677   3.774   5.792 -0.6202  3.5982 -2.0230
 7682TIP3    H247242   3.784   3.726   5.696 -0.1975 -1.6051  0.6836
 7683TIP3   OH247243   4.745   3.987   5.297  0.5044 -0.3530  0.9079
 7683TIP3    H147244   4.829   4.030   5.282  0.2387  0.0222  0.4737
 7683TIP3    H247245   4.706   4.036   5.370  0.1830  0.1803  0.3862
 7684TIP3   OH247246   5.266   0.221   7.705 -0.9172  0.3484 -0.3517
 7684TIP3    H147247   5.360   0.224   7.721 -1.0019  2.2215  0.0290
 7684TIP3    H247248   5.257   0.163   7.629  0.5145  0.0054 -0.2984
 7685TIP3   OH247249   1.193   1.859   9.017  0.1855 -0.0128 -0.5960
 7685TIP3    H147250   1.248   1.914   8.961 -1.2646  1.7529 -0.3801
 7685TIP3    H247251   1.255   1.817   9.077  1.5436 -0.1679 -2.0269
 7686TIP3   OH247252   1.484   2.682   6.868  0.5425  0.0990 -0.1275
 7686TIP3    H147253   1.498   2.593   6.834 -1.2596  0.1490 -1.0952
 7686TIP3    H247254   1.570   2.724   6.861  1.5020 -1.6096  0.5801
 7687TIP3   OH247255   4.644   0.926   7.206 -0.0995 -0.3178 -0.7093
 7687TIP3    H147256   4.685   1.000   7.250 -1.5343 -1.1634  2.3119
 7687TIP3    H247257   4.689   0.849   7.241 -2.5367 -1.1297  0.8854
 7688TIP3   OH247258   0.215   1.475   5.858 -0.5749  0.0069 -0.0950
 7688TIP3    H147259   0.221   1.428   5.941  0.4328 -1.5102 -0.9675
 7688TIP3    H247260   0.256   1.416   5.794  0.1420  1.8001 -1.3874
 7689TIP3   OH247261   3.183   1.589   8.807 -0.3026 -0.8612  0.1388
 7689TIP3    H147262   3.184   1.512   8.864  0.2092 -1.2089 -0.3264
 7689TIP3    H247263   3.115   1.645   8.844 -0.8329 -1.6300  0.3538
 7690TIP3   OH247264   2.450   1.325   5.600 -0.3632  0.0983  0.1037
 7690TIP3    H147265   2.388   1.252   5.593 -1.7777  1.1942  0.6603
 7690TIP3    H247266   2.535   1.286   5.577 -1.5409 -0.9919 -3.0647
 7691TIP3   OH247267   6.327   3.011   6.079  0.3054 -0.0760  0.7510
 7691TIP3    H147268   6.258   2.956   6.042  0.1502  0.4719  0.2034
 7691TIP3    H247269   6.344   2.974   6.165 -0.1521 -0.6698  0.5927
 7692TIP3   OH247270   2.980   5.782   5.320  0.2041  0.1011  0.1623
 7692TIP3    H147271   3.011   5.866   5.286 -2.0341  0.2972 -1.6331
 7692TIP3    H247272   3.059   5.729   5.329  1.3003  1.1666 -2.3281
 7693TIP3   OH247273   1.686   2.094  14.098 -0.0302  0.1164 -0.5337
 7693TIP3    H147274   1.758   2.095  14.161 -0.9473  0.3879  0.5448
 7693TIP3    H247275   1.608   2.111  14.150 -0.8865 -0.1533 -1.6770
 7694TIP3   OH247276   1.730   0.578   5.936 -0.5890 -0.6847  0.4766
 7694TIP3    H147277   1.789   0.591   5.861 -2.2016  1.3028 -0.5232
 7694TIP3    H247278   1.774   0.622   6.009 -0.3725 -0.0728 -0.0164
 7695TIP3   OH247279   1.441   6.178   7.486 -0.1392  0.6057  0.5074
 7695TIP3    H147280   1.516   6.198   7.541 -0.2681 -2.4863  2.0258
 7695TIP3    H247281   1.365   6.194   7.541 -0.3327 -0.9239  0.7448
 7696TIP3   OH247282   1.288   3.187   8.251  0.5013  0.0676  0.4220
 7696TIP3    H147283   1.245   3.272   8.255 -1.2471 -0.8090  1.4021
 7696TIP3    H247284   1.380   3.206   8.270  0.3343  1.8383 -0.3613
 7697TIP3   OH247285   1.670   3.327   6.461  0.5224  0.1011  0.0768
 7697TIP3    H147286   1.613   3.253   6.482  1.0099 -0.1309  0.5969
 7697TIP3    H247287   1.757   3.299   6.488  0.6992  0.8960  0.3599
 7698TIP3   OH247288   5.402   1.648   6.126 -0.0840 -0.0982  0.5754
 7698TIP3    H147289   5.424   1.563   6.164  0.4065  0.2092  1.0007
 7698TIP3    H247290   5.460   1.657   6.051  0.3848  0.1770  0.9665
 7699TIP3   OH247291   0.761   2.143   5.573 -0.0856 -0.7615  0.1570
 7699TIP3    H147292   0.833   2.084   5.596  1.1216  1.0256  1.1860
 7699TIP3    H247293   0.802   2.211   5.519 -1.1640 -0.1500  0.0694
 7700TIP3   OH247294   2.947   0.462   6.842 -0.4236  0.0487 -0.4428
 7700TIP3    H147295   2.860   0.502   6.849 -0.6070 -0.4393  0.1093
 7700TIP3    H247296   2.931   0.376   6.802 -0.0264  0.5145 -1.6550
 7701TIP3   OH247297   2.780   0.733   7.279 -0.2939  0.0606  0.0321
 7701TIP3    H147298   2.749   0.822   7.266 -1.4161 -0.5967 -2.2886
 7701TIP3    H247299   2.835   0.715   7.203 -0.2991 -1.2946  0.3264
 7702TIP3   OH247300   3.164   1.189   5.862 -0.2437  0.0729 -0.5804
 7702TIP3    H147301   3.175   1.222   5.951  0.2847  0.4295 -0.7729
 7702TIP3    H247302   3.155   1.268   5.808 -0.6695 -0.1440 -0.8279
 7703TIP3   OH247303   1.006   3.936   8.631 -0.2182  0.1270  0.2513
 7703TIP3    H147304   0.971   3.959   8.545  1.8441  0.9828 -0.4338
 7703TIP3    H247305   1.067   3.864   8.613 -0.3876 -0.2510  1.1363
 7704TIP3   OH247306   3.611   2.908   6.493 -0.1690 -0.2656  0.2548
 7704TIP3    H147307   3.680   2.903   6.428  0.1602  1.9208  0.3874
 7704TIP3    H247308   3.547   2.842   6.465  0.8265 -0.6523 -1.2113
 7705TIP3   OH247309   5.012   6.169   7.518  0.2715  0.4878  0.3486
 7705TIP3    H147310   4.920   6.167   7.543 -0.6908 -2.2570 -2.7163
 7705TIP3    H247311   5.012   6.205   7.429  1.9206 -0.9438 -0.2891
 7706TIP3   OH247312   6.423   5.668   5.328  0.2254 -0.4064  0.2095
 7706TIP3    H147313   6.385   5.608   5.263  0.7203 -2.3802  1.6683
 7706TIP3    H247314   6.347   5.709   5.369 -0.4381 -3.0944  1.9595
 7707TIP3   OH247315   0.335   4.933   8.855 -0.4537 -0.0301  0.2669
 7707TIP3    H147316   0.241   4.942   8.874 -0.7483  1.9374 -1.5990
 7707TIP3    H247317   0.376   5.003   8.906  0.1665 -1.5071  1.8435
 7708TIP3   OH247318   5.728   1.529   8.493 -0.0696 -0.0599 -0.3776
 7708TIP3    H147319   5.659   1.465   8.509  1.6606 -2.0733 -0.4609
 7708TIP3    H247320   5.795   1.509   8.559  0.9170  1.0838 -0.9816
 7709TIP3   OH247321   1.289   2.606   6.226  0.2383 -0.3000 -0.2638
 7709TIP3    H147322   1.263   2.698   6.219  0.7496 -0.1586 -0.3458
 7709TIP3    H247323   1.357   2.605   6.292  0.8891 -0.4775 -0.9235
 7710TIP3   OH247324   4.591   5.058   5.021  0.2010 -0.0585 -0.3600
 7710TIP3    H147325   4.504   5.089   4.994 -0.6157 -1.2243  0.8170
 7710TIP3    H247326   4.594   4.967   4.991  0.9512 -0.0826 -0.2224
 7711TIP3   OH247327   0.671   5.093   5.807  0.2708 -0.2645 -0.1469
 7711TIP3    H147328   0.646   5.068   5.718 -0.1734 -3.5768  0.7686
 7711TIP3    H247329   0.749   5.147   5.796 -1.0836  1.4207 -2.5792
 7712TIP3   OH247330   2.836   0.670   8.468  0.2757 -0.4219  0.4082
 7712TIP3    H147331   2.914   0.726   8.470  1.1210 -1.5039  3.0421
 7712TIP3    H247332   2.869   0.584   8.439 -0.2130 -0.5564  0.2423
 7713TIP3   OH247333   4.873   4.979   8.251  0.5540  0.0511  0.1172
 7713TIP3    H147334   4.901   4.889   8.234  1.4399  0.2311  0.5817
 7713TIP3    H247335   4.835   4.975   8.339  0.3761  0.0893  0.0432
 7714TIP3   OH247336   0.992   3.807   7.255 -0.4540 -0.1215  0.1760
 7714TIP3    H147337   0.920   3.815   7.192 -0.3005 -0.4585 -0.0432
 7714TIP3    H247338   0.980   3.721   7.295 -1.8391  0.9323  2.2143
 7715TIP3   OH247339   3.669   4.609   5.936 -0.2419  0.2883 -0.2162
 7715TIP3    H147340   3.742   4.557   5.899 -0.3136  0.1320 -0.1387
 7715TIP3    H247341   3.707   4.695   5.952 -0.4937  0.6904 -1.6842
 7716TIP3   OH247342   4.115   4.370   8.110 -0.2895 -0.2107  0.0246
 7716TIP3    H147343   4.176   4.422   8.057  0.4380  0.9209  1.8626
 7716TIP3    H247344   4.045   4.347   8.050  0.6886  0.6540 -1.5300
 7717TIP3   OH247345   2.550   5.528   7.015 -0.2720  0.0231 -0.1314
 7717TIP3    H147346   2.494   5.482   6.952 -0.7560 -0.1317  0.4060
 7717TIP3    H247347   2.609   5.461   7.048  0.5391  0.2770 -1.0209
 7718TIP3   OH247348   4.951   5.161   6.914  0.0720  0.4797 -0.1131
 7718TIP3    H147349   4.982   5.246   6.885 -0.4558  0.3653 -1.0483
 7718TIP3    H247350   5.031   5.113   6.937  0.4124  1.0141 -0.1586
 7719TIP3   OH247351   1.193   4.823   5.495 -0.3817  0.1530  0.0225
 7719TIP3    H147352   1.232   4.820   5.408  0.1867  0.4472  0.2653
 7719TIP3    H247353   1.174   4.916   5.510 -0.9311  0.0489  0.0186
 7720TIP3   OH247354   0.076   0.105   5.399  0.3245 -0.0388 -0.3434
 7720TIP3    H147355   0.079   0.062   5.314 -1.7135 -0.4777 -0.2507
 7720TIP3    H247356   0.062   0.198   5.379  2.4669  0.2994 -0.4941
 7721TIP3   OH247357   1.189   0.086   5.885 -0.1663 -0.2999 -0.5094
 7721TIP3    H147358   1.250   0.078   5.812 -0.6263 -0.6261 -0.8645
 7721TIP3    H247359   1.179   0.180   5.898  1.9914 -0.1832  0.8973
 7722TIP3   OH247360   4.941   0.273   5.771  0.1415 -0.0305  0.2884
 7722TIP3    H147361   4.946   0.366   5.796  2.3894  0.2109 -0.8039
 7722TIP3    H247362   4.887   0.273   5.692  1.3445  0.6047 -0.5744
 7723TIP3   OH247363   4.551   4.647   7.742  0.6056  0.3024  0.3293
 7723TIP3    H147364   4.479   4.586   7.727  0.7882 -0.0160  0.7357
 7723TIP3    H247365   4.509   4.732   7.753  0.3946  0.3881 -0.9959
 7724TIP3   OH247366   5.099   2.837   7.316 -0.3591 -0.5132 -0.0606
 7724TIP3    H147367   5.100   2.874   7.404  1.2661  1.5211 -0.8509
 7724TIP3    H247368   5.136   2.749   7.327 -2.0142 -1.0855  1.5109
 7725TIP3   OH247369   1.127   2.032   7.062 -0.6082 -0.5136  0.3317
 7725TIP3    H147370   1.174   2.056   6.982 -0.4088 -0.6320  0.4137
 7725TIP3    H247371   1.172   1.955   7.094 -1.8139 -1.5671 -0.4253
 7726TIP3   OH247372   5.268   4.756   7.147 -0.0319  0.0689  0.3767
 7726TIP3    H147373   5.316   4.828   7.104 -1.6128  1.8874  1.4921
 7726TIP3    H247374   5.204   4.728   7.082  0.0402  0.2326  0.2324
 7727TIP3   OH247375   5.416   5.806   6.308 -0.1837 -0.0695 -0.4713
 7727TIP3    H147376   5.387   5.852   6.387  0.1786  0.7121 -0.7813
 7727TIP3    H247377   5.430   5.715   6.337 -1.2408 -0.0709  0.0648
 7728TIP3   OH247378   2.668   2.637   5.547 -0.5031  0.0685 -0.3088
 7728TIP3    H147379   2.745   2.692   5.531 -1.3966  1.5355  0.2356
 7728TIP3    H247380   2.687   2.592   5.630  0.4936 -0.9604 -1.0659
 7729TIP3   OH247381   6.278   4.645   6.857  0.0864  0.3762 -0.7033
 7729TIP3    H147382   6.285   4.685   6.770 -0.1080  0.2700 -0.7696
 7729TIP3    H247383   6.217   4.702   6.904 -0.4440 -0.0123 -0.9032
 7730TIP3   OH247384   4.160   4.028   6.774  0.3535  0.2000  0.1723
 7730TIP3    H147385   4.122   4.103   6.729 -0.3088 -0.6565 -0.7694
 7730TIP3    H247386   4.226   3.994   6.713 -2.6003 -2.7815 -1.7611
 7731TIP3   OH247387   4.344   3.917   6.631  0.0328 -0.1440 -0.7175
 7731TIP3    H147388   4.435   3.947   6.637 -0.3739  1.0203  0.2678
 7731TIP3    H247389   4.340   3.840   6.688  0.3246  0.0365 -0.4482
 7732TIP3   OH247390   3.695   0.173   5.548  0.5096  0.3661 -0.3936
 7732TIP3    H147391   3.714   0.087   5.509 -0.1857 -0.8817  1.8471
 7732TIP3    H247392   3.778   0.200   5.586 -0.2997 -1.8516  3.3903
 7733TIP3   OH247393   4.437   1.560   6.578 -0.0692 -0.0369 -0.1207
 7733TIP3    H147394   4.514   1.599   6.536 -0.9844  0.6792 -1.2150
 7733TIP3    H247395   4.363   1.591   6.525 -1.2679  0.5543  1.7885
 7734TIP3   OH247396   1.654   2.994   8.963 -0.7995  0.2036  0.1221
 7734TIP3    H147397   1.678   2.904   8.981  2.4352  0.8617 -0.3824
 7734TIP3    H247398   1.678   3.042   9.043  1.5246  1.1760 -1.0657
 7735TIP3   OH247399   5.324   2.628   9.258  0.6025 -0.2645  0.5624
 7735TIP3    H147400   5.352   2.537   9.266 -1.1769 -0.9234 -0.2774
 7735TIP3    H247401   5.365   2.659   9.177 -1.4163 -1.3999 -0.9768
 7736TIP3   OH247402   4.067   6.416   8.452  0.1049 -0.2930  0.4719
 7736TIP3    H147403   4.139   6.396   8.512  0.0096 -0.1331  0.6380
 7736TIP3    H247404   4.050   6.333   8.407  1.6480  0.1028 -0.9447
 7737TIP3   OH247405   6.251   6.062   7.661 -0.1919  0.0356  0.3211
 7737TIP3    H147406   6.215   5.974   7.660 -0.5068  0.0546  2.7283
 7737TIP3    H247407   6.345   6.050   7.646 -0.4948 -0.4656 -1.3758
 7738TIP3   OH247408   1.202   4.508   6.968  0.2203 -0.1683 -0.2840
 7738TIP3    H147409   1.192   4.468   6.882 -1.0909  1.2456 -0.8487
 7738TIP3    H247410   1.276   4.568   6.958  1.5641 -1.6540  0.2875
 7739TIP3   OH247411   4.542   5.077   7.817 -0.0486 -0.4356  0.9761
 7739TIP3    H147412   4.470   5.085   7.755  0.6858  1.4335  0.2893
 7739TIP3    H247413   4.520   5.000   7.870 -0.7011 -2.1572 -1.6007
 7740TIP3   OH247414   2.548   3.661   6.516 -0.3568  0.1768 -0.1134
 7740TIP3    H147415   2.580   3.669   6.606 -1.8927  0.1056  0.4694
 7740TIP3    H247416   2.556   3.567   6.497  1.9696  0.4700 -0.8668
 7741TIP3   OH247417   4.422   0.871   6.690  0.5601 -0.0461 -0.0080
 7741TIP3    H147418   4.390   0.823   6.766  0.5079 -0.4708 -0.2907
 7741TIP3    H247419   4.517   0.859   6.692  1.1243  3.3977  2.3202
 7742TIP3   OH247420   0.520   3.174   6.422  0.0430 -0.5249 -0.3140
 7742TIP3    H147421   0.519   3.078   6.413  1.4745 -0.6383  0.4098
 7742TIP3    H247422   0.606   3.200   6.388  0.3692  0.3114  1.0617
 7743TIP3   OH247423   6.151   5.752   5.386  0.0857 -0.1662 -0.4942
 7743TIP3    H147424   6.150   5.848   5.379  0.6612 -0.1810 -0.9380
 7743TIP3    H247425   6.089   5.723   5.320 -1.4433 -0.0664  0.8422
 7744TIP3   OH247426   5.146   2.133   6.894 -0.3787 -0.4410 -0.0065
 7744TIP3    H147427   5.200   2.200   6.935  0.5189 -0.8059 -0.5648
 7744TIP3    H247428   5.169   2.052   6.938 -0.2056 -0.6570 -0.4847
 7745TIP3   OH247429   1.898   5.815   8.302  0.1005  0.0443  0.3931
 7745TIP3    H147430   1.902   5.770   8.218  0.7090  0.8472 -0.0238
 7745TIP3    H247431   1.804   5.822   8.321 -0.0383 -0.2356 -0.1627
 7746TIP3   OH247432   6.126   6.622   8.070 -0.3076 -0.0515  0.0124
 7746TIP3    H147433   6.094   6.690   8.129 -0.7463  1.2848 -1.6662
 7746TIP3    H247434   6.047   6.587   8.029 -0.0352 -1.1847  0.4432
 7747TIP3   OH247435   6.543   0.236   6.566  0.6070  0.4449 -0.1754
 7747TIP3    H147436   6.624   0.186   6.560  1.3286  1.6269 -0.6781
 7747TIP3    H247437   6.566   0.324   6.534 -0.7266  0.9687  0.2116
 7748TIP3   OH247438   4.462   0.156   7.642  0.3003  0.3476  0.8743
 7748TIP3    H147439   4.481   0.079   7.589 -2.0592  0.8644 -0.9248
 7748TIP3    H247440   4.547   0.190   7.668  1.4627 -1.4544 -0.3800
 7749TIP3   OH247441   0.626   1.474   7.029 -0.5099 -0.4458 -0.0291
 7749TIP3    H147442   0.632   1.569   7.037  0.2693 -0.5970  1.6711
 7749TIP3    H247443   0.546   1.458   6.978 -0.6099  1.1044 -0.3874
 7750TIP3   OH247444   5.618   2.817   8.003  0.4138 -0.2041 -0.1804
 7750TIP3    H147445   5.682   2.780   8.063  1.0169  1.9306  0.5866
 7750TIP3    H247446   5.535   2.774   8.025  1.0267 -0.8863  0.8175
 7751TIP3   OH247447   3.249   4.720   6.533  0.3329  0.7276 -0.0922
 7751TIP3    H147448   3.194   4.649   6.566  1.5606  0.1501  0.7792
 7751TIP3    H247449   3.234   4.721   6.439  0.8114 -1.1544 -0.2217
 7752TIP3   OH247450   5.900   5.985   8.909  0.2403 -0.0653 -0.3291
 7752TIP3    H147451   5.879   6.068   8.866 -2.1035 -0.9759 -1.0843
 7752TIP3    H247452   5.991   5.996   8.938  0.5823  2.0968 -1.9357
 7753TIP3   OH247453   0.651   6.438   7.649 -0.4067  0.2901 -0.2275
 7753TIP3    H147454   0.649   6.370   7.716 -0.3770  0.9980  0.5191
 7753TIP3    H247455   0.743   6.443   7.623 -0.6288 -0.9109 -1.3167
 7754TIP3   OH247456   1.369   2.994   7.631 -0.4100  0.4985  0.9919
 7754TIP3    H147457   1.417   3.064   7.587  0.3930 -0.6695 -0.1085
 7754TIP3    H247458   1.277   3.018   7.622 -0.2051  0.9100 -0.3100
 7755TIP3   OH247459   0.133   6.263   8.062  0.3330  0.3539 -0.0783
 7755TIP3    H147460   0.192   6.205   8.111 -0.5720 -0.0190  0.6053
 7755TIP3    H247461   0.191   6.321   8.014  1.2615  0.3272  0.9658
 7756TIP3   OH247462   1.366   4.557   8.321  0.3244 -0.2527 -0.0873
 7756TIP3    H147463   1.318   4.489   8.367 -1.0589  0.5024 -0.3463
 7756TIP3    H247464   1.298   4.608   8.276  1.0785  2.4399  1.5848
 7757TIP3   OH247465   2.402   6.518   6.951  0.4157  0.3587 -0.1362
 7757TIP3    H147466   2.434   6.534   7.040 -1.0397  0.6813  0.3648
 7757TIP3    H247467   2.321   6.468   6.963  0.2495  0.3099 -1.2937
 7758TIP3   OH247468   2.763   4.001   7.052  0.3127  0.2959  0.2666
 7758TIP3    H147469   2.737   4.020   6.962 -2.0718  0.5203  0.9374
 7758TIP3    H247470   2.783   4.087   7.090 -2.2608  0.6975  0.9139
 7759TIP3   OH247471   4.043   3.654   8.255 -0.0332  0.1802  0.7090
 7759TIP3    H147472   4.110   3.624   8.317 -0.3300 -1.1671  0.4042
 7759TIP3    H247473   4.086   3.725   8.206  1.2321 -0.7182  0.4620
 7760TIP3   OH247474   4.863   5.486   6.614 -0.1837 -0.4040  0.4134
 7760TIP3    H147475   4.823   5.518   6.533 -1.2360 -3.1859 -0.2730
 7760TIP3    H247476   4.790   5.463   6.670  0.5399 -0.4744  1.3625
 7761TIP3   OH247477   1.893   1.032   9.538  0.2777 -0.2182 -0.7510
 7761TIP3    H147478   1.836   1.078   9.476  0.4228  1.1663  0.1118
 7761TIP3    H247479   1.965   0.998   9.484 -0.4975 -0.5540 -1.5923
 7762TIP3   OH247480   1.120   5.198   6.780 -0.2980  0.1969  0.0160
 7762TIP3    H147481   1.146   5.269   6.721 -2.1040  0.5940 -0.3707
 7762TIP3    H247482   1.139   5.118   6.732 -1.6097  0.5132 -1.0886
 7763TIP3   OH247483   0.511   5.451   6.839  0.6736 -0.0081 -0.5594
 7763TIP3    H147484   0.513   5.448   6.743  0.0045  2.8207 -0.7460
 7763TIP3    H247485   0.563   5.528   6.862 -0.6384  0.4130  1.2484
 7764TIP3   OH247486   6.604   0.914   6.933  0.0472  0.0469 -0.2874
 7764TIP3    H147487   6.610   0.822   6.910 -0.7016 -0.1941  0.4262
 7764TIP3    H247488   6.679   0.955   6.890  0.5780 -0.9497 -0.3346
 7765TIP3   OH247489   0.911   4.842   8.674 -0.6953 -0.2193 -0.6740
 7765TIP3    H147490   0.838   4.793   8.713 -0.6669 -0.5134 -0.9879
 7765TIP3    H247491   0.868   4.905   8.616 -0.8331  1.3271  1.0124
 7766TIP3   OH247492   1.334   2.507   8.575  0.0877 -0.1920  0.2438
 7766TIP3    H147493   1.259   2.563   8.555 -1.3447 -1.7364  1.0076
 7766TIP3    H247494   1.302   2.418   8.559  1.9322 -0.8741  0.1192
 7767TIP3   OH247495   0.751   2.868   7.127 -0.8963 -0.2375 -0.7732
 7767TIP3    H147496   0.659   2.892   7.110 -1.5368 -0.2755  2.0291
 7767TIP3    H247497   0.795   2.952   7.142 -0.7834 -0.2823 -0.8570
 7768TIP3   OH247498   2.876   6.651   6.135  0.0407 -0.5457 -0.4576
 7768TIP3    H147499   2.809   6.679   6.197  1.7808  1.9702  0.4199
 7768TIP3    H247500   2.873   6.555   6.138 -2.4987 -0.5125  0.5881
 7769TIP3   OH247501   3.485   1.049   7.380  0.1415  0.2928  0.1652
 7769TIP3    H147502   3.432   0.994   7.323  1.2287 -0.5585 -0.0495
 7769TIP3    H247503   3.473   1.138   7.345 -1.5631  0.2232  0.4715
 7770TIP3   OH247504   3.826   0.628   7.652  0.2822  0.3957  0.4188
 7770TIP3    H147505   3.908   0.589   7.681 -0.4166 -0.0124  1.9589
 7770TIP3    H247506   3.824   0.612   7.557  1.5872 -0.2995  0.4826
 7771TIP3   OH247507   1.120   3.094   7.676 -0.5734 -0.3014  0.5486
 7771TIP3    H147508   1.122   3.190   7.670  0.3122  0.1667  4.8210
 7771TIP3    H247509   1.027   3.071   7.667 -0.9255  1.0708  0.4823
 7772TIP3   OH247510   6.543   3.627   6.676  0.1280 -0.0311  0.3051
 7772TIP3    H147511   6.453   3.620   6.707  0.2513 -1.5418  0.3680
 7772TIP3    H247512   6.547   3.713   6.634 -1.1824  0.2831  0.7803
 7773TIP3   OH247513   2.045   0.026   7.951 -0.3911  0.0741 -0.0265
 7773TIP3    H147514   2.018   0.116   7.974 -1.9722 -0.7071  1.4109
 7773TIP3    H247515   2.071  -0.013   8.034  0.2600 -0.8394 -0.6383
 7774TIP3   OH247516   0.676   1.923   8.034  0.7981  0.1097  0.2057
 7774TIP3    H147517   0.651   1.988   7.969 -0.5610  0.4278  1.0231
 7774TIP3    H247518   0.616   1.850   8.019  0.8113 -0.0206  0.7708
 7775TIP3   OH247519   5.165   3.875   7.042  0.2353  0.0425 -0.1139
 7775TIP3    H147520   5.110   3.797   7.050 -0.3979  0.6743  3.7234
 7775TIP3    H247521   5.214   3.879   7.124  2.6042  2.0464 -1.4706
 7776TIP3   OH247522   2.251   3.964   8.376 -0.2972  0.1508 -0.1463
 7776TIP3    H147523   2.172   3.914   8.400 -0.5508 -0.7079 -2.5065
 7776TIP3    H247524   2.220   4.031   8.316  0.5998  0.7600  0.0464
 7777TIP3   OH247525   2.162   4.224   7.311  0.1685 -0.2830  0.5187
 7777TIP3    H147526   2.134   4.260   7.227 -0.1460 -1.2369  0.2037
 7777TIP3    H247527   2.133   4.289   7.375 -1.0829 -0.3285  0.0282
 7778TIP3   OH247528   5.308   6.176   6.853  0.1166 -0.1320 -0.0101
 7778TIP3    H147529   5.339   6.179   6.944  0.1188 -0.0062 -0.0148
 7778TIP3    H247530   5.293   6.083   6.837 -1.2130 -0.0327  0.5669
 7779TIP3   OH247531   3.078   1.376   7.675 -0.4052 -0.2132  0.3744
 7779TIP3    H147532   3.103   1.403   7.764  0.9466 -0.5712  0.1197
 7779TIP3    H247533   2.987   1.405   7.666  0.2539  2.2641  0.9053
 7780TIP3   OH247534   1.134   3.365   7.729  0.1856  0.1619  0.2142
 7780TIP3    H147535   1.230   3.369   7.728  0.3228 -1.4775  1.9416
 7780TIP3    H247536   1.112   3.337   7.818 -1.9984  2.0133  0.3510
 7781TIP3   OH247537   2.040   1.297   6.267  0.2020 -0.1926  0.5060
 7781TIP3    H147538   2.051   1.359   6.195  0.5626 -0.2874  0.4783
 7781TIP3    H247539   2.079   1.340   6.343  0.1822 -0.2571  0.5537
 7782TIP3   OH247540   6.065   3.614   5.982  0.3138 -0.0126 -0.1720
 7782TIP3    H147541   6.136   3.598   6.044  0.3307 -1.0451 -0.4265
 7782TIP3    H247542   6.089   3.562   5.905 -0.4201  0.1033 -0.4897
 7783TIP3   OH247543   5.966   4.022   5.853 -0.2640 -0.4300 -0.1477
 7783TIP3    H147544   6.010   3.939   5.834 -1.1376 -0.6166 -1.5237
 7783TIP3    H247545   5.941   4.016   5.945  0.5112 -1.2770  0.0249
 7784TIP3   OH247546   4.445   4.545   6.060 -0.3163  0.5786  0.0081
 7784TIP3    H147547   4.474   4.586   6.141  1.2449  0.3998 -0.4159
 7784TIP3    H247548   4.492   4.461   6.057 -0.1757  0.6748 -1.1633
 7785TIP3   OH247549   1.163   2.944   8.237 -0.1479  0.3494 -0.1009
 7785TIP3    H147550   1.080   2.985   8.263  0.6731  0.7883  2.0134
 7785TIP3    H247551   1.221   3.019   8.221  0.0126  0.0315 -1.0849
 7786TIP3   OH247552   3.340   5.588   7.351 -0.3667  0.5005  0.0981
 7786TIP3    H147553   3.269   5.621   7.297 -0.8477  0.2681  0.5811
 7786TIP3    H247554   3.306   5.508   7.390 -0.0714  0.7164  0.8225
 7787TIP3   OH247555   6.697   6.307   5.967 -0.4150  0.2823  0.4506
 7787TIP3    H147556   6.759   6.236   5.984 -0.4327  0.0440 -0.4628
 7787TIP3    H247557   6.744   6.366   5.908 -0.2199  1.2978  1.5834
 7788TIP3   OH247558   1.680   6.678   7.055  0.1336 -0.3449 -0.2146
 7788TIP3    H147559   1.608   6.677   7.118 -0.6620 -1.0254 -1.0914
 7788TIP3    H247560   1.637   6.687   6.970  1.2470  1.5626 -0.6192
 7789TIP3   OH247561   3.559   5.201   6.482 -0.2736 -0.5467 -0.3770
 7789TIP3    H147562   3.565   5.152   6.564 -0.7002  0.6118  0.3620
 7789TIP3    H247563   3.594   5.287   6.502 -0.3105 -0.2673 -1.4394
 7790TIP3   OH247564   5.794   3.644   5.979  0.2934 -0.0347  0.4841
 7790TIP3    H147565   5.758   3.557   5.995 -0.9382  0.1664 -0.9510
 7790TIP3    H247566   5.888   3.635   5.997  0.2875 -1.8095 -0.1944
 7791TIP3   OH247567   2.155   5.982   7.760 -0.0007 -0.1568 -0.2000
 7791TIP3    H147568   2.235   5.991   7.708 -0.7936  0.8140 -1.3202
 7791TIP3    H247569   2.133   6.072   7.785 -1.0962 -0.3251 -0.4953
 7792TIP3   OH247570   4.419   1.365   6.176  0.1888  0.0249 -0.3165
 7792TIP3    H147571   4.368   1.444   6.158  1.8961  0.9499 -1.3032
 7792TIP3    H247572   4.509   1.396   6.184  0.7030 -1.6299  0.8725
 7793TIP3   OH247573   3.810   1.066   8.106  0.3928 -0.6694 -0.2877
 7793TIP3    H147574   3.871   1.139   8.098 -2.2447  1.6010 -1.2501
 7793TIP3    H247575   3.851   0.995   8.057  2.6283  0.4078 -0.1065
 7794TIP3   OH247576   1.624   4.024   6.278 -0.0097  0.2046  0.1767
 7794TIP3    H147577   1.695   4.010   6.215 -0.1383  2.0417 -0.4335
 7794TIP3    H247578   1.547   4.042   6.224 -0.0737  2.0277  0.8083
 7795TIP3   OH247579   5.467   3.220   8.322 -0.6073  0.6364 -0.2515
 7795TIP3    H147580   5.504   3.253   8.404 -0.8334 -0.3173  0.2410
 7795TIP3    H247581   5.373   3.214   8.338 -0.7314  1.0600 -0.8002
 7796TIP3   OH247582   1.672   5.425   8.729 -0.0595 -0.0349  0.4550
 7796TIP3    H147583   1.662   5.486   8.657 -0.0269 -0.1839  0.3238
 7796TIP3    H247584   1.705   5.478   8.802  0.6723 -0.0337  0.1304
 7797TIP3   OH247585   4.777   0.811   6.380  0.7493  0.3508  0.1031
 7797TIP3    H147586   4.735   0.844   6.459  0.1549  1.5402 -0.6760
 7797TIP3    H247587   4.841   0.879   6.356  0.7233  0.1422 -0.5897
 7798TIP3   OH247588   1.343   3.186   8.714  0.2962  0.4900 -0.0270
 7798TIP3    H147589   1.250   3.177   8.731  0.3634  0.3196  0.2381
 7798TIP3    H247590   1.353   3.277   8.685 -0.0356  0.3470 -0.5991
 7799TIP3   OH247591   3.319   0.453   7.819  0.4328  0.3058  0.8862
 7799TIP3    H147592   3.372   0.407   7.885 -0.4015 -2.5399 -0.2938
 7799TIP3    H247593   3.383   0.494   7.761  1.5182 -2.8860 -0.3866
 7800TIP3   OH247594   6.660   1.462   5.532 -0.6307  0.2491 -0.2080
 7800TIP3    H147595   6.741   1.455   5.482 -0.5381  0.5348 -0.0916
 7800TIP3    H247596   6.641   1.555   5.536 -1.7978  0.1025 -1.5934
 7801TIP3   OH247597   6.268   6.687   7.325 -0.3914 -0.0263 -0.1190
 7801TIP3    H147598   6.355   6.726   7.315  0.1919 -1.2643 -0.0589
 7801TIP3    H247599   6.266   6.652   7.414 -1.4449  1.1322  0.3314
 7802TIP3   OH247600   4.292   6.499   6.722 -0.5912  0.1061  0.2836
 7802TIP3    H147601   4.205   6.528   6.749 -1.1688  0.0261 -1.3843
 7802TIP3    H247602   4.291   6.404   6.732 -2.0149 -0.3580 -3.0689
 7803TIP3   OH247603   6.326   5.216   7.532  0.5852  0.2852  0.2314
 7803TIP3    H147604   6.410   5.246   7.569  0.9396  0.3367 -0.5910
 7803TIP3    H247605   6.269   5.293   7.536  0.7565  0.4107  0.2782
 7804TIP3   OH247606   4.974   4.703   8.558  0.0885 -0.1713  0.5644
 7804TIP3    H147607   4.976   4.674   8.649  0.5865 -1.1220  0.2673
 7804TIP3    H247608   5.060   4.740   8.543  0.3812 -0.9596  0.2043
 7805TIP3   OH247609   1.887   1.003   7.011  0.0960  0.0297  0.1178
 7805TIP3    H147610   1.887   0.999   7.106 -0.3951 -1.1654  0.0958
 7805TIP3    H247611   1.811   1.058   6.989  1.1635  1.6626  0.4186
 7806TIP3   OH247612   1.237   0.353   6.047  0.0453  0.3065  0.0881
 7806TIP3    H147613   1.298   0.323   6.113 -0.7051 -1.4637  0.0415
 7806TIP3    H247614   1.290   0.366   5.969  0.6017  0.3024  0.4640
 7807TIP3   OH247615   0.267   2.133   5.774  0.4958 -0.1029  0.1393
 7807TIP3    H147616   0.203   2.069   5.804 -1.3548  2.4980  2.2008
 7807TIP3    H247617   0.349   2.083   5.766 -1.0144 -2.8561  0.7014
 7808TIP3   OH247618   4.771   5.777   5.764 -0.2934  0.2897 -0.2257
 7808TIP3    H147619   4.808   5.853   5.809 -1.2826  0.4579  0.3343
 7808TIP3    H247620   4.676   5.788   5.773 -0.5232  0.1466 -2.0548
 7809TIP3   OH247621   4.146   3.836   8.052 -0.0552  0.1351  0.2666
 7809TIP3    H147622   4.207   3.829   7.978 -0.3396 -1.7003  0.1466
 7809TIP3    H247623   4.172   3.916   8.097  1.2302  0.3932 -0.8475
 7810TIP3   OH247624   0.934   5.847   7.598  0.3364  0.1460  0.6244
 7810TIP3    H147625   0.908   5.757   7.576  1.0843  0.2811 -1.0001
 7810TIP3    H247626   1.027   5.851   7.573  0.8366  0.8366  2.4672
 7811TIP3   OH247627   4.166   3.698   7.630 -0.6103  0.4830  0.4698
 7811TIP3    H147628   4.252   3.739   7.632  0.4879 -1.7189  0.8167
 7811TIP3    H247629   4.148   3.684   7.537 -0.4920  0.7193  0.4105
 7812TIP3   OH247630   6.497   6.252   6.948  0.6690  0.4898  0.4228
 7812TIP3    H147631   6.548   6.179   6.984  0.1814 -0.1936 -0.2343
 7812TIP3    H247632   6.532   6.329   6.991  1.1189 -0.1460  1.2281
 7813TIP3   OH247633   0.909   6.062   8.505  0.1024  0.3420 -0.2240
 7813TIP3    H147634   0.991   6.103   8.530 -0.8820  0.6710  2.8753
 7813TIP3    H247635   0.841   6.126   8.528 -1.0805 -0.0715 -2.3265
 7814TIP3   OH247636   1.654   5.852   7.541  0.8635  0.2735  0.8300
 7814TIP3    H147637   1.641   5.924   7.479  1.9525  0.3194  0.6459
 7814TIP3    H247638   1.746   5.858   7.566  0.2634  0.7704  3.1120
 7815TIP3   OH247639   0.866   3.125   7.502 -0.4834 -0.6873 -0.2494
 7815TIP3    H147640   0.866   3.218   7.523  2.3809 -0.3052 -1.4231
 7815TIP3    H247641   0.782   3.109   7.461 -1.1875  1.2739  0.3268
 7816TIP3   OH247642   5.970   4.739   7.793  0.2949 -0.0157 -0.3344
 7816TIP3    H147643   5.893   4.783   7.830  0.6381  0.5944 -0.3336
 7816TIP3    H247644   6.044   4.787   7.830  0.6934 -0.9279  0.0767
 7817TIP3   OH247645   4.472   4.339   5.258 -0.1269 -0.0653 -0.0928
 7817TIP3    H147646   4.521   4.316   5.179 -0.3501  0.7358 -0.4816
 7817TIP3    H247647   4.426   4.259   5.282 -0.7515 -0.0895 -1.2946
 7818TIP3   OH247648   4.601   0.155   6.454  0.3638  0.5171 -0.5512
 7818TIP3    H147649   4.662   0.082   6.450 -0.6455 -0.4819  1.2026
 7818TIP3    H247650   4.631   0.208   6.528 -0.5781  0.2643  0.0371
 7819TIP3   OH247651   5.017   5.604   7.458 -0.1524 -0.3669 -0.0612
 7819TIP3    H147652   5.054   5.659   7.527 -2.9420  1.3379  0.2225
 7819TIP3    H247653   5.038   5.651   7.377 -0.6032 -0.0706 -0.0068
 7820TIP3   OH247654   4.283   2.051   6.344 -0.5791 -0.1707 -0.1349
 7820TIP3    H147655   4.355   1.990   6.362  0.1056  0.5855 -0.2831
 7820TIP3    H247656   4.265   2.092   6.429 -0.3416  0.1688 -0.2476
 7821TIP3   OH247657   4.344   4.242   6.599  0.4601 -0.0436 -0.2269
 7821TIP3    H147658   4.249   4.231   6.593  0.5170 -0.8324  0.1560
 7821TIP3    H247659   4.364   4.315   6.541 -0.4320  0.3862 -0.0017
 7822TIP3   OH247660   1.957   4.363   8.789  0.5011  0.5404 -0.0014
 7822TIP3    H147661   2.044   4.325   8.800  0.4953 -0.3286 -2.4272
 7822TIP3    H247662   1.969   4.434   8.726 -0.9085 -1.5781 -2.8920
 7823TIP3   OH247663   1.761   0.193   5.531  0.6583  0.2885 -0.1220
 7823TIP3    H147664   1.677   0.150   5.548  0.4078  0.3750 -1.1117
 7823TIP3    H247665   1.826   0.138   5.576 -0.0341  0.8633  1.6397
 7824TIP3   OH247666   2.201   6.367   7.084  0.5203 -0.2014  0.3470
 7824TIP3    H147667   2.120   6.402   7.121  0.3799 -0.6561  0.4691
 7824TIP3    H247668   2.222   6.292   7.139  0.3830 -0.8028 -0.4139
 7825TIP3   OH247669   4.270   3.492   5.511  0.4666 -0.3833 -0.0933
 7825TIP3    H147670   4.210   3.428   5.551  0.0887  0.5245  0.8363
 7825TIP3    H247671   4.353   3.477   5.556 -0.0270  0.8206  1.2931
 7826TIP3   OH247672   4.369   5.673   8.026  0.0094  0.2182  0.0212
 7826TIP3    H147673   4.337   5.695   7.939  0.8160  0.6932 -0.1693
 7826TIP3    H247674   4.316   5.599   8.054 -1.1854  0.9296 -0.3086
 7827TIP3   OH247675   3.608   3.498   7.412 -0.4967 -0.9587 -0.6557
 7827TIP3    H147676   3.697   3.478   7.383  0.1864  0.4638  0.3378
 7827TIP3    H247677   3.581   3.421   7.462 -0.0329 -1.6174 -1.3983
 7828TIP3   OH247678   2.678   3.347   7.089 -0.0835 -0.1194 -0.0908
 7828TIP3    H147679   2.614   3.394   7.036 -0.2666  0.3318  0.5165
 7828TIP3    H247680   2.701   3.409   7.158 -0.8233 -1.1312  1.1096
 7829TIP3   OH247681   1.777   0.891   9.278  0.1176 -0.0361 -0.1367
 7829TIP3    H147682   1.682   0.875   9.279  0.0921  0.0946  0.8974
 7829TIP3    H247683   1.786   0.978   9.317  0.6626 -0.0152 -0.3068
 7830TIP3   OH247684   5.511   3.760   5.518 -0.3317 -0.4930 -1.0564
 7830TIP3    H147685   5.577   3.717   5.573  0.0239 -0.6637 -1.6135
 7830TIP3    H247686   5.439   3.696   5.513 -0.8531 -0.0310  0.1209
 7831TIP3   OH247687   4.474   1.767   6.359 -0.1739 -0.1047  0.0374
 7831TIP3    H147688   4.545   1.771   6.295 -0.9938  0.6705 -0.8681
 7831TIP3    H247689   4.406   1.715   6.316  0.1772 -1.6289  1.2682
 7832TIP3   OH247690   4.324   2.345   6.873 -0.8287 -0.0895 -0.2703
 7832TIP3    H147691   4.347   2.339   6.780  0.5319 -3.0820  0.1549
 7832TIP3    H247692   4.402   2.379   6.915 -0.7441 -0.6040 -0.0052
 7833TIP3   OH247693   4.767   6.409   7.071 -0.4729  0.2592  0.4128
 7833TIP3    H147694   4.801   6.369   6.991  2.2811  1.1699  1.0129
 7833TIP3    H247695   4.799   6.499   7.068  1.2155 -0.1223  3.2736
 7834TIP3   OH247696   4.890   3.664   9.008  0.1724 -0.1849  0.0367
 7834TIP3    H147697   4.952   3.734   9.028 -0.5457  0.7284 -0.8017
 7834TIP3    H247698   4.805   3.708   9.006 -0.3925 -1.2445  0.2710
 7835TIP3   OH247699   0.420   6.319   8.379  0.1259  0.2619  0.3000
 7835TIP3    H147700   0.493   6.259   8.363  0.4274  0.9063 -0.9204
 7835TIP3    H247701   0.425   6.339   8.472 -0.0721 -1.7046  0.7720
 7836TIP3   OH247702   5.565   2.704   6.315 -0.6834 -0.0163 -0.3185
 7836TIP3    H147703   5.535   2.760   6.387 -3.0212  0.0108 -1.2073
 7836TIP3    H247704   5.490   2.701   6.255  0.4553 -1.6958 -1.7492
 7837TIP3   OH247705   2.721   4.941   6.785  0.1806  0.6538  0.5026
 7837TIP3    H147706   2.701   5.033   6.800 -0.9393  0.4678  0.2608
 7837TIP3    H247707   2.739   4.935   6.691 -1.0968  0.4122  0.2566
 7838TIP3   OH247708   5.357   4.540   6.662 -0.1636 -0.1517 -0.3654
 7838TIP3    H147709   5.430   4.480   6.645 -0.6977 -0.7317 -0.6685
 7838TIP3    H247710   5.336   4.577   6.576  0.4361  0.8050 -0.1153
 7839TIP3   OH247711   3.433   4.647   6.092 -0.7118  0.8345  0.1228
 7839TIP3    H147712   3.465   4.601   6.169  0.0622  2.6392  0.9492
 7839TIP3    H247713   3.512   4.684   6.052 -1.1876  0.5099 -1.1519
 7840TIP3   OH247714   6.421   5.835   7.139  0.2756  0.7983  0.2704
 7840TIP3    H147715   6.371   5.759   7.110  0.2428  0.8929  0.0804
 7840TIP3    H247716   6.360   5.884   7.195 -0.1216  1.3549 -0.6383
 7841TIP3   OH247717   3.247   2.898   8.031 -0.0250  0.0557  0.3538
 7841TIP3    H147718   3.275   2.910   8.121  0.6524 -0.0770  0.1691
 7841TIP3    H247719   3.195   2.818   8.031 -1.6217  1.0584  0.9632
 7842TIP3   OH247720   1.125   5.144   9.051 -0.2172  0.4533 -0.0162
 7842TIP3    H147721   1.184   5.116   8.982  0.6370  1.9605  0.0561
 7842TIP3    H247722   1.039   5.150   9.008 -0.4238 -2.0282 -0.0441
 7843TIP3   OH247723   2.443   2.777   5.913  0.3819 -0.9108  0.3707
 7843TIP3    H147724   2.500   2.814   5.845  0.4919  0.2114  1.0423
 7843TIP3    H247725   2.503   2.748   5.981  0.1823  0.8904  1.3824
 7844TIP3   OH247726   1.248   5.900   6.554  0.1886 -0.1645  0.0607
 7844TIP3    H147727   1.186   5.965   6.521 -0.7066 -0.3977  1.2200
 7844TIP3    H247728   1.295   5.946   6.624  0.4305 -0.3778  0.0392
 7845TIP3   OH247729   1.567   0.321   6.838 -0.2816  0.3864 -0.8370
 7845TIP3    H147730   1.609   0.248   6.792 -2.0268 -0.5638 -0.9927
 7845TIP3    H247731   1.631   0.392   6.834  0.8594 -0.6670 -1.9868
 7846TIP3   OH247732   2.338   1.693   8.343  0.0769  0.2378  0.0862
 7846TIP3    H147733   2.280   1.631   8.388  1.6610 -0.1484  1.6909
 7846TIP3    H247734   2.341   1.769   8.401  1.4196  0.1166  0.1871
 7847TIP3   OH247735   1.954   5.642   8.110  0.8077 -0.1020 -0.1526
 7847TIP3    H147736   1.968   5.715   8.050  1.1431  2.0464  2.3685
 7847TIP3    H247737   2.038   5.629   8.154  0.4808 -1.3516  0.1519
 7848TIP3   OH247738   3.498   4.901   5.827  0.0924 -0.8534 -0.6112
 7848TIP3    H147739   3.535   4.953   5.756 -0.6579 -2.5697 -2.3716
 7848TIP3    H247740   3.523   4.946   5.906 -0.7373  2.3088 -2.0048
 7849TIP3   OH247741   6.558   0.886   5.963  0.1085  0.1496  0.4130
 7849TIP3    H147742   6.606   0.867   5.883 -1.2190  1.1047 -0.6397
 7849TIP3    H247743   6.599   0.965   5.998 -1.7751  2.1195 -1.5099
 7850TIP3   OH247744   0.588   2.410   6.129 -0.4046 -0.0038 -0.7600
 7850TIP3    H147745   0.519   2.443   6.186 -0.2067  0.7118 -0.9244
 7850TIP3    H247746   0.598   2.478   6.062 -1.7022 -1.4820 -2.5723
 7851TIP3   OH247747   0.833   2.394   8.703  0.1747  0.1665  0.1498
 7851TIP3    H147748   0.884   2.355   8.773  0.1591 -1.3614 -0.6469
 7851TIP3    H247749   0.750   2.346   8.704 -0.1033  0.6180 -0.4477
 7852TIP3   OH247750   0.340   6.050   8.124  0.1226 -0.0045  0.1063
 7852TIP3    H147751   0.411   5.994   8.092  1.5081  1.0262  1.2457
 7852TIP3    H247752   0.345   6.042   8.220 -0.5141  1.0395  0.2411
 7853TIP3   OH247753   6.648   4.148   6.706 -0.6625  0.0564  0.0060
 7853TIP3    H147754   6.666   4.211   6.775 -1.0231 -1.4915  1.5658
 7853TIP3    H247755   6.734   4.109   6.687 -0.6379  0.1641 -0.1063
 7854TIP3   OH247756   5.508   0.965   5.710 -0.3037  0.0986  0.9284
 7854TIP3    H147757   5.464   1.031   5.763 -1.8390 -0.1848  0.0761
 7854TIP3    H247758   5.601   0.979   5.726 -0.6922  0.0309  3.6403
 7855TIP3   OH247759   4.395   0.855   8.717  0.7511 -0.1780 -0.3098
 7855TIP3    H147760   4.484   0.876   8.689  1.0637  1.8440  1.9598
 7855TIP3    H247761   4.347   0.937   8.710 -0.2401 -0.6189  0.9723
 7856TIP3   OH247762   3.736   4.786   5.317 -0.3226 -0.3610 -0.5004
 7856TIP3    H147763   3.694   4.704   5.342 -0.5399 -0.1353 -0.1236
 7856TIP3    H247764   3.671   4.853   5.334  0.1013 -0.0312 -0.1372
 7857TIP3   OH247765   2.699   3.835   6.117 -0.5872  0.4183  0.0188
 7857TIP3    H147766   2.619   3.828   6.170 -0.7634  1.9486 -0.0097
 7857TIP3    H247767   2.742   3.750   6.128 -2.5174 -0.6853 -0.4637
 7858TIP3   OH247768   0.169   2.568   8.227  0.1009  0.0665  0.9866
 7858TIP3    H147769   0.236   2.502   8.211 -2.2168 -2.1111 -0.5780
 7858TIP3    H247770   0.135   2.547   8.314  0.0945 -0.1841  0.9271
 7859TIP3   OH247771   2.402   0.512   5.533  0.3330 -0.5315 -0.2319
 7859TIP3    H147772   2.474   0.567   5.503 -1.0601  0.9976 -0.9313
 7859TIP3    H247773   2.362   0.562   5.604 -0.5072 -0.9949 -0.3713
 7860TIP3   OH247774   2.205   0.486   7.231  0.5144  0.2441 -0.1803
 7860TIP3    H147775   2.141   0.552   7.259 -0.3339 -0.5221 -0.2630
 7860TIP3    H247776   2.264   0.533   7.173 -0.3578  0.8475 -0.6136
 7861TIP3   OH247777   1.816   6.363   5.938 -0.1277 -0.3510 -0.5034
 7861TIP3    H147778   1.832   6.423   5.865 -0.1585 -0.7027 -0.8015
 7861TIP3    H247779   1.755   6.410   5.995  2.5891  1.4309  1.1601
 7862TIP3   OH247780   3.290   2.821   7.199 -0.1148  0.8291  0.4371
 7862TIP3    H147781   3.314   2.901   7.246 -0.6428  0.5073  1.2689
 7862TIP3    H247782   3.206   2.841   7.159  0.2601  1.0479 -0.2639
 7863TIP3   OH247783   2.465   6.126   8.256  0.0135  0.3532  0.1981
 7863TIP3    H147784   2.392   6.090   8.205  0.7651  2.1675 -2.3236
 7863TIP3    H247785   2.443   6.218   8.268 -0.6085 -0.1292  4.2485
 7864TIP3   OH247786   0.120   6.032   7.224 -0.5979 -0.2285 -0.2724
 7864TIP3    H147787   0.184   5.967   7.254 -0.9842 -0.5451 -0.1192
 7864TIP3    H247788   0.118   6.098   7.293  0.0226  0.1100 -0.5722
 7865TIP3   OH247789   3.546   4.195   6.079 -0.2068 -0.1171  0.5218
 7865TIP3    H147790   3.510   4.162   5.997 -0.6307  0.4105  0.4903
 7865TIP3    H247791   3.470   4.227   6.128  0.1261  0.2941  0.7836
 7866TIP3   OH247792   3.392   0.409   5.474 -0.1019  0.2259 -0.3129
 7866TIP3    H147793   3.334   0.451   5.410 -0.4649 -0.3623 -0.3775
 7866TIP3    H247794   3.378   0.459   5.554  0.9537  1.4843 -0.8641
 7867TIP3   OH247795   0.538   4.079   7.683 -0.7251 -0.0244 -0.3053
 7867TIP3    H147796   0.608   4.118   7.734 -1.0904 -0.0879  0.2521
 7867TIP3    H247797   0.484   4.154   7.656 -1.3129 -0.1189  0.5927
 7868TIP3   OH247798   3.927   5.548   5.853 -0.3928 -0.1401  0.1607
 7868TIP3    H147799   3.945   5.621   5.912  1.4548  0.6556 -1.3008
 7868TIP3    H247800   3.851   5.577   5.802  0.0935  0.6234 -0.1489
 7869TIP3   OH247801   0.543   1.592   5.725  0.4226  0.0496 -0.1846
 7869TIP3    H147802   0.575   1.643   5.650  0.2493 -0.7880 -0.8478
 7869TIP3    H247803   0.622   1.560   5.767  0.5324  0.8134  0.2128
 7870TIP3   OH247804   4.716   3.587   5.870  0.1994 -0.0460  0.0425
 7870TIP3    H147805   4.711   3.504   5.916  0.6355 -0.6978 -1.0394
 7870TIP3    H247806   4.629   3.625   5.879 -0.7755 -1.7624 -1.4752
 7871TIP3   OH247807   4.031   4.805   6.354 -0.5453  0.4189 -0.0033
 7871TIP3    H147808   4.018   4.772   6.266 -1.1555  2.0754 -0.5751
 7871TIP3    H247809   3.989   4.740   6.411 -0.2905 -0.5770 -0.9203
 7872TIP3   OH247810   5.258   4.830   5.783 -0.2966 -0.1827  0.4147
 7872TIP3    H147811   5.242   4.841   5.877  0.9281 -1.1198  0.7595
 7872TIP3    H247812   5.343   4.786   5.778 -1.0440 -1.5602 -1.0977
 7873TIP3   OH247813   4.068   2.845   6.660  0.0210  0.1267  0.0100
 7873TIP3    H147814   4.002   2.908   6.688 -1.5582 -1.9722  1.4124
 7873TIP3    H247815   4.059   2.841   6.565 -0.1921  1.6183 -0.0466
 7874TIP3   OH247816   4.533   0.072   7.177 -0.0320  0.0154 -0.1412
 7874TIP3    H147817   4.509  -0.015   7.146 -0.2685  0.3401 -0.8825
 7874TIP3    H247818   4.628   0.067   7.191 -0.1384 -0.5415  0.4306
 7875TIP3   OH247819   5.901   1.459   6.199  0.2603  0.2365  0.0050
 7875TIP3    H147820   5.880   1.367   6.214  0.8715 -0.0955 -1.1331
 7875TIP3    H247821   5.818   1.505   6.215 -0.4150 -0.6627 -0.8063
 7876TIP3   OH247822   3.579   1.299   7.312  0.6090 -0.2966  0.0958
 7876TIP3    H147823   3.657   1.312   7.365  0.6870  1.1038 -0.3357
 7876TIP3    H247824   3.606   1.318   7.222 -0.5137  1.5957  0.1024
 7877TIP3   OH247825   5.970   2.766   6.282 -0.2939 -0.3231  0.3913
 7877TIP3    H147826   5.884   2.742   6.315 -0.2253  0.1654  0.9442
 7877TIP3    H247827   5.955   2.844   6.228 -0.1668 -0.0939  0.6856
 7878TIP3   OH247828   5.650   2.139   6.412  0.0451 -0.0029  0.8002
 7878TIP3    H147829   5.625   2.220   6.369  1.1455  0.5900  1.2155
 7878TIP3    H247830   5.718   2.165   6.475  1.8936 -1.5058 -0.4448
 7879TIP3   OH247831   0.822   5.613   7.885  0.1461 -0.5900  0.0743
 7879TIP3    H147832   0.835   5.594   7.792 -1.6171 -0.4821 -0.2209
 7879TIP3    H247833   0.903   5.583   7.927  0.8071 -1.0042 -1.4382
 7880TIP3   OH247834   3.967   6.197   5.906 -0.1392  0.0192  0.1644
 7880TIP3    H147835   4.033   6.138   5.870 -1.2300 -1.8506  1.0989
 7880TIP3    H247836   3.923   6.234   5.830  0.3367 -0.6744 -0.4545
 7881TIP3   OH247837   1.982   1.790   8.245 -0.5767  0.4355  0.0147
 7881TIP3    H147838   1.957   1.744   8.164 -0.2908  0.2361  0.0371
 7881TIP3    H247839   2.027   1.868   8.215  1.0680 -0.4829 -0.0354
 7882TIP3   OH247840   6.693   2.444   8.033 -0.0885 -0.2422 -0.2611
 7882TIP3    H147841   6.730   2.486   8.111  0.9412  0.7989 -1.2577
 7882TIP3    H247842   6.713   2.351   8.043  0.7627 -0.0042  0.3413
 7883TIP3   OH247843   1.705   1.445   7.419 -0.4892 -0.0214  0.0529
 7883TIP3    H147844   1.652   1.397   7.355 -1.0844  0.5003  0.1327
 7883TIP3    H247845   1.782   1.391   7.432  0.0770  0.2630 -1.7740
 7884TIP3   OH247846   1.077   6.035   9.023 -0.0672  0.6589  0.4828
 7884TIP3    H147847   1.119   6.102   9.078  1.6093 -0.3761  0.5230
 7884TIP3    H247848   1.097   5.953   9.067  1.3993 -0.2195 -1.6741
 7885TIP3   OH247849   5.439   0.235   9.114  1.0163 -0.5296  0.3941
 7885TIP3    H147850   5.475   0.315   9.076  2.8816 -1.6977 -0.4544
 7885TIP3    H247851   5.358   0.219   9.064 -1.2255  2.4363  2.6983
 7886TIP3   OH247852   0.489   5.809   7.794 -0.2346 -0.6111 -0.1052
 7886TIP3    H147853   0.498   5.896   7.755  1.2454 -0.9908 -0.6540
 7886TIP3    H247854   0.426   5.764   7.738 -0.3953 -0.1673 -0.2860
 7887TIP3   OH247855   0.827   1.737   5.591 -0.5618  0.1773  0.2188
 7887TIP3    H147856   0.873   1.821   5.596 -0.0341  0.0103 -1.2730
 7887TIP3    H247857   0.815   1.710   5.682  2.8567 -0.0681  0.7130
 7888TIP3   OH247858   3.285   4.362   7.628 -0.7217  0.5376  0.2553
 7888TIP3    H147859   3.325   4.282   7.662  0.4429  1.3190  0.7895
 7888TIP3    H247860   3.273   4.345   7.535  0.8691  0.2628  0.0757
 7889TIP3   OH247861   1.674   6.322   7.891 -0.0428 -0.1600 -0.4978
 7889TIP3    H147862   1.591   6.315   7.939 -0.3679  0.5010 -0.9510
 7889TIP3    H247863   1.669   6.252   7.825 -1.3007  1.3438 -2.0728
 7890TIP3   OH247864   6.342   0.500   6.334  0.1050  0.3502  0.5278
 7890TIP3    H147865   6.284   0.432   6.370  2.1468 -0.4478  2.5219
 7890TIP3    H247866   6.409   0.451   6.287  0.8981  1.0477  0.9163
 7891TIP3   OH247867   1.672   1.532   7.686  0.4501  0.2272  0.4943
 7891TIP3    H147868   1.601   1.471   7.704 -0.7585  1.4516  0.0130
 7891TIP3    H247869   1.666   1.549   7.592  0.5295  1.3671  0.6840
 7892TIP3   OH247870   0.832   5.601   6.648  0.0113  0.2873 -0.4828
 7892TIP3    H147871   0.833   5.518   6.600 -0.3492 -0.1414  0.2338
 7892TIP3    H247872   0.922   5.612   6.679 -0.1462 -0.3157  0.2134
 7893TIP3   OH247873   1.117   4.022   8.181 -0.2627 -0.6445  0.1345
 7893TIP3    H147874   1.186   4.041   8.118  0.2919 -0.4724  0.7778
 7893TIP3    H247875   1.162   4.019   8.265 -1.0804 -0.2850  0.5962
 7894TIP3   OH247876   6.680   0.861   7.841 -0.0645  0.2476  0.0159
 7894TIP3    H147877   6.661   0.781   7.793  0.9604  1.0656 -1.8340
 7894TIP3    H247878   6.655   0.932   7.782  2.3506  1.2941  0.1385
 7895TIP3   OH247879   2.540   3.926   8.226 -0.4099  0.2266  0.0051
 7895TIP3    H147880   2.562   3.946   8.135 -1.8429 -0.4196 -0.5184
 7895TIP3    H247881   2.542   4.011   8.270  0.1613  0.5642 -0.6544
 7896TIP3   OH247882   3.140   4.115   6.543 -0.0341 -0.2217  0.0435
 7896TIP3    H147883   3.087   4.157   6.474 -1.0786  1.6975  1.9073
 7896TIP3    H247884   3.218   4.170   6.550 -0.9012  0.8849  1.7498
 7897TIP3   OH247885   2.112   5.752   5.727 -0.1586  0.5299 -0.4280
 7897TIP3    H147886   2.109   5.833   5.677  0.1179  0.4297 -0.6098
 7897TIP3    H247887   2.023   5.741   5.761 -0.5170  0.2900 -1.3936
 7898TIP3   OH247888   3.421   2.696   6.999 -0.0555 -0.1004 -0.0559
 7898TIP3    H147889   3.379   2.734   6.922 -1.6623 -1.7090 -0.0267
 7898TIP3    H247890   3.394   2.752   7.072 -0.6541 -0.0612 -0.3044
 7899TIP3   OH247891   6.031   1.511   6.994 -0.4091  0.2986  0.2424
 7899TIP3    H147892   6.046   1.592   7.043  1.1707 -1.1460  2.3549
 7899TIP3    H247893   6.099   1.510   6.927 -1.0754  1.1595 -0.4712
 7900TIP3   OH247894   3.923   3.255   8.179 -0.3129  0.3265 -0.2014
 7900TIP3    H147895   3.900   3.167   8.150  0.6071  0.6459 -2.0707
 7900TIP3    H247896   4.001   3.243   8.233  0.9300  0.0851 -1.9458
 7901TIP3   OH247897   6.264   5.787   5.672 -0.4749  0.6871 -0.4485
 7901TIP3    H147898   6.308   5.761   5.753  0.3379 -0.7785 -1.3317
 7901TIP3    H247899   6.178   5.818   5.701 -0.7117 -1.0510  0.9149
 7902TIP3   OH247900   1.053   0.235   8.313 -0.3929  0.3347 -0.0957
 7902TIP3    H147901   1.054   0.273   8.225 -2.1563  0.0014 -0.3004
 7902TIP3    H247902   1.112   0.160   8.307 -2.3056 -1.1742 -1.7742
 7903TIP3   OH247903   6.649   3.936   7.194  0.4624 -0.2007  0.3302
 7903TIP3    H147904   6.715   4.005   7.189  1.4524 -1.0299  1.4662
 7903TIP3    H247905   6.598   3.957   7.271 -0.6612  0.4551 -0.5638
 7904TIP3   OH247906   5.126   2.659   7.993 -0.4959  0.0565 -0.3874
 7904TIP3    H147907   5.116   2.583   8.050  1.4325 -0.7677 -1.0461
 7904TIP3    H247908   5.058   2.649   7.927 -0.1372 -1.2538 -0.5911
 7905TIP3   OH247909   5.511   4.999   5.301  0.4814 -0.5868 -0.1632
 7905TIP3    H147910   5.455   4.922   5.312  0.0968 -0.3492 -0.4168
 7905TIP3    H247911   5.477   5.063   5.364  1.1801 -0.8306  0.4687
 7906TIP3   OH247912   0.492   1.214   8.158 -0.6438 -0.6269  0.4435
 7906TIP3    H147913   0.419   1.167   8.116  0.8642 -0.9460 -2.0027
 7906TIP3    H247914   0.570   1.166   8.132  0.7212  1.5371  0.3008
 7907TIP3   OH247915   1.210   5.141  16.214  0.5739  0.1110 -0.3994
 7907TIP3    H147916   1.294   5.126  16.257  0.7553  0.6018 -0.5827
 7907TIP3    H247917   1.153   5.073  16.251  0.2479  1.5399  1.9070
 7908TIP3   OH247918   6.330   0.532   5.728  0.0880 -0.1101  0.2068
 7908TIP3    H147919   6.326   0.623   5.758 -0.3649  0.0228 -0.2547
 7908TIP3    H247920   6.374   0.486   5.799 -1.6847  0.0527  1.4938
 7909TIP3   OH247921   6.701   4.613   8.298 -0.1706  0.0786  0.4372
 7909TIP3    H147922   6.720   4.520   8.289 -2.1354 -0.3012 -0.4166
 7909TIP3    H247923   6.774   4.648   8.348  1.1970 -1.6956 -0.2247
 7910TIP3   OH247924   0.887   3.619   6.909 -0.5720 -0.1536 -0.3539
 7910TIP3    H147925   0.876   3.710   6.937  1.4845  0.1580 -0.4071
 7910TIP3    H247926   0.816   3.605   6.846 -0.7696  1.4977 -0.5443
 7911TIP3   OH247927   0.206   1.999   6.559  0.7243 -0.2108 -0.7994
 7911TIP3    H147928   0.170   2.075   6.512 -1.4384 -0.7507 -0.1357
 7911TIP3    H247929   0.182   1.924   6.504  0.2667 -0.6391 -0.0216
 7912TIP3   OH247930   3.599   3.167   6.595  0.0842 -0.3448  0.2907
 7912TIP3    H147931   3.597   3.075   6.570  0.0324 -0.0101 -0.9946
 7912TIP3    H247932   3.615   3.214   6.514 -0.0138  0.7943  0.9073
 7913TIP3   OH247933   3.241   5.475   6.250 -0.1849 -0.1040 -0.1616
 7913TIP3    H147934   3.287   5.559   6.258  0.6747 -0.5731  0.0344
 7913TIP3    H247935   3.190   5.483   6.170  0.6700  0.2549 -0.6941
 7914TIP3   OH247936   2.262   5.213   7.945 -0.3575  0.2102  0.4314
 7914TIP3    H147937   2.307   5.251   7.870 -2.1946  1.3991 -0.1518
 7914TIP3    H247938   2.243   5.123   7.919 -0.4082  0.4185 -0.2725
 7915TIP3   OH247939   1.427   3.646   7.231  0.1368 -0.2168 -0.0118
 7915TIP3    H147940   1.334   3.659   7.213  0.2069 -0.1617 -0.3449
 7915TIP3    H247941   1.458   3.593   7.158  0.9741  2.1268 -1.4854
 7916TIP3   OH247942   3.339   5.012   7.175  0.0435  0.0607  0.1597
 7916TIP3    H147943   3.263   5.014   7.232 -0.0916  2.3999 -0.0220
 7916TIP3    H247944   3.410   5.049   7.228  0.9556 -1.5168  0.1233
 7917TIP3   OH247945   3.504   4.173   5.221 -0.3781  0.2236  0.2906
 7917TIP3    H147946   3.560   4.244   5.189  1.0579 -1.4989 -1.2701
 7917TIP3    H247947   3.553   4.135   5.294 -0.7295  0.3238  0.5752
 7918TIP3   OH247948   4.682   6.359   8.526  0.0239  0.0971  0.2288
 7918TIP3    H147949   4.752   6.422   8.544 -0.5486  0.4703  1.2526
 7918TIP3    H247950   4.675   6.358   8.430  1.2152  0.2767  0.1236
 7919TIP3   OH247951   5.922   1.644   6.688 -0.2477 -0.3808  0.1683
 7919TIP3    H147952   5.962   1.690   6.615 -0.2927  1.1914  1.0945
 7919TIP3    H247953   5.829   1.641   6.668 -0.4108  0.9873  0.6121
 7920TIP3   OH247954   2.141   0.145   8.930 -0.0387 -0.4176 -0.1647
 7920TIP3    H147955   2.196   0.158   9.007  0.3536 -1.3098 -0.2823
 7920TIP3    H247956   2.137   0.232   8.889  2.1963 -0.5124 -0.7324
 7921TIP3   OH247957   2.394   4.979   6.068  0.0703  0.0476  0.4843
 7921TIP3    H147958   2.435   4.907   6.117 -1.0296 -0.3187  0.8873
 7921TIP3    H247959   2.393   4.948   5.978 -0.4031 -0.4673  0.6544
 7922TIP3   OH247960   2.083   5.520   6.286 -0.3751 -0.8526  0.2451
 7922TIP3    H147961   2.014   5.497   6.349 -1.7941 -1.3272 -1.3896
 7922TIP3    H247962   2.035   5.543   6.206  1.3725 -1.1195 -0.9257
 7923TIP3   OH247963   3.011   6.693   6.865  0.1920 -0.3252  0.0541
 7923TIP3    H147964   2.960   6.649   6.797 -0.0684  0.6781 -0.4236
 7923TIP3    H247965   3.095   6.647   6.866 -0.4225 -1.4892  0.2976
 7924TIP3   OH247966   3.459   6.599   5.710  0.3538  0.0046 -0.1890
 7924TIP3    H147967   3.377   6.607   5.758  0.8950  0.2687  0.7300
 7924TIP3    H247968   3.474   6.686   5.672 -0.2539 -0.3041 -1.1440
 7925TIP3   OH247969   4.546   0.931   7.529 -0.7684 -0.7015 -0.3556
 7925TIP3    H147970   4.526   0.865   7.595 -0.6468 -1.3166 -0.9207
 7925TIP3    H247971   4.506   0.897   7.449 -2.1001  0.6864 -0.3162
 7926TIP3   OH247972   4.864   3.681   7.380 -0.3033  0.3513 -0.0568
 7926TIP3    H147973   4.912   3.683   7.463 -0.9923 -1.1750  0.4038
 7926TIP3    H247974   4.928   3.710   7.315  0.3367  1.2799  0.9520
 7927TIP3   OH247975   1.999   5.736   6.541 -0.4515  0.4107 -0.1627
 7927TIP3    H147976   1.946   5.784   6.478  0.1713  2.0708  0.5185
 7927TIP3    H247977   2.076   5.710   6.492 -0.2392  1.1861 -0.2623
 7928TIP3   OH247978   0.617   3.213   6.971 -0.6475 -0.5183  0.4125
 7928TIP3    H147979   0.557   3.218   7.045 -0.0633 -2.2987  1.0515
 7928TIP3    H247980   0.577   3.150   6.911 -0.7463  0.3499 -0.4587
 7929TIP3   OH247981   2.237   0.384   6.505  0.2837  0.2278 -0.3051
 7929TIP3    H147982   2.209   0.293   6.495  1.9556 -1.1342  4.5467
 7929TIP3    H247983   2.331   0.378   6.521  0.1380  2.5033  2.0469
 7930TIP3   OH247984   6.516   2.937   5.877  0.3832 -0.6039 -0.0838
 7930TIP3    H147985   6.604   2.924   5.911  0.2887 -1.8818 -0.2792
 7930TIP3    H247986   6.460   2.942   5.954  0.7176  1.3493  0.1009
 7931TIP3   OH247987   5.388   0.987   8.362 -0.7467 -0.1018 -0.0660
 7931TIP3    H147988   5.407   1.011   8.453 -1.2283  1.2773 -0.2941
 7931TIP3    H247989   5.336   0.907   8.368  1.1367 -1.3298  0.7436
 7932TIP3   OH247990   2.288   5.312   9.193  0.3787 -0.9987 -0.2062
 7932TIP3    H147991   2.360   5.371   9.170  1.2985 -1.0692  2.1434
 7932TIP3    H247992   2.215   5.370   9.215  0.8883 -0.7451  0.8871
 7933TIP3   OH247993   4.112   0.335   6.628 -0.6456 -0.0298 -0.2758
 7933TIP3    H147994   4.162   0.261   6.663 -0.2313  0.3086 -0.1330
 7933TIP3    H247995   4.175   0.382   6.573 -1.0835 -0.1338 -0.8715
 7934TIP3   OH247996   1.404   1.908   5.732  0.4592 -0.2936 -0.1609
 7934TIP3    H147997   1.477   1.863   5.690  1.1603 -0.3339  1.0649
 7934TIP3    H247998   1.444   1.981   5.779 -0.4651  0.5615 -0.6480
 7935TIP3   OH247999   0.673   4.318   9.403  0.1359 -0.3073  0.1445
 7935TIP3    H148000   0.653   4.234   9.443  1.4843 -0.4058  0.6480
 7935TIP3    H248001   0.743   4.300   9.340  0.4029  0.4182  0.2165
 7936TIP3   OH248002   0.617   5.659   6.245  0.1280 -0.1512  0.0244
 7936TIP3    H148003   0.692   5.707   6.279 -1.1249  1.1371  1.1364
 7936TIP3    H248004   0.614   5.680   6.152  0.7365  0.3390  0.1090
 7937TIP3   OH248005   4.956   4.203   8.445 -0.1960  0.4337 -0.0017
 7937TIP3    H148006   4.899   4.280   8.457  0.3508  0.7584  0.6134
 7937TIP3    H248007   5.044   4.237   8.458 -0.0248 -0.5926  2.0357
 7938TIP3   OH248008   2.881   6.506   6.689  0.1089  0.2208  0.5845
 7938TIP3    H148009   2.799   6.545   6.660 -0.4251 -1.3119 -0.0526
 7938TIP3    H248010   2.922   6.473   6.608 -0.3185 -2.0933  1.2416
 7939TIP3   OH248011   4.704   5.485   6.856 -0.7993  0.3132 -0.4944
 7939TIP3    H148012   4.643   5.412   6.848  0.1338 -0.7317  1.3263
 7939TIP3    H248013   4.653   5.554   6.898 -0.8339 -0.4755  0.8133
 7940TIP3   OH248014   1.782   1.978   5.884  0.4398 -0.0552  0.5215
 7940TIP3    H148015   1.740   1.895   5.861 -0.6203  0.8362 -0.9100
 7940TIP3    H248016   1.875   1.955   5.895  0.2711 -1.3191 -0.4839
 7941TIP3   OH248017   5.069   2.428   8.132  0.7698  0.0039  0.0096
 7941TIP3    H148018   5.127   2.380   8.191  0.8743  0.7146  0.4974
 7941TIP3    H248019   5.010   2.476   8.190 -3.5203 -4.2319 -0.2758
 7942TIP3   OH248020   4.997   6.488   7.506 -0.2463 -0.0315 -0.8177
 7942TIP3    H148021   5.003   6.487   7.411  1.4560 -2.9167 -0.7898
 7942TIP3    H248022   4.926   6.426   7.526 -0.3198  0.2410 -0.2060
 7943TIP3   OH248023   0.466   0.616   6.744 -0.4025  0.0765 -0.1383
 7943TIP3    H148024   0.506   0.537   6.708  1.9879  1.1327 -0.0390
 7943TIP3    H248025   0.433   0.590   6.830  1.9053 -0.5069  0.6524
 7944TIP3   OH248026   1.250   2.039   6.486  0.8145  0.0440 -0.5979
 7944TIP3    H148027   1.210   2.021   6.571  0.5293 -0.7894 -0.8998
 7944TIP3    H248028   1.178   2.075   6.434  1.0193  0.6696 -0.4525
 7945TIP3   OH248029   2.861   1.861   6.170  0.4895 -0.0050 -0.0962
 7945TIP3    H148030   2.927   1.800   6.204  0.4776  0.6910  1.2709
 7945TIP3    H248031   2.866   1.936   6.229 -2.2095 -0.3507  0.7172
 7946TIP3   OH248032   1.340   5.660   7.620 -0.0295  0.4151  0.5845
 7946TIP3    H148033   1.264   5.602   7.625  0.3082  0.0055  1.0606
 7946TIP3    H248034   1.414   5.601   7.604  0.2810  0.7379  0.8137
 7947TIP3   OH248035   1.977   3.108   6.297 -0.7608 -0.1440  0.0012
 7947TIP3    H148036   1.892   3.085   6.260 -1.8652 -2.0708  3.2844
 7947TIP3    H248037   2.038   3.046   6.258 -1.1930  0.0432 -1.0024
 7948TIP3   OH248038   3.617   5.500   5.681 -0.1734 -0.2604 -0.1645
 7948TIP3    H148039   3.527   5.513   5.651 -0.3150 -1.5494 -0.3453
 7948TIP3    H248040   3.669   5.560   5.627 -0.6667 -1.0888 -1.6273
 7949TIP3   OH248041   0.441   0.308   5.882  0.0085  0.2530 -0.0350
 7949TIP3    H148042   0.403   0.220   5.880 -0.1453  0.3243 -0.7736
 7949TIP3    H248043   0.366   0.367   5.880  0.1182  0.3965  0.0712
 7950TIP3   OH248044   0.234   5.501   6.875  0.5338 -0.6307 -0.2569
 7950TIP3    H148045   0.192   5.560   6.813  0.5218  0.9110  1.1353
 7950TIP3    H248046   0.328   5.518   6.864  0.4912  0.6508  1.0042
 7951TIP3   OH248047   2.496   0.853   8.018 -0.1833  1.0697 -0.1394
 7951TIP3    H148048   2.563   0.828   7.954 -1.2776  0.5677 -1.1257
 7951TIP3    H248049   2.538   0.921   8.071  1.3907  0.1613 -0.1634
 7952TIP3   OH248050   3.820   1.657   6.137  0.4291  0.0597  0.5123
 7952TIP3    H148051   3.858   1.572   6.117 -0.3507 -0.0715 -0.5115
 7952TIP3    H248052   3.725   1.645   6.127  0.2172  0.7670  1.4799
 7953TIP3   OH248053   4.366   4.029   5.024 -0.2863  0.1536 -0.2339
 7953TIP3    H148054   4.274   4.004   5.028  0.4365 -3.0046 -0.3037
 7953TIP3    H248055   4.380   4.081   5.103 -2.3600  1.8719 -0.8969
 7954TIP3   OH248056   3.036   4.753   7.308 -0.0373 -0.1742 -0.0903
 7954TIP3    H148057   3.078   4.723   7.227  0.9883  1.0355 -0.0326
 7954TIP3    H248058   3.047   4.848   7.307  0.0297 -0.1439  1.4890
 7955TIP3   OH248059   1.641   1.908   8.609 -0.1225 -0.4190  0.5772
 7955TIP3    H148060   1.693   1.871   8.538  0.2067  0.6169  0.2607
 7955TIP3    H248061   1.570   1.955   8.565 -1.0764 -1.4135  0.9961
 7956TIP3   OH248062   2.591   1.700   8.639  0.5786  0.4560  0.0747
 7956TIP3    H148063   2.556   1.615   8.613  1.7699 -0.7689  2.2405
 7956TIP3    H248064   2.537   1.764   8.592 -0.7984 -1.4699 -1.0573
 7957TIP3   OH248065   0.962   4.823   8.164 -0.3689  0.0319  0.1817
 7957TIP3    H148066   0.880   4.824   8.114 -0.8726 -0.5127  0.9767
 7957TIP3    H248067   1.012   4.897   8.130 -0.9896  0.0834 -0.6473
 7958TIP3   OH248068   1.042   1.635   7.973  0.0866 -0.0552  0.0584
 7958TIP3    H148069   1.123   1.686   7.984 -0.7322  1.3630 -0.1904
 7958TIP3    H248070   1.036   1.581   8.052  0.7065  0.6505  0.6016
 7959TIP3   OH248071   2.691   6.388   7.461 -0.3270 -0.2604 -0.4399
 7959TIP3    H148072   2.748   6.384   7.538  0.1602  1.7539 -0.6551
 7959TIP3    H248073   2.751   6.382   7.386 -0.5178  0.5275 -0.6616
 7960TIP3   OH248074   5.773   5.867   7.030  0.5460  0.1803  0.3678
 7960TIP3    H148075   5.768   5.775   7.057  0.5036  0.2219  0.5052
 7960TIP3    H248076   5.866   5.887   7.028  0.5224  0.5021  1.6067
 7961TIP3   OH248077   1.885   1.028   6.060  0.6372 -0.2723  0.3657
 7961TIP3    H148078   1.941   1.067   5.993 -1.0359  0.5046 -0.6481
 7961TIP3    H248079   1.809   1.085   6.064 -0.0654 -1.2442  1.7480
 7962TIP3   OH248080   0.421   3.475   7.884 -0.1207  0.7901 -0.2683
 7962TIP3    H148081   0.478   3.418   7.832 -0.6803  0.3510 -0.4052
 7962TIP3    H248082   0.462   3.477   7.970  0.4757  1.0305 -0.5454
 7963TIP3   OH248083   5.151   4.293   5.426  0.1243 -0.4041 -0.3817
 7963TIP3    H148084   5.120   4.294   5.517  0.4140  1.8816 -0.2716
 7963TIP3    H248085   5.238   4.333   5.429 -0.0789  0.2011 -1.7271
 7964TIP3   OH248086   1.136   3.033   9.050 -0.3677 -0.1202  0.7387
 7964TIP3    H148087   1.060   2.978   9.034 -0.9959  1.4334 -2.5389
 7964TIP3    H248088   1.100   3.122   9.057  1.0734  0.6493 -0.8786
 7965TIP3   OH248089   4.428   6.542   7.088 -0.3249 -0.1089  0.3117
 7965TIP3    H148090   4.333   6.533   7.100 -0.4468  0.6155 -0.0687
 7965TIP3    H248091   4.455   6.458   7.050 -1.0181  0.1159 -0.7315
 7966TIP3   OH248092   5.801   1.756   7.311  0.5526 -0.5976  0.7037
 7966TIP3    H148093   5.806   1.669   7.350 -0.3215 -1.1181 -0.2987
 7966TIP3    H248094   5.710   1.765   7.283  1.1255 -0.2598 -1.2145
 7967TIP3   OH248095   2.007   2.814   5.992 -0.2383 -0.0192  0.0608
 7967TIP3    H148096   2.066   2.854   5.929  2.2721  0.1868  2.3298
 7967TIP3    H248097   2.023   2.720   5.984 -0.7341 -0.0784 -0.3104
 7968TIP3   OH248098   6.444   2.594   7.491  0.2635  0.0301  0.1612
 7968TIP3    H148099   6.495   2.674   7.504 -0.3857  0.1181  2.7690
 7968TIP3    H248100   6.354   2.620   7.508 -0.0027 -1.1421  0.6782
 7969TIP3   OH248101   3.274   4.230   7.199  0.0832  0.2414 -0.4957
 7969TIP3    H148102   3.227   4.274   7.270 -0.0355  0.2443 -0.5750
 7969TIP3    H248103   3.349   4.288   7.181  1.8488 -1.2217  1.6422
 7970TIP3   OH248104   3.558   3.413   6.256 -0.3649 -0.2358  0.0258
 7970TIP3    H148105   3.576   3.503   6.282 -1.4552  0.3080 -1.0250
 7970TIP3    H248106   3.580   3.410   6.163  2.1180 -1.7721  0.5518
 7971TIP3   OH248107   2.523   5.044   7.805 -0.3592 -0.2398 -0.3252
 7971TIP3    H148108   2.581   5.006   7.740 -0.1430  0.0690 -0.3129
 7971TIP3    H248109   2.522   5.137   7.786  1.8769  0.3032  1.7724
 7972TIP3   OH248110   4.678   1.418   7.395 -0.0837 -0.7827  0.2648
 7972TIP3    H148111   4.590   1.392   7.367 -0.1778 -1.6971  1.3282
 7972TIP3    H248112   4.727   1.427   7.313 -1.7595  2.2227 -0.5506
 7973TIP3   OH248113   2.239   5.249   7.315 -0.4139  0.4428  0.4997
 7973TIP3    H148114   2.177   5.218   7.381  0.1462 -0.5468  0.5833
 7973TIP3    H248115   2.308   5.292   7.365  0.6625 -1.4276  0.7016
 7974TIP3   OH248116   3.485   3.267   5.706 -0.1325 -0.0685 -0.1528
 7974TIP3    H148117   3.427   3.318   5.650 -0.6657 -1.4460 -0.8907
 7974TIP3    H248118   3.469   3.302   5.794  0.6079  2.0063 -0.7914
 7975TIP3   OH248119   4.876   2.573   8.259 -0.4611  0.6842 -0.2631
 7975TIP3    H148120   4.837   2.551   8.344  0.8931 -0.6105  0.0674
 7975TIP3    H248121   4.923   2.655   8.274 -0.5525  0.6653  0.1410
 7976TIP3   OH248122   1.850   3.266   8.369  0.2243  0.2212 -0.0258
 7976TIP3    H148123   1.893   3.212   8.303  0.8191 -1.1461  1.3917
 7976TIP3    H248124   1.920   3.319   8.407 -0.5482  3.1075 -2.2693
 7977TIP3   OH248125   1.062   5.318   7.328 -0.6045 -0.0918 -0.4079
 7977TIP3    H148126   1.122   5.347   7.259 -0.5331  1.0636  0.1208
 7977TIP3    H248127   1.117   5.265   7.386 -0.5203 -0.5366 -0.8871
 7978TIP3   OH248128   4.443   3.086   6.663  0.3164  0.4192 -0.5151
 7978TIP3    H148129   4.422   3.039   6.582  0.0472  0.8307 -0.6891
 7978TIP3    H248130   4.539   3.096   6.660  0.1322  2.3181 -1.8678
 7979TIP3   OH248131   5.063   1.530   7.010  0.1620 -0.3780  0.0704
 7979TIP3    H148132   4.994   1.571   6.958  0.4735 -0.5914 -0.5278
 7979TIP3    H248133   5.144   1.558   6.968  0.4541  0.0331  0.8881
 7980TIP3   OH248134   0.104   4.984   8.619  0.5357 -0.3720 -0.2335
 7980TIP3    H148135   0.009   4.974   8.624  0.3497  0.7396 -1.1955
 7980TIP3    H248136   0.128   5.027   8.701 -0.1856  1.8964 -1.1300
 7981TIP3   OH248137   5.597   5.488   8.343  0.3393 -0.2068  0.0834
 7981TIP3    H148138   5.540   5.475   8.418  0.8004 -1.8051  0.2083
 7981TIP3    H248139   5.605   5.583   8.334 -0.2794  0.0167  1.6142
 7982TIP3   OH248140   5.175   0.659   7.504  0.3200 -0.3847  0.2879
 7982TIP3    H148141   5.132   0.718   7.565  1.5298 -0.8050  1.5976
 7982TIP3    H248142   5.160   0.572   7.540  2.7650 -0.5135  1.2095
 7983TIP3   OH248143   1.644   1.985   7.969  0.7304  0.7236 -0.5412
 7983TIP3    H148144   1.655   1.892   7.951  0.0093  0.4522  0.3669
 7983TIP3    H248145   1.627   2.024   7.883  2.2182  0.2118 -1.0912
 7984TIP3   OH248146   0.224   3.170   5.652 -0.6788  0.5315  0.8249
 7984TIP3    H148147   0.248   3.082   5.626 -1.6755  0.6301 -0.5057
 7984TIP3    H248148   0.152   3.158   5.714 -0.2044  0.4036  1.3673
 7985TIP3   OH248149   2.884   1.717   8.606 -0.1293 -0.2464  0.1138
 7985TIP3    H148150   2.790   1.718   8.591 -0.7165  2.3880  2.8153
 7985TIP3    H248151   2.904   1.626   8.627 -2.3650 -0.6688  0.7073
 7986TIP3   OH248152   3.279   0.283   6.751 -0.2077  0.1074 -0.0349
 7986TIP3    H148153   3.307   0.310   6.839  1.2306 -1.8337  0.1587
 7986TIP3    H248154   3.351   0.230   6.718 -0.4645  1.2253 -2.6556
 7987TIP3   OH248155   1.685   1.934   8.225  0.4650 -0.7384 -0.7525
 7987TIP3    H148156   1.725   1.848   8.239 -1.3216 -1.2736  1.7472
 7987TIP3    H248157   1.648   1.929   8.137  0.6360 -2.4502 -0.7600
 7988TIP3   OH248158   3.421   0.055   6.978 -0.3143  0.6000  0.2740
 7988TIP3    H148159   3.483   0.074   7.049 -0.8059 -1.6102  1.3909
 7988TIP3    H248160   3.336   0.053   7.022 -0.6462 -0.6391 -0.3864
 7989TIP3   OH248161   1.891   1.613   5.767  0.1856 -0.4201 -0.0194
 7989TIP3    H148162   1.950   1.688   5.772 -0.0453 -0.1398 -1.2599
 7989TIP3    H248163   1.868   1.595   5.859  0.4970  0.8136  0.3172
 7990TIP3   OH248164   6.691   2.736   6.436  0.7529  0.1591  0.9126
 7990TIP3    H148165   6.620   2.682   6.470  2.3552 -1.4616  1.8362
 7990TIP3    H248166   6.680   2.820   6.480  0.4448 -0.6394  2.4298
 7991TIP3   OH248167   4.947   1.545   6.658  0.0450 -0.1419 -0.0790
 7991TIP3    H148168   4.900   1.550   6.741  0.9760  0.8154  0.4312
 7991TIP3    H248169   5.001   1.624   6.657  0.6188 -0.5222 -1.2484
 7992TIP3   OH248170   5.205   0.897   6.269  0.2185 -0.0611  0.3717
 7992TIP3    H148171   5.237   0.966   6.327 -0.4185 -0.0563  0.7263
 7992TIP3    H248172   5.189   0.823   6.327  2.7014 -1.1840 -0.2390
 7993TIP3   OH248173   1.434   6.227   6.610 -0.5864  0.1304  0.1929
 7993TIP3    H148174   1.398   6.199   6.526  1.4008 -1.0468 -0.3263
 7993TIP3    H248175   1.491   6.301   6.590  1.1814 -1.1650  0.1836
 7994TIP3   OH248176   3.051   0.034   7.422  0.6933 -0.1378 -0.1464
 7994TIP3    H148177   3.058   0.124   7.454 -0.3833  0.2472 -0.9305
 7994TIP3    H248178   3.133   0.019   7.375  0.2183  1.0322 -1.4267
 7995TIP3   OH248179   5.044   0.918   7.640  0.9177  0.1770 -1.3725
 7995TIP3    H148180   4.980   0.990   7.637 -0.2173 -0.8163 -2.0710
 7995TIP3    H248181   5.065   0.909   7.733  1.2352  1.5202 -1.2866
 7996TIP3   OH248182   0.432   1.898   6.137  0.3760 -0.1907  0.4759
 7996TIP3    H148183   0.362   1.880   6.074  0.5667 -0.6323  0.3915
 7996TIP3    H248184   0.447   1.815   6.182  0.7547 -0.0640  0.5899
 7997TIP3   OH248185   4.869   5.396   7.569 -0.0697 -0.6302 -0.1840
 7997TIP3    H148186   4.921   5.455   7.514  0.4458 -0.3040  0.6331
 7997TIP3    H248187   4.828   5.335   7.507  0.9589 -0.6362 -0.8772
 7998TIP3   OH248188   5.009   0.683   6.959 -0.3190  0.8129 -0.3703
 7998TIP3    H148189   4.985   0.711   7.047  1.1135  2.4059 -0.4217
 7998TIP3    H248190   5.101   0.710   6.950 -0.2982  0.2699 -2.1873
 7999TIP3   OH248191   1.365   0.931   6.614  0.6297  0.2902 -0.3339
 7999TIP3    H148192   1.293   0.959   6.558  0.1439  0.2754  0.2665
 7999TIP3    H248193   1.388   1.009   6.664 -1.0300 -0.4183  1.6721
 8000TIP3   OH248194   2.865   3.168   6.760  0.2210  0.2229  0.0265
 8000TIP3    H148195   2.773   3.155   6.737  0.2857  0.6705 -0.5320
 8000TIP3    H248196   2.865   3.179   6.855 -0.4510  1.3033 -0.0758
 8001TIP3   OH248197   4.510   1.081   6.187  0.1925  0.1260 -0.7994
 8001TIP3    H148198   4.464   1.165   6.188 -1.9312 -0.9778  0.3214
 8001TIP3    H248199   4.450   1.020   6.231  3.3866 -1.1072  2.3058
 8002TIP3   OH248200   0.024   0.828   7.198  0.0585  0.5590  0.4566
 8002TIP3    H148201  -0.053   0.835   7.141  0.8981 -1.7994 -1.1297
 8002TIP3    H248202  -0.008   0.781   7.275  0.2139 -2.4044 -1.1381
 8003TIP3   OH248203   4.884   1.916   6.964  0.3940 -0.4390  0.1190
 8003TIP3    H148204   4.883   1.972   6.886 -0.1695 -0.5978  0.0092
 8003TIP3    H248205   4.977   1.908   6.986  0.4779  0.6703  0.2361
 8004TIP3   OH248206   2.804   3.755   7.573  0.0288 -0.0788 -0.1540
 8004TIP3    H148207   2.779   3.676   7.620  0.6604 -0.4010 -0.3390
 8004TIP3    H248208   2.726   3.780   7.523 -1.0374  0.9261  1.9038
 8005TIP3   OH248209   6.693   3.770   8.945  0.3693  0.5556  0.0380
 8005TIP3    H148210   6.665   3.823   8.870  3.2877 -0.0151 -1.6023
 8005TIP3    H248211   6.673   3.680   8.920  1.3573  0.3632 -0.1212
 8006TIP3   OH248212   5.007   2.328   6.410  0.5975 -0.3923  0.4400
 8006TIP3    H148213   4.979   2.294   6.495  1.7896  1.1825  1.5077
 8006TIP3    H248214   5.102   2.312   6.409  0.6201 -0.2198 -0.5129
 8007TIP3   OH248215   4.168   3.253   8.312 -0.1907 -0.4015  0.2243
 8007TIP3    H148216   4.240   3.308   8.280 -2.1828  0.6143 -2.9265
 8007TIP3    H248217   4.128   3.304   8.382  0.6654  0.0981  0.3657
 8008TIP3   OH248218   2.069   4.244   7.908  0.1780 -0.2337 -0.8519
 8008TIP3    H148219   2.067   4.330   7.866  0.0122 -0.7333 -1.8701
 8008TIP3    H248220   2.001   4.249   7.975 -0.5968  0.0549 -1.6485
 8009TIP3   OH248221   2.982   0.618   7.135  0.0174 -0.3226  0.0479
 8009TIP3    H148222   3.039   0.622   7.058 -1.7862  0.8499 -1.3237
 8009TIP3    H248223   2.938   0.534   7.128 -2.0585  0.7878 -1.7872
 8010TIP3   OH248224   5.162   6.375   5.970 -0.1348  0.1242 -0.1988
 8010TIP3    H148225   5.143   6.439   5.901 -1.4874 -1.0144 -0.9487
 8010TIP3    H248226   5.250   6.396   5.999 -0.5750  2.3928 -0.3130
 8011TIP3   OH248227   2.880   1.521   5.456  0.2009 -0.6189 -0.4478
 8011TIP3    H148228   2.792   1.545   5.485  0.7828  0.3147  0.6285
 8011TIP3    H248229   2.871   1.431   5.424 -1.2356 -0.3645 -0.8381
 8012TIP3   OH248230   0.764   2.729   9.208 -0.6773 -0.2103 -1.1228
 8012TIP3    H148231   0.698   2.699   9.146 -1.6111 -0.4041 -0.0640
 8012TIP3    H248232   0.716   2.783   9.271  0.0167 -0.9392  0.0710
 8013TIP3   OH248233   2.088   5.002   6.057  0.2284 -0.1801 -0.7793
 8013TIP3    H148234   2.120   5.079   6.009 -2.4987  0.7404 -1.2929
 8013TIP3    H248235   2.167   4.949   6.071  2.3480  2.8528 -0.0199
 8014TIP3   OH248236   4.948   2.323   6.753  0.0589  0.0597 -0.3421
 8014TIP3    H148237   4.987   2.239   6.779 -0.8995  0.3258  2.1527
 8014TIP3    H248238   5.012   2.389   6.779 -0.3911  0.2580  0.2867
 8015TIP3   OH248239   6.218   6.632   5.705 -1.0869 -0.0335 -0.1916
 8015TIP3    H148240   6.142   6.612   5.760 -1.6154 -0.2934 -1.0055
 8015TIP3    H248241   6.228   6.727   5.711 -1.9767  0.0964 -0.7232
 8016TIP3   OH248242   2.709   3.577   5.761  0.0605  0.5243 -0.4815
 8016TIP3    H148243   2.707   3.559   5.667 -1.9808  1.8218 -0.7420
 8016TIP3    H248244   2.759   3.658   5.768  0.6480  0.1572 -0.3812
 8017TIP3   OH248245   1.477   2.204   6.483 -0.1896  0.2163 -0.1752
 8017TIP3    H148246   1.513   2.212   6.395 -0.7777  0.7403 -0.3754
 8017TIP3    H248247   1.421   2.127   6.479  1.6235 -1.2185  0.4078
 8018TIP3   OH248248   2.650   1.575   6.811  0.1887 -0.3233  0.1549
 8018TIP3    H148249   2.586   1.529   6.756  1.0248 -0.7919 -0.4537
 8018TIP3    H248250   2.734   1.536   6.787  0.6108 -0.3556  1.5915
 8019TIP3   OH248251   2.924   0.333   6.483  0.0289 -0.9129 -0.3599
 8019TIP3    H148252   2.922   0.360   6.391  0.5692 -2.2342 -0.7772
 8019TIP3    H248253   3.011   0.359   6.513 -0.2930 -0.1103 -0.0856
 8020TIP3   OH248254   6.240   5.351   6.398 -0.0865  0.1241 -0.1673
 8020TIP3    H148255   6.313   5.289   6.403 -0.8019 -0.6680  0.9905
 8020TIP3    H248256   6.162   5.297   6.411 -0.8215  1.0882 -0.4682
 8021TIP3   OH248257   1.066   0.117   7.381 -0.1818  0.0592 -0.0830
 8021TIP3    H148258   1.099   0.034   7.415  0.7279  0.1554 -0.6847
 8021TIP3    H248259   0.979   0.126   7.418 -0.1917 -1.0488  0.1834
 8022TIP3   OH248260   3.505   0.643   8.475 -0.4718  0.3689  0.4152
 8022TIP3    H148261   3.496   0.608   8.386  0.6990 -0.5898  0.6408
 8022TIP3    H248262   3.571   0.586   8.516 -0.9125  0.8660  1.8615
 8023TIP3   OH248263   0.523   4.826   6.019  0.5225 -0.2158 -0.1248
 8023TIP3    H148264   0.571   4.789   5.945  0.8625  0.4402 -0.2395
 8023TIP3    H248265   0.445   4.866   5.980 -0.5664 -1.9618  0.1416
 8024TIP3   OH248266   3.439   4.889   7.529  0.5135 -0.1969  0.0685
 8024TIP3    H148267   3.403   4.817   7.581 -0.8421 -0.8602 -1.6582
 8024TIP3    H248268   3.429   4.859   7.438  1.6011  1.4276 -0.6291
 8025TIP3   OH248269   3.993   1.790   5.685 -0.3789  0.1138  0.7047
 8025TIP3    H148270   3.934   1.865   5.685  0.2358  0.6084  0.2216
 8025TIP3    H248271   3.935   1.714   5.688 -1.2586  0.4465 -2.8512
 8026TIP3   OH248272   1.842   5.849   5.648  0.4332 -0.4540 -0.7696
 8026TIP3    H148273   1.858   5.804   5.565 -1.3659 -0.9577 -0.8777
 8026TIP3    H248274   1.865   5.940   5.631  2.8705 -1.0232 -0.9295
 8027TIP3   OH248275   3.472   3.175   7.874  0.3660 -0.2454  0.0505
 8027TIP3    H148276   3.513   3.132   7.799  1.3634 -3.8305  2.4146
 8027TIP3    H248277   3.395   3.121   7.893  0.3954  0.3053  1.8608
 8028TIP3   OH248278   2.001   3.114   8.161  0.1269 -0.2478  0.3938
 8028TIP3    H148279   1.952   3.036   8.136  0.3508 -0.0189 -0.8164
 8028TIP3    H248280   2.071   3.081   8.218 -0.4853 -0.7706  0.8508
 8029TIP3   OH248281   5.678   1.399   7.172  0.1533  0.6847 -0.0614
 8029TIP3    H148282   5.741   1.343   7.126 -0.3650  1.6513 -2.0709
 8029TIP3    H248283   5.724   1.427   7.251  1.2520 -0.7027 -0.1668
 8030TIP3   OH248284   1.153   3.153   6.938  0.2258 -0.2248  0.0825
 8030TIP3    H148285   1.197   3.238   6.929  0.0532 -0.2647 -1.3999
 8030TIP3    H248286   1.072   3.173   6.984  0.6845  0.2413  0.6995
 8031TIP3   OH248287   3.746   0.382   6.424  0.3953 -0.2823  0.4056
 8031TIP3    H148288   3.679   0.318   6.449  1.1832 -0.3946  2.4397
 8031TIP3    H248289   3.762   0.432   6.504  0.6423  1.7355 -0.8188
 8032TIP3   OH248290   2.815   2.927   6.001 -0.2970 -0.1314  0.1248
 8032TIP3    H148291   2.860   2.979   6.067  1.0010 -0.2068 -0.6581
 8032TIP3    H248292   2.755   2.872   6.051  1.7875 -1.3751  1.4657
 8033TIP3   OH248293   4.226   0.400   7.340 -0.1754  0.3801  0.1806
 8033TIP3    H148294   4.224   0.398   7.436 -0.6904  0.8764  0.1835
 8033TIP3    H248295   4.318   0.387   7.318 -0.0917 -0.0182  0.7354
 8034TIP3   OH248296   5.484   3.379   7.215  0.0805  0.3218  0.0569
 8034TIP3    H148297   5.561   3.378   7.272 -1.1442  0.5507  1.8009
 8034TIP3    H248298   5.473   3.288   7.188  1.9101  0.5368 -1.6455
 8035TIP3   OH248299   4.784   4.895   5.180  0.1607  0.0471 -0.2685
 8035TIP3    H148300   4.841   4.829   5.221  2.1348  0.7063 -1.8202
 8035TIP3    H248301   4.777   4.868   5.089 -2.7033 -0.4071 -0.0037
 8036TIP3   OH248302   1.997   5.212   8.016 -0.1415 -0.2452  0.2222
 8036TIP3    H148303   2.093   5.220   8.017 -0.2603  1.7546  1.7931
 8036TIP3    H248304   1.980   5.133   8.066  0.6682 -0.0727  0.7968
 8037TIP3   OH248305   1.551   0.199   5.784 -0.0082  0.2559  0.3829
 8037TIP3    H148306   1.628   0.218   5.838  0.1256  0.1881  0.2201
 8037TIP3    H248307   1.553   0.105   5.771  0.3637  0.3512 -0.3239
 8038TIP3   OH248308   5.282   0.323   6.825 -0.1248 -0.0653 -0.6778
 8038TIP3    H148309   5.280   0.385   6.898  2.4232  0.2554 -0.8001
 8038TIP3    H248310   5.221   0.360   6.761 -0.7937  0.7789  0.4211
 8039TIP3   OH248311   3.980   0.753   5.743  0.0225 -0.2723 -0.1945
 8039TIP3    H148312   4.071   0.766   5.714 -0.7149  0.8259 -2.1773
 8039TIP3    H248313   3.953   0.671   5.702 -0.7137  0.7946 -1.9464
 8040TIP3   OH248314   6.344   2.852   6.514 -0.3632  0.2722  0.2831
 8040TIP3    H148315   6.413   2.860   6.449  0.0787 -0.6895  0.6114
 8040TIP3    H248316   6.306   2.765   6.498 -1.0359  0.5031  0.5558
 8041TIP3   OH248317   0.671   0.964   5.766 -0.5446  0.1275  0.0154
 8041TIP3    H148318   0.631   0.936   5.848  2.1281  1.4647  1.9233
 8041TIP3    H248319   0.743   0.901   5.752 -0.7124  0.1641 -1.0859
 8042TIP3   OH248320   4.554   4.531   5.029 -0.3664  0.2374 -0.1125
 8042TIP3    H148321   4.512   4.448   5.005 -0.8016 -0.0177  1.3871
 8042TIP3    H248322   4.645   4.508   5.047 -0.4882  0.0777  0.3074
 8043TIP3   OH248323   2.861   5.672   5.536  1.1438 -0.3150  0.5347
 8043TIP3    H148324   2.877   5.581   5.509  0.7214  0.1683 -1.5314
 8043TIP3    H248325   2.887   5.724   5.460  1.1919  1.2951  1.6080
 8044TIP3   OH248326   0.524   4.098   9.649 -0.0723  0.6008 -0.0566
 8044TIP3    H148327   0.612   4.110   9.612  0.2617  2.0650  1.1151
 8044TIP3    H248328   0.536   4.029   9.715 -0.0784 -0.0228 -0.6867
 8045TIP3   OH248329   2.699   1.171   6.297 -0.3434 -0.0861  0.4941
 8045TIP3    H148330   2.770   1.189   6.235 -1.1294 -1.2629 -0.7969
 8045TIP3    H248331   2.686   1.077   6.292 -2.5575  0.1914  0.0473
 8046TIP3   OH248332   1.314   3.424   8.568 -0.0877  0.2530 -0.4090
 8046TIP3    H148333   1.381   3.456   8.508  0.4922  0.7251  0.4712
 8046TIP3    H248334   1.242   3.486   8.559 -0.3830 -0.1909 -1.2717
 8047TIP3   OH248335   6.177   4.355   8.264  1.0172 -0.2564  0.0394
 8047TIP3    H148336   6.120   4.287   8.299  0.3159  0.7768  0.9898
 8047TIP3    H248337   6.126   4.436   8.273  1.8950  0.4204 -0.8803
 8048TIP3   OH248338   3.156   2.634   6.645  0.3490  0.5527 -0.0502
 8048TIP3    H148339   3.222   2.654   6.578 -0.4240 -1.7159 -1.6288
 8048TIP3    H248340   3.205   2.595   6.716  0.8382 -0.2563 -0.8137
 8049TIP3   OH248341   1.991   2.808   7.733 -0.1349 -0.5178  0.2585
 8049TIP3    H148342   1.964   2.718   7.754 -0.4829 -0.3441  0.5685
 8049TIP3    H248343   1.945   2.828   7.651  0.7728 -0.9933 -0.3751
 8050TIP3   OH248344   1.007   1.392   6.403  0.3524 -0.0998 -0.2028
 8050TIP3    H148345   1.084   1.411   6.350  0.9049 -0.1982  0.5447
 8050TIP3    H248346   0.933   1.414   6.347  0.9310  0.7840 -0.6327
 8051TIP3   OH248347   0.051   1.608   8.489  0.2301 -0.1885 -0.3242
 8051TIP3    H148348  -0.044   1.604   8.477 -0.0850 -1.2581  2.0160
 8051TIP3    H248349   0.072   1.532   8.543  2.1953  0.9428  0.6380
 8052TIP3   OH248350   3.610   1.127   5.688 -0.4028 -0.1221  0.1522
 8052TIP3    H148351   3.675   1.058   5.674  0.5697  0.6645  0.6620
 8052TIP3    H248352   3.660   1.208   5.686 -1.2977  0.4775  1.0230
 8053TIP3   OH248353   3.451   6.013   6.719  0.1670  0.0343  0.2030
 8053TIP3    H148354   3.461   6.025   6.814 -1.4085  0.7344  0.3189
 8053TIP3    H248355   3.366   6.053   6.699  0.3228 -0.3981 -1.4601
 8054TIP3   OH248356   3.582   1.606   7.428  0.3806 -0.2549 -0.2035
 8054TIP3    H148357   3.621   1.566   7.505 -0.0871  1.3546  0.9501
 8054TIP3    H248358   3.603   1.699   7.437 -0.2492  0.0529 -1.6754
 8055TIP3   OH248359   0.892   1.608   7.239  0.3771  0.2460 -0.0817
 8055TIP3    H148360   0.893   1.646   7.327  3.1980  2.1468 -0.7904
 8055TIP3    H248361   0.825   1.659   7.191 -0.9665 -0.6093  0.8343
 8056TIP3   OH248362   0.115   4.959   7.414  0.1740 -0.0091 -0.1089
 8056TIP3    H148363   0.179   4.903   7.369 -0.6113  0.1110 -1.4349
 8056TIP3    H248364   0.041   4.963   7.354 -1.1518 -0.2588  1.4480
 8057TIP3   OH248365   1.517   2.173   6.212 -0.2545 -0.4314  0.0212
 8057TIP3    H148366   1.524   2.078   6.205 -1.5187 -0.8339  2.9314
 8057TIP3    H248367   1.426   2.193   6.192 -0.2350  0.0524  0.3804
 8058TIP3   OH248368   6.571   5.221   5.858 -0.3459 -0.3768  0.0128
 8058TIP3    H148369   6.659   5.256   5.873 -0.3800 -0.5335  0.6439
 8058TIP3    H248370   6.512   5.291   5.886 -0.4303 -0.0449 -0.9756
 8059TIP3   OH248371   1.445   4.681   6.578  0.4445 -0.5935  0.4261
 8059TIP3    H148372   1.374   4.668   6.514  1.1647 -3.0339  0.0302
 8059TIP3    H248373   1.521   4.702   6.525  0.9552 -2.2409  0.4433
 8060TIP3   OH248374   5.558   4.191   6.433 -0.0379 -0.0708 -0.0468
 8060TIP3    H148375   5.617   4.150   6.497 -0.0004  0.3214  0.1747
 8060TIP3    H248376   5.575   4.284   6.442 -3.0951  0.4406  2.4992
 8061TIP3   OH248377   3.824   0.196   5.956 -0.1860 -0.2060 -0.0576
 8061TIP3    H148378   3.769   0.268   5.987  1.0024  0.7921 -0.2368
 8061TIP3    H248379   3.833   0.139   6.033 -0.2331  0.4014  0.4064
 8062TIP3   OH248380   3.420   2.693   6.093 -0.4093 -0.1205 -0.4971
 8062TIP3    H148381   3.329   2.709   6.066 -0.1191  0.8397 -0.9598
 8062TIP3    H248382   3.418   2.697   6.188 -1.0043 -1.0197 -0.4545
 8063TIP3   OH248383   2.493   0.278   6.879  1.3838 -0.1142 -0.3030
 8063TIP3    H148384   2.417   0.257   6.933  1.2532  0.4974 -0.2391
 8063TIP3    H248385   2.460   0.339   6.813  1.8573  0.3413 -0.1342
 8064TIP3   OH248386   3.987   2.345   6.293 -0.2552  0.2247 -0.2368
 8064TIP3    H148387   3.912   2.328   6.236  0.8634 -2.0287 -1.1983
 8064TIP3    H248388   3.950   2.348   6.381 -1.4367 -1.7547 -0.5846
 8065TIP3   OH248389   0.180   2.118   8.479 -0.8073 -0.4798  0.2926
 8065TIP3    H148390   0.137   2.033   8.468  0.5042 -1.1247  0.0317
 8065TIP3    H248391   0.245   2.121   8.409 -1.0719  0.8948  0.0878
 8066TIP3   OH248392   4.524   4.078   7.526 -0.3683 -0.1835 -0.0205
 8066TIP3    H148393   4.482   4.108   7.446 -1.2746 -1.2990  0.0142
 8066TIP3    H248394   4.521   4.153   7.585 -1.5327  0.0241 -0.3301
 8067TIP3   OH248395   0.868   5.410   8.729  0.2223  0.0252  0.1361
 8067TIP3    H148396   0.900   5.347   8.664  1.4132  0.2442  0.4849
 8067TIP3    H248397   0.934   5.409   8.798 -0.5906  0.4396  0.9358
 8068TIP3   OH248398   1.050   1.802   6.092  0.2285 -0.0174  0.1379
 8068TIP3    H148399   1.118   1.794   6.024  0.8534  3.2110  0.2465
 8068TIP3    H248400   1.005   1.883   6.071 -1.8633 -0.7125  1.6636
 8069TIP3   OH248401   4.397   4.560   7.037 -0.0157  0.0461  0.4314
 8069TIP3    H148402   4.451   4.498   6.988 -0.1800 -0.1590  0.5078
 8069TIP3    H248403   4.432   4.557   7.126  0.5168  0.6888  0.2502
 8070TIP3   OH248404   0.709   1.960   6.403 -0.3038  0.2222 -0.5730
 8070TIP3    H148405   0.650   2.035   6.399  1.3469  1.7923  1.7660
 8070TIP3    H248406   0.674   1.905   6.473  0.3191  0.5792  0.0354
 8071TIP3   OH248407   6.112   3.718   5.566 -0.0227  0.1048  0.5657
 8071TIP3    H148408   6.031   3.706   5.517  0.0940 -0.9810  0.6195
 8071TIP3    H248409   6.157   3.790   5.520 -0.0906 -0.6312 -0.7089
 8072TIP3   OH248410   2.477   5.207   6.519 -0.3594  0.0673  0.0772
 8072TIP3    H148411   2.421   5.185   6.445  0.4375 -2.9114  0.2252
 8072TIP3    H248412   2.527   5.283   6.490 -0.4741 -0.6582 -2.2548
 8073TIP3   OH248413   5.732   1.938   6.921 -0.2998  0.5541  0.3662
 8073TIP3    H148414   5.803   1.892   6.966 -0.7716 -0.7757 -0.1986
 8073TIP3    H248415   5.764   1.953   6.833 -1.6809 -2.6787 -0.8388
 8074TIP3   OH248416   1.956   2.017   6.447 -0.7483  0.5327  0.1258
 8074TIP3    H148417   1.986   2.076   6.516  0.7943  0.0408 -0.0695
 8074TIP3    H248418   1.999   2.049   6.368 -0.4090 -0.4472 -0.1037
 8075TIP3   OH248419   4.231   0.103   6.742 -0.1073 -0.1164 -0.0961
 8075TIP3    H148420   4.208   0.074   6.654  0.9291  0.9833 -0.7466
 8075TIP3    H248421   4.310   0.054   6.763 -0.2318 -0.2161  0.1435
 8076TIP3   OH248422   1.939   4.245   5.503 -0.2743 -0.1762  0.2006
 8076TIP3    H148423   1.902   4.318   5.552 -0.3040  0.1571 -0.3214
 8076TIP3    H248424   1.912   4.259   5.413 -0.4528 -0.9451  0.1250
 8077TIP3   OH248425   2.286   2.991   7.396  0.0335  0.1993 -0.8096
 8077TIP3    H148426   2.316   2.949   7.316 -1.2596  1.3319 -1.9558
 8077TIP3    H248427   2.196   2.962   7.406  0.3758 -0.4219  0.6060
 8078TIP3   OH248428   2.920   6.363   6.922 -0.5628  0.0070  0.3938
 8078TIP3    H148429   2.908   6.425   6.850  1.5256 -0.7129 -0.6376
 8078TIP3    H248430   2.941   6.418   6.997 -1.8677  0.7071  0.2795
 8079TIP3   OH248431   3.975   4.763   5.998  0.6546 -0.2450  0.0106
 8079TIP3    H148432   3.972   4.784   5.904 -0.3424  2.3131  0.5386
 8079TIP3    H248433   4.068   4.760   6.019  0.9094  1.8751 -0.5693
 8080TIP3   OH248434   2.704   4.307   7.078 -0.7591 -0.1916  0.1400
 8080TIP3    H148435   2.795   4.322   7.102 -1.4413 -0.3521  3.2067
 8080TIP3    H248436   2.675   4.391   7.043  0.1893  0.3019  0.4908
 8081TIP3   OH248437   2.645   2.398   5.396 -0.6041  0.1991  0.2139
 8081TIP3    H148438   2.641   2.492   5.411 -0.1128  0.3180 -0.3725
 8081TIP3    H248439   2.737   2.380   5.380 -0.9346 -0.0569 -1.6801
 8082TIP3   OH248440   2.033   4.644   5.549  0.0580 -0.6659 -1.0496
 8082TIP3    H148441   1.956   4.612   5.597  0.3141  0.8170  0.4400
 8082TIP3    H248442   2.025   4.739   5.552  0.8456 -0.5084 -2.7780
 8083TIP3   OH248443   2.807   1.149   7.428 -0.1884 -0.3722  0.2727
 8083TIP3    H148444   2.812   1.066   7.476  0.5823 -0.3639  0.2130
 8083TIP3    H248445   2.758   1.207   7.486 -0.7424 -0.8681  0.3108
 8084TIP3   OH248446   4.213   3.004   6.123 -0.0340 -0.3501  0.5282
 8084TIP3    H148447   4.279   3.002   6.053  1.1753  0.1690  1.5935
 8084TIP3    H248448   4.195   2.912   6.142 -1.0424 -0.5032 -1.0326
 8085TIP3   OH248449   0.455   4.016   5.738 -0.1368 -0.1745 -0.2646
 8085TIP3    H148450   0.426   3.926   5.749  0.9164 -0.5786 -0.6321
 8085TIP3    H248451   0.382   4.069   5.769 -0.2447 -1.1669  1.2535
 8086TIP3   OH248452   3.571   5.134   7.869 -0.8282 -0.1904 -0.0441
 8086TIP3    H148453   3.663   5.143   7.846 -1.3309  2.8106 -1.4350
 8086TIP3    H248454   3.554   5.040   7.865  1.8867 -0.7461 -0.8019
 8087TIP3   OH248455   2.749   3.456   7.648 -0.5793 -0.2428  0.3599
 8087TIP3    H148456   2.699   3.463   7.729  1.7513  0.3474  1.8369
 8087TIP3    H248457   2.723   3.372   7.610 -2.1635 -0.2443  1.3692
 8088TIP3   OH248458   3.520   4.047   6.505 -0.1240 -0.3394 -0.2180
 8088TIP3    H148459   3.474   4.120   6.545  0.1628 -0.7907  0.9918
 8088TIP3    H248460   3.490   3.970   6.554  2.2175 -0.6066  0.9760
 8089TIP3   OH248461   0.581   6.049   8.514  0.1408  0.1538  0.3800
 8089TIP3    H148462   0.516   5.996   8.469  1.1880  0.0886 -1.1253
 8089TIP3    H248463   0.547   6.059   8.603 -1.4540 -0.6375 -0.1125
 8090TIP3   OH248464   0.449   0.307   5.507  0.0487  0.4960  0.4099
 8090TIP3    H148465   0.438   0.381   5.566 -2.8070  0.5833 -0.0589
 8090TIP3    H248466   0.480   0.346   5.425 -0.1020  1.0022  0.5885
 8091TIP3   OH248467   0.327   3.619   6.853 -0.3179 -0.4627 -0.5476
 8091TIP3    H148468   0.333   3.712   6.877 -0.4389 -0.1063 -1.8241
 8091TIP3    H248469   0.353   3.572   6.932  0.1091  0.6681  0.0018
 8092TIP3   OH248470   2.990   3.333   7.695  0.0292 -0.2002  0.4991
 8092TIP3    H148471   2.901   3.366   7.686  0.9036  2.5826  1.0336
 8092TIP3    H248472   3.022   3.373   7.776  1.5348 -1.7349  0.7181
 8093TIP3   OH248473   0.584   5.746   6.633  0.2590  0.1058 -0.5297
 8093TIP3    H148474   0.669   5.706   6.614 -0.4045 -1.1434 -0.9947
 8093TIP3    H248475   0.520   5.681   6.605 -0.8530  0.3708  1.1868
 8094TIP3   OH248476   0.350   5.521   6.112  0.2729  0.6163 -0.1573
 8094TIP3    H148477   0.387   5.607   6.096  1.3319  0.8105  2.7628
 8094TIP3    H248478   0.395   5.463   6.051  1.7183  1.6884 -0.1499
 8095TIP3   OH248479   1.952   0.256   8.075 -0.2040  0.3795  0.2726
 8095TIP3    H148480   2.008   0.326   8.107  0.1763  0.2739 -0.1505
 8095TIP3    H248481   1.868   0.268   8.120 -0.6513  2.0269 -0.9055
 8096TIP3   OH248482   4.667   1.279   6.927 -0.0244  0.2706  0.3918
 8096TIP3    H148483   4.582   1.318   6.906  0.4672  2.8959  2.6002
 8096TIP3    H248484   4.671   1.284   7.023  2.5810  0.1664  0.3426
 8097TIP3   OH248485   1.604   2.163   6.836  0.3253 -0.0089 -0.2848
 8097TIP3    H148486   1.607   2.105   6.911 -1.3768 -1.5946 -1.3641
 8097TIP3    H248487   1.696   2.182   6.816  0.9656 -2.5329 -0.0269
 8098TIP3   OH248488   3.273   0.510   7.408  0.2922  0.6183  0.2992
 8098TIP3    H148489   3.262   0.436   7.468 -0.1560  1.0733  0.7916
 8098TIP3    H248490   3.262   0.472   7.320 -3.1399  0.5737  0.6195
 8099TIP3   OH248491   0.143   4.229   7.832  0.3268 -0.1352  0.1112
 8099TIP3    H148492   0.194   4.174   7.773 -0.1634  0.5032 -0.9497
 8099TIP3    H248493   0.052   4.205   7.814  0.0764  1.3224 -0.7297
 8100TIP3   OH248494   5.240   5.471   8.022  0.1789 -0.1540 -0.0579
 8100TIP3    H148495   5.331   5.445   8.041 -0.4205 -0.9673  1.9585
 8100TIP3    H248496   5.213   5.413   7.951  1.2243  0.0860 -0.6698
 8101TIP3   OH248497   3.842   4.144   6.110  0.2843  0.2500 -0.5341
 8101TIP3    H148498   3.869   4.232   6.135  0.7700  0.6667 -2.3887
 8101TIP3    H248499   3.757   4.156   6.066  0.0808 -0.2766 -0.2933
 8102TIP3   OH248500   2.604   2.535   6.694 -0.4897 -0.1529  0.0985
 8102TIP3    H148501   2.652   2.500   6.619  3.5290 -1.9301  3.0795
 8102TIP3    H248502   2.526   2.481   6.700  0.6954 -2.1209 -1.0422
 8103TIP3   OH248503   6.632   0.274   5.576 -0.1181  0.1517  0.1529
 8103TIP3    H148504   6.670   0.218   5.644  1.4243  0.1378 -0.6611
 8103TIP3    H248505   6.636   0.220   5.497  1.8644  1.5213 -0.7489
 8104TIP3   OH248506   2.160   2.293   7.029 -0.1353  0.0501  0.2329
 8104TIP3    H148507   2.225   2.234   6.992 -0.6476 -0.7215  0.5311
 8104TIP3    H248508   2.083   2.238   7.043  0.2247  0.1123  3.0352
 8105TIP3   OH248509   5.826   2.534   6.513  0.4973  0.2251  0.1691
 8105TIP3    H148510   5.885   2.544   6.439  0.6456 -0.2603  0.2157
 8105TIP3    H248511   5.827   2.619   6.557 -0.3616  0.8252 -0.9469
 8106TIP3   OH248512   5.173   5.980   5.533 -0.0485  0.2052 -0.9362
 8106TIP3    H148513   5.186   5.911   5.468 -1.6095 -0.7978 -0.2363
 8106TIP3    H248514   5.236   5.960   5.603  1.0719  0.8288 -1.7297
 8107TIP3   OH248515   5.825   0.489   7.207  0.0025  0.3387  0.0426
 8107TIP3    H148516   5.814   0.412   7.152 -0.9119  0.1694  0.4330
 8107TIP3    H248517   5.918   0.510   7.201  0.2083 -0.6072 -0.3161
 8108TIP3   OH248518   1.159   4.567   8.594  0.5009 -0.5635 -0.4773
 8108TIP3    H148519   1.207   4.489   8.622 -0.4186  0.1070  3.7159
 8108TIP3    H248520   1.088   4.533   8.540  0.6217 -2.5876  0.5163
 8109TIP3   OH248521   3.250   4.305   6.240 -0.0020  0.4831 -0.6567
 8109TIP3    H148522   3.188   4.258   6.295 -0.1898  1.5288  0.0314
 8109TIP3    H248523   3.197   4.344   6.171  0.0494  0.4050 -0.7419
 8110TIP3   OH248524   1.013   1.018   8.342  0.0104  0.0198  0.4731
 8110TIP3    H148525   1.021   1.110   8.368 -0.9366  0.8978 -2.0171
 8110TIP3    H248526   0.928   0.991   8.376  0.0438  0.2469  0.7396
 8111TIP3   OH248527   4.873   5.706   5.507 -0.1004  0.2063 -0.0008
 8111TIP3    H148528   4.795   5.669   5.466 -0.9344  1.9308 -0.0527
 8111TIP3    H248529   4.848   5.720   5.598  0.3407  0.2698  0.1139
 8112TIP3   OH248530   1.120   2.561   7.632 -0.2596  0.1788 -0.5072
 8112TIP3    H148531   1.073   2.529   7.709  0.8019 -3.7865 -1.2826
 8112TIP3    H248532   1.212   2.559   7.657 -0.0435  1.3246 -1.1280
 8113TIP3   OH248533   2.053   4.809   7.904  0.5554 -0.3441 -0.0476
 8113TIP3    H148534   2.124   4.873   7.908 -0.6236  1.2690 -2.2063
 8113TIP3    H248535   1.999   4.829   7.981  0.5783  0.8520 -0.3147
 8114TIP3   OH248536   3.095   1.594   6.170  0.1723 -0.2827  0.3289
 8114TIP3    H148537   3.079   1.539   6.247 -1.2113  0.7030  0.7823
 8114TIP3    H248538   3.044   1.551   6.100  0.7634 -0.7167  0.1583
 8115TIP3   OH248539   5.268   1.898   7.233 -0.3224  0.1375 -0.0967
 8115TIP3    H148540   5.291   1.986   7.261  1.1893 -0.0666 -0.6533
 8115TIP3    H248541   5.261   1.848   7.315 -0.2083  0.5394  0.1613
 8116TIP3   OH248542   3.679   1.056   6.289 -0.2422  0.0178 -0.3688
 8116TIP3    H148543   3.650   1.147   6.277 -1.4176 -0.6176 -3.4659
 8116TIP3    H248544   3.755   1.048   6.231 -2.1002 -1.6958 -2.7577
 8117TIP3   OH248545   0.201   6.363   8.839 -0.5645 -0.0358 -0.6639
 8117TIP3    H148546   0.295   6.366   8.859 -1.1064 -0.1819  2.1751
 8117TIP3    H248547   0.160   6.422   8.902 -2.3721  0.7085 -2.3977
 8118TIP3   OH248548   3.563   5.553   6.960  0.7780  0.1303  0.2088
 8118TIP3    H148549   3.510   5.612   6.907  0.5903  1.2639  1.5996
 8118TIP3    H248550   3.503   5.484   6.987  0.1102  1.0703  1.2540
 8119TIP3   OH248551   3.119   2.897   8.890  0.7153 -0.0182 -0.0922
 8119TIP3    H148552   3.048   2.955   8.916  0.9786  0.7484 -1.0190
 8119TIP3    H248553   3.082   2.809   8.893  0.3840  0.1580  1.5948
 8120TIP3   OH248554   5.460   4.623   7.296 -0.2926  0.9306  0.0550
 8120TIP3    H148555   5.415   4.686   7.239  0.5815  0.9148 -0.6947
 8120TIP3    H248556   5.416   4.540   7.280 -0.8179  1.1626  0.2965
 8121TIP3   OH248557   5.260   1.196   8.091 -0.0514 -0.0726 -0.1250
 8121TIP3    H148558   5.234   1.242   8.171 -0.5572  0.9463 -0.8520
 8121TIP3    H248559   5.186   1.208   8.031  1.9699  3.0238 -2.3211
 8122TIP3   OH248560   2.494   4.865  16.658 -0.0796  0.2611 -0.2309
 8122TIP3    H148561   2.579   4.873  16.701 -0.3243  2.4421 -0.0618
 8122TIP3    H248562   2.452   4.950  16.671 -2.4976 -0.8808  0.0822
 8123TIP3   OH248563   1.324   0.440   8.236 -0.3924  0.1420 -0.5023
 8123TIP3    H148564   1.403   0.430   8.290  0.7783 -0.4225 -2.2397
 8123TIP3    H248565   1.357   0.448   8.147 -2.3230 -0.1641 -1.2867
 8124TIP3   OH248566   3.209   4.905   5.523 -0.3667 -0.2511 -0.0308
 8124TIP3    H148567   3.120   4.870   5.522 -0.8311  0.8822 -0.0699
 8124TIP3    H248568   3.198   4.999   5.539  0.9278 -0.3888  2.1959
 8125TIP3   OH248569   4.735   3.079   6.580  0.0402 -0.2671 -0.2366
 8125TIP3    H148570   4.820   3.110   6.550 -0.4625  1.6910  0.2695
 8125TIP3    H248571   4.701   3.029   6.505  1.2025 -0.2504 -0.8017
 8126TIP3   OH248572   0.003   0.454   6.444  0.7319 -0.3615 -0.2032
 8126TIP3    H148573   0.093   0.455   6.477  0.5452 -0.6321  0.3234
 8126TIP3    H248574  -0.003   0.532   6.389  1.2346 -0.2376 -0.0870
 8127TIP3   OH248575   3.290   1.163   7.039 -0.2835  0.4506 -0.4079
 8127TIP3    H148576   3.213   1.172   7.095  0.2425  0.2741  0.3666
 8127TIP3    H248577   3.328   1.079   7.065  0.5121  0.8288 -0.3423
 8128TIP3   OH248578   5.620   6.423   8.874  0.2717 -0.0205  0.3506
 8128TIP3    H148579   5.680   6.462   8.811  0.6230  1.1592  1.3732
 8128TIP3    H248580   5.579   6.497   8.918 -1.1663 -0.8039  0.4268
 8129TIP3   OH248581   6.483   0.561   8.601 -0.3221 -0.0130 -0.9614
 8129TIP3    H148582   6.469   0.591   8.690  0.7931  0.3587 -0.9052
 8129TIP3    H248583   6.540   0.484   8.609  0.5279  0.5541 -1.3974
 8130TIP3   OH248584   4.076   5.148   7.204 -0.4719 -0.0994 -0.2968
 8130TIP3    H148585   4.001   5.179   7.152 -0.1920 -0.3804 -0.8825
 8130TIP3    H248586   4.152   5.165   7.148 -0.1692 -0.4641  0.0006
 8131TIP3   OH248587   4.047   5.238   6.794 -0.0461  0.1615  0.0152
 8131TIP3    H148588   4.042   5.243   6.699 -0.2063  0.5274  0.0421
 8131TIP3    H248589   4.112   5.304   6.819 -0.2735  0.3240  0.1859
 8132TIP3   OH248590   6.623   0.203   6.884 -0.1004 -0.4230 -0.3028
 8132TIP3    H148591   6.637   0.121   6.836 -0.6536 -1.2486  0.8788
 8132TIP3    H248592   6.530   0.221   6.873 -0.0533 -0.1559 -0.2567
 8133TIP3   OH248593   3.529   1.572   6.243  0.6909 -0.0018  0.2644
 8133TIP3    H148594   3.477   1.492   6.241  1.8334 -0.7579  0.0147
 8133TIP3    H248595   3.468   1.641   6.218 -0.3325 -0.7784  0.5721
 8134TIP3   OH248596   2.520   6.445  15.816  0.1174 -0.1118 -0.7075
 8134TIP3    H148597   2.445   6.410  15.864  0.9122  0.2325  0.8824
 8134TIP3    H248598   2.592   6.385  15.836  0.5923  0.3353 -1.0341
 8135TIP3   OH248599   0.629   0.629   5.488 -0.5759 -0.2531  0.0625
 8135TIP3    H148600   0.699   0.645   5.550  0.3266  0.5785 -1.1299
 8135TIP3    H248601   0.671   0.581   5.416 -1.0923  0.7311 -0.9173
 8136TIP3   OH248602   6.441   3.628   8.199  0.4196 -0.5692 -0.1548
 8136TIP3    H148603   6.467   3.700   8.142 -2.3569 -0.3529 -1.2798
 8136TIP3    H248604   6.379   3.668   8.261  1.3153 -1.3727  1.3373
 8137TIP3   OH248605   6.129   1.515   7.298  0.6482 -0.0684  0.3446
 8137TIP3    H148606   6.110   1.603   7.329 -2.4648 -0.4376 -0.1997
 8137TIP3    H248607   6.197   1.527   7.231  3.3142  1.3377  3.0518
 8138TIP3   OH248608   0.163   0.348   7.204 -0.1379  0.1158  0.2092
 8138TIP3    H148609   0.079   0.393   7.196 -0.1560 -0.1681 -1.4399
 8138TIP3    H248610   0.141   0.259   7.228 -0.2333  0.3244  0.9219
 8139TIP3   OH248611   0.141   0.139   6.675  0.4339 -0.0804  0.3796
 8139TIP3    H148612   0.087   0.153   6.754 -0.7170  1.1502 -0.5810
 8139TIP3    H248613   0.230   0.128   6.709 -0.0973 -0.0280  1.8842
 8140TIP3   OH248614   5.078   3.317   6.227 -0.2202 -0.0551  0.3372
 8140TIP3    H148615   5.126   3.370   6.163  1.7950 -0.6430  1.2778
 8140TIP3    H248616   5.052   3.380   6.295 -0.2124  0.1834  0.1213
 8141TIP3   OH248617   2.070   5.556   6.956 -0.3316  0.1269 -0.7782
 8141TIP3    H148618   2.088   5.624   7.021  1.0463 -2.6830  2.1114
 8141TIP3    H248619   2.151   5.505   6.953 -1.4848 -1.7271 -2.3401
 8142TIP3   OH248620   5.906   2.724   7.750 -0.2257 -0.0393 -0.0907
 8142TIP3    H148621   5.894   2.657   7.817  0.3404 -0.1973 -0.1404
 8142TIP3    H248622   5.909   2.806   7.798 -0.1932 -0.1181  0.0409
 8143TIP3   OH248623   3.928   3.762   6.438  0.3135 -0.5495  0.1383
 8143TIP3    H148624   4.014   3.792   6.469 -0.4509  1.4586  0.4271
 8143TIP3    H248625   3.888   3.721   6.514  0.5680 -0.4947  0.3034
 8144TIP3   OH248626   0.723   1.723   6.784  0.4758  0.3491 -0.7052
 8144TIP3    H148627   0.738   1.676   6.866 -0.5501  1.4674  0.1585
 8144TIP3    H248628   0.791   1.690   6.726  0.2512 -1.6599  0.0625
 8145TIP3   OH248629   5.118   1.181   5.891 -0.6057  0.0888  0.1977
 8145TIP3    H148630   5.160   1.119   5.832 -0.8100  0.3085 -0.1832
 8145TIP3    H248631   5.173   1.259   5.887 -0.8352  0.2405 -0.0036
 8146TIP3   OH248632   6.338   2.638   5.707  0.0847 -0.0161 -0.6749
 8146TIP3    H148633   6.352   2.716   5.653 -1.6340  0.1982 -0.8551
 8146TIP3    H248634   6.259   2.657   5.757  1.8078 -0.0514  2.2752
 8147TIP3   OH248635   1.828   2.214   7.465 -0.2641  0.3580 -0.0866
 8147TIP3    H148636   1.782   2.134   7.439  0.4470  0.0608 -0.4652
 8147TIP3    H248637   1.795   2.281   7.405 -0.9645  0.3864  0.3219
 8148TIP3   OH248638   4.497   6.224   8.073 -0.2293  0.8533  0.2696
 8148TIP3    H148639   4.407   6.255   8.073 -0.7648 -0.4773 -1.9371
 8148TIP3    H248640   4.492   6.133   8.104  0.5632  1.1236  1.2929
 8149TIP3   OH248641   1.218   0.891   5.890 -0.0066 -0.3263 -0.1761
 8149TIP3    H148642   1.202   0.800   5.862  0.6339  0.2375 -2.5875
 8149TIP3    H248643   1.307   0.910   5.861 -0.6328  1.5353 -1.0159
 8150TIP3   OH248644   1.039   1.291   8.446 -0.1369 -0.0988  0.2284
 8150TIP3    H148645   0.984   1.273   8.523 -0.7246 -1.0407 -0.3968
 8150TIP3    H248646   1.124   1.317   8.483 -1.4309  3.1416  1.2801
 8151TIP3   OH248647   2.486   3.209   8.456 -0.0949 -0.4706  0.0241
 8151TIP3    H148648   2.502   3.250   8.541 -3.4468 -0.4203  0.8042
 8151TIP3    H248649   2.455   3.122   8.478 -0.8098 -0.5253 -1.1464
 8152TIP3   OH248650   6.233   2.850   8.894 -0.2941  0.1666  0.0339
 8152TIP3    H148651   6.304   2.832   8.956  0.1904  0.2369 -0.4818
 8152TIP3    H248652   6.153   2.844   8.945 -0.0022 -1.2089  0.3586
 8153TIP3   OH248653   3.350   0.790   6.793 -0.4864 -0.1758 -0.4206
 8153TIP3    H148654   3.307   0.835   6.720  0.2627  0.6732 -0.3560
 8153TIP3    H248655   3.280   0.742   6.837 -1.2335  0.6142 -0.7317
 8154TIP3   OH248656   3.733   0.759   8.830 -0.0312 -0.3287 -0.6182
 8154TIP3    H148657   3.648   0.730   8.795 -0.1859 -0.4116 -0.1862
 8154TIP3    H248658   3.714   0.839   8.878  0.3815  0.4377 -1.7103
 8155TIP3   OH248659   0.421   0.356   7.119 -0.7423 -0.5640  0.2866
 8155TIP3    H148660   0.407   0.435   7.066 -1.5090  0.2748  1.6784
 8155TIP3    H248661   0.335   0.339   7.159 -0.4271 -1.7536  0.4829
 8156TIP3   OH248662   4.013   5.833   5.671 -0.3423  0.2167  0.0610
 8156TIP3    H148663   4.103   5.850   5.644 -0.4785  0.2089 -0.4088
 8156TIP3    H248664   4.018   5.819   5.765  0.1143  0.4555  0.0734
 8157TIP3   OH248665   2.823   6.385   8.048 -0.4190 -0.1457 -0.1607
 8157TIP3    H148666   2.849   6.303   8.006  0.6953 -0.9856  1.9981
 8157TIP3    H248667   2.727   6.381   8.052 -0.3446 -2.2879  1.5074
 8158TIP3   OH248668   2.149   5.635   8.944  0.7141  0.5003  0.1225
 8158TIP3    H148669   2.141   5.731   8.940  2.2157  0.7382  1.7152
 8158TIP3    H248670   2.059   5.604   8.944  0.1944  1.8938 -0.6388
 8159TIP3   OH248671   2.387   5.830   9.028  0.0539  0.4943  0.0599
 8159TIP3    H148672   2.394   5.900   9.093 -0.6526  0.9653 -0.3675
 8159TIP3    H248673   2.300   5.839   8.991  0.0582 -0.4425 -0.2035
 8160TIP3   OH248674   5.038   5.800   7.284 -0.2031  0.5746  0.2435
 8160TIP3    H148675   5.003   5.809   7.195  0.7886 -0.8323 -0.3285
 8160TIP3    H248676   4.975   5.846   7.339 -0.7501  1.6232 -1.2037
 8161TIP3   OH248677   4.149   1.370   6.406  0.3400  0.1188 -0.2639
 8161TIP3    H148678   4.083   1.304   6.389  0.8230 -0.2571 -0.6930
 8161TIP3    H248679   4.210   1.329   6.467  0.7955  0.0611 -0.7494
 8162TIP3   OH248680   0.503   2.871   6.380  0.7142  0.6890  0.0279
 8162TIP3    H148681   0.599   2.877   6.381  0.6919  1.1512 -0.1953
 8162TIP3    H248682   0.485   2.779   6.361  1.1181  0.7996 -0.9496
 8163TIP3   OH248683   0.701   2.698   6.849  0.0154  0.0280 -0.1611
 8163TIP3    H148684   0.717   2.785   6.813  1.0208  0.6910  1.7212
 8163TIP3    H248685   0.785   2.672   6.887 -0.5859 -1.2527  0.3528
 8164TIP3   OH248686   0.398   5.514   7.491  0.1360  0.0521 -0.0743
 8164TIP3    H148687   0.351   5.431   7.489 -0.0434  0.1411  0.2304
 8164TIP3    H248688   0.428   5.528   7.402 -0.5625  0.0698 -0.3139
 8165TIP3   OH248689   1.213   6.190   7.323  0.3024  0.1069  0.1540
 8165TIP3    H148690   1.275   6.167   7.392 -0.9760  0.8561  1.6157
 8165TIP3    H248691   1.219   6.119   7.260  1.4163 -0.6626  1.0944
 8166TIP3   OH248692   6.644   0.298   6.233 -0.0396 -0.2223 -0.2810
 8166TIP3    H148693   6.662   0.369   6.294 -3.0813  2.7067 -2.4496
 8166TIP3    H248694   6.709   0.309   6.163 -0.4327  0.3720 -0.5552
 8167TIP3   OH248695   0.840   2.868   8.253 -0.1713  0.4411  0.1194
 8167TIP3    H148696   0.751   2.903   8.251 -1.1873 -1.9159 -3.0516
 8167TIP3    H248697   0.881   2.903   8.174  0.3950 -1.4301 -0.4702
 8168TIP3   OH248698   2.783   3.537   6.185 -0.1190  0.3559 -0.4437
 8168TIP3    H148699   2.702   3.517   6.233 -0.3648  0.5779 -0.7616
 8168TIP3    H248700   2.848   3.553   6.253 -0.8740  2.3726 -0.1400
 8169TIP3   OH248701   3.897   4.453   7.103  0.7306  0.2148 -0.3100
 8169TIP3    H148702   3.935   4.396   7.170 -1.8798  0.2320  1.3218
 8169TIP3    H248703   3.962   4.522   7.091  2.9176 -1.7514 -0.5926
 8170TIP3   OH248704   4.319   3.291   6.410  0.3771 -0.3626  0.4191
 8170TIP3    H148705   4.245   3.322   6.359  1.4930  1.2333 -0.3053
 8170TIP3    H248706   4.305   3.325   6.498 -0.9866 -2.1918  0.9693
 8171TIP3   OH248707   4.822   4.256   7.641 -0.4926 -0.0916 -0.0480
 8171TIP3    H148708   4.847   4.199   7.714 -2.5139  0.0062  0.7873
 8171TIP3    H248709   4.812   4.342   7.680 -2.4749 -0.2072 -0.1956
 8172TIP3   OH248710   2.707   1.730   5.982 -0.2447  0.3003  0.0179
 8172TIP3    H148711   2.765   1.786   6.032  1.2203 -0.7550 -0.4346
 8172TIP3    H248712   2.722   1.754   5.891  0.8743 -1.2054 -0.2319
 8173TIP3   OH248713   3.907   6.193   7.059  0.0465  0.4110  0.4112
 8173TIP3    H148714   3.893   6.145   6.978  0.1054  0.8114  0.1628
 8173TIP3    H248715   3.943   6.128   7.119  2.1219  0.5908 -0.5422
 8174TIP3   OH248716   6.039   5.023   5.769 -0.0781 -0.4706 -0.1481
 8174TIP3    H148717   6.037   5.107   5.724 -1.7772  0.8882  2.2602
 8174TIP3    H248718   6.132   5.004   5.782  0.3867  2.4107  1.5096
 8175TIP3   OH248719   1.175   4.180   7.320  0.2094 -0.6032  0.6851
 8175TIP3    H148720   1.245   4.186   7.255  0.5629 -0.5390  1.0704
 8175TIP3    H248721   1.150   4.271   7.337  0.5884 -0.5843  1.1466
 8176TIP3   OH248722   6.697   3.197   5.781  0.9580 -0.3568  0.3543
 8176TIP3    H148723   6.663   3.237   5.701  2.7128  1.3391  0.3731
 8176TIP3    H248724   6.623   3.149   5.817 -0.7294  1.2306 -0.7744
 8177TIP3   OH248725   3.892   5.210   7.011  0.3589 -0.3676  0.6631
 8177TIP3    H148726   3.854   5.292   7.041 -0.7629  0.1395 -1.9074
 8177TIP3    H248727   3.960   5.236   6.948  0.2432 -1.3909  0.0895
 8178TIP3   OH248728   1.646   1.543   8.912  0.1392  0.3224  0.9553
 8178TIP3    H148729   1.607   1.460   8.938  0.4939  0.4786  2.0232
 8178TIP3    H248730   1.603   1.609   8.967 -1.7890  1.2102 -1.3863
 8179TIP3   OH248731   1.120   2.680   8.572  0.5280 -0.1859 -0.4459
 8179TIP3    H148732   1.112   2.762   8.620 -0.8251 -0.0773 -0.8199
 8179TIP3    H248733   1.030   2.655   8.551  0.9709 -1.2959 -1.1287
 8180TIP3   OH248734   5.042   3.773   8.155  0.0112 -0.2937  0.5736
 8180TIP3    H148735   5.084   3.695   8.117 -0.7909 -0.3715 -0.1921
 8180TIP3    H248736   4.954   3.743   8.178 -0.1334  0.2604  0.7478
 8181TIP3   OH248737   1.903   6.256   8.411 -0.0052 -0.0394  0.1211
 8181TIP3    H148738   1.989   6.235   8.447 -0.1158  0.6411  0.8226
 8181TIP3    H248739   1.918   6.335   8.359 -0.1412 -0.1265 -0.0525
 8182TIP3   OH248740   3.237   6.201   7.860 -0.0828  0.0495 -0.5107
 8182TIP3    H148741   3.305   6.266   7.878 -0.8730  0.7935 -0.1347
 8182TIP3    H248742   3.277   6.141   7.796  0.4802  1.2180 -1.2924
 8183TIP3   OH248743   0.755   0.435   5.336 -0.2721 -0.2221  0.2764
 8183TIP3    H148744   0.848   0.437   5.315 -0.4220 -0.5555 -0.4489
 8183TIP3    H248745   0.734   0.342   5.340 -0.4394 -0.1554  1.0798
 8184TIP3   OH248746   6.019   5.734   6.234  0.1636  0.0540  0.0688
 8184TIP3    H148747   6.019   5.780   6.318  0.1760 -0.5709  0.4153
 8184TIP3    H248748   6.106   5.694   6.228  0.3231  0.4598 -0.4474
 8185TIP3   OH248749   0.729   2.139   7.661  0.2693  0.3922 -1.0070
 8185TIP3    H148750   0.761   2.181   7.741 -1.1329 -0.2295 -0.0804
 8185TIP3    H248751   0.730   2.046   7.680 -2.5781  0.3313 -0.6365
 8186TIP3   OH248752   1.640   4.540   6.130 -0.2484 -0.4765 -0.0713
 8186TIP3    H148753   1.684   4.549   6.046 -1.2296 -1.0593 -0.6700
 8186TIP3    H248754   1.687   4.471   6.176  1.3088  0.9470  0.5595
 8187TIP3   OH248755   3.862   4.104   5.381 -0.0654  0.5713 -0.0694
 8187TIP3    H148756   3.857   4.014   5.413 -1.1631  0.4894 -0.4404
 8187TIP3    H248757   3.778   4.143   5.406  0.8794  1.8976  1.2219
 8188TIP3   OH248758   1.567   4.345   8.528  0.3352 -0.4057 -0.2155
 8188TIP3    H148759   1.621   4.272   8.559  0.0204 -0.5265  0.0508
 8188TIP3    H248760   1.599   4.362   8.439  0.6562 -0.6281 -0.1453
 8189TIP3   OH248761   1.688   2.893   6.879 -0.8491 -0.2078 -0.3160
 8189TIP3    H148762   1.727   2.882   6.965  1.0376  0.0501 -1.0935
 8189TIP3    H248763   1.599   2.924   6.897 -0.3924  0.1659  1.5180
 8190TIP3   OH248764   2.614   1.570   5.515 -0.1463 -0.0105  0.7059
 8190TIP3    H148765   2.593   1.650   5.564 -1.4536  0.3385 -0.3707
 8190TIP3    H248766   2.561   1.502   5.556 -1.0026  0.2169 -0.0179
 8191TIP3   OH248767   2.324   5.700   6.992 -0.0074  0.2056  0.2082
 8191TIP3    H148768   2.328   5.768   7.059  0.6280  0.0772  0.3068
 8191TIP3    H248769   2.367   5.625   7.032 -0.6007 -0.2223  0.0563
 8192TIP3   OH248770   4.683   1.790   7.302  0.4467 -0.0846 -0.0046
 8192TIP3    H148771   4.627   1.712   7.311  0.9307 -0.2437  2.0041
 8192TIP3    H248772   4.768   1.755   7.277  0.5301 -0.1685  0.3853
 8193TIP3   OH248773   0.368   0.595   8.668 -0.3436 -0.3656  0.3336
 8193TIP3    H148774   0.429   0.665   8.694 -0.2299 -0.6910  0.9495
 8193TIP3    H248775   0.365   0.601   8.572  2.4565 -1.8036  0.0551
 8194TIP3   OH248776   6.525   2.508   5.872  0.0042  0.4535  0.6993
 8194TIP3    H148777   6.475   2.583   5.839 -0.6817 -0.5847 -0.6969
 8194TIP3    H248778   6.610   2.515   5.827 -0.1241  0.2908  0.4327
 8195TIP3   OH248779   1.807   0.173   5.916 -0.3730  0.1133  0.2231
 8195TIP3    H148780   1.889   0.138   5.950 -0.1141  0.3810 -0.1239
 8195TIP3    H248781   1.781   0.241   5.978 -0.2033  0.2033  0.1939
 8196TIP3   OH248782   3.662   0.435   5.521  0.0788  0.2751  0.5239
 8196TIP3    H148783   3.682   0.342   5.531  1.8519  0.7329  1.6914
 8196TIP3    H248784   3.566   0.439   5.522 -0.0655 -1.6175 -0.6061
 8197TIP3   OH248785   1.792   6.468   8.533 -0.2495 -0.0672  0.0493
 8197TIP3    H148786   1.768   6.430   8.617 -0.2136  0.1234  0.1467
 8197TIP3    H248787   1.760   6.406   8.468 -4.3426  1.7860 -0.0238
 8198TIP3   OH248788   1.559   6.547   6.808 -0.1567 -0.3021  0.3444
 8198TIP3    H148789   1.570   6.457   6.778 -2.1292 -0.1320 -1.0439
 8198TIP3    H248790   1.475   6.547   6.854  0.3724  0.6083  1.3672
 8199TIP3   OH248791   4.174   6.090   5.739 -0.3013 -0.9900  0.0977
 8199TIP3    H148792   4.185   6.172   5.691 -2.6644  0.3183  1.5809
 8199TIP3    H248793   4.259   6.075   5.781  0.5577 -0.0296 -1.2059
 8200TIP3   OH248794   1.507   1.664   7.221 -0.0878  0.3215 -0.1877
 8200TIP3    H148795   1.557   1.636   7.297 -0.9162  2.4251  1.2139
 8200TIP3    H248796   1.573   1.679   7.153  0.8134 -0.0922  0.5707
 8201TIP3   OH248797   1.058   5.372   9.169  0.5477  0.5284 -0.2207
 8201TIP3    H148798   1.086   5.284   9.143 -1.1852  0.0459 -0.5828
 8201TIP3    H248799   0.988   5.358   9.233  0.5098  1.6458  0.0163
 8202TIP3   OH248800   5.326   2.308   6.412  0.1278 -0.1206 -0.5559
 8202TIP3    H148801   5.355   2.229   6.458  1.3922  0.6012 -0.0560
 8202TIP3    H248802   5.407   2.351   6.385 -0.5449  0.8810 -1.0419
 8203TIP3   OH248803   3.663   6.566   7.398 -0.5936 -0.2086 -0.7542
 8203TIP3    H148804   3.736   6.624   7.376  0.9800 -2.1076 -0.8095
 8203TIP3    H248805   3.621   6.548   7.314 -0.2520 -0.2206 -0.9235
 8204TIP3   OH248806   0.212   1.405   6.126  0.1887  0.4831  0.1354
 8204TIP3    H148807   0.298   1.415   6.165  0.4024  0.0718 -0.2145
 8204TIP3    H248808   0.158   1.472   6.168 -0.1361 -1.2172  2.6284
 8205TIP3   OH248809   4.695   4.499   6.193  0.2295 -0.2427  0.0299
 8205TIP3    H148810   4.674   4.559   6.121 -0.4101  0.4230  0.7431
 8205TIP3    H248811   4.742   4.553   6.257  0.8837 -0.8491  0.0730
 8206TIP3   OH248812   5.575   2.614   6.730 -0.1312  0.2711 -0.0134
 8206TIP3    H148813   5.633   2.685   6.703  0.2651 -0.8820 -2.4370
 8206TIP3    H248814   5.631   2.555   6.780 -0.1570  0.9928  0.8912
 8207TIP3   OH248815   1.090   3.630   8.749 -0.4491  0.1193 -0.0619
 8207TIP3    H148816   1.146   3.683   8.693 -1.4291  1.8401  0.5297
 8207TIP3    H248817   1.145   3.606   8.823  0.4181 -0.9346 -1.0102
 8208TIP3   OH248818   5.065   4.779   7.330 -0.2796 -0.1884  0.4241
 8208TIP3    H148819   5.139   4.776   7.269 -0.9605  0.0559 -0.4272
 8208TIP3    H248820   5.054   4.689   7.359 -0.4688 -0.4611 -0.4612
 8209TIP3   OH248821   6.584   6.051   7.102 -0.0918 -0.1481  0.2184
 8209TIP3    H148822   6.670   6.056   7.144 -0.3196  0.9341  0.5930
 8209TIP3    H248823   6.554   5.961   7.119  1.1054 -0.6592 -0.2362
 8210TIP3   OH248824   5.684   1.077   7.569  0.5241 -0.2844  0.1676
 8210TIP3    H148825   5.745   1.089   7.496  1.1154 -0.9029  0.5457
 8210TIP3    H248826   5.730   1.115   7.645 -1.2140  2.9614 -0.2159
 8211TIP3   OH248827   0.299   4.695   7.177 -0.0764 -0.2029  0.3605
 8211TIP3    H148828   0.305   4.790   7.173 -0.7675 -0.1179  0.9805
 8211TIP3    H248829   0.385   4.663   7.151  0.0023  0.5742 -0.3680
 8212TIP3   OH248830   1.110   2.790   6.719 -0.0370 -0.9006 -0.5457
 8212TIP3    H148831   1.147   2.702   6.726  0.4000 -0.6561  0.3600
 8212TIP3    H248832   1.039   2.790   6.783  0.9778 -0.1074  0.6244
 8213TIP3   OH248833   0.117   4.482   8.763  0.2992 -0.1130 -0.4762
 8213TIP3    H148834   0.062   4.556   8.787 -0.1478 -0.8070  0.7393
 8213TIP3    H248835   0.162   4.458   8.844  2.3175  0.3314 -1.3953
 8214TIP3   OH248836   1.448   2.917   5.959 -0.0965  0.5185 -0.5445
 8214TIP3    H148837   1.387   2.936   5.888 -1.1829  0.6531  0.3840
 8214TIP3    H248838   1.485   3.002   5.982  1.3276  0.2843 -1.8514
 8215TIP3   OH248839   6.476   3.550   7.797  0.0685 -0.2048 -0.5547
 8215TIP3    H148840   6.536   3.623   7.783  0.0692 -0.2218 -0.6417
 8215TIP3    H248841   6.533   3.473   7.798 -0.1659 -0.4939 -3.0168
 8216TIP3   OH248842   6.121   1.067   7.436 -0.4542 -0.0316 -0.2698
 8216TIP3    H148843   6.174   1.132   7.390  0.4905 -0.3309  0.3748
 8216TIP3    H248844   6.089   1.009   7.367  0.0793  0.1393 -0.6676
 8217TIP3   OH248845   1.290   1.959   8.701 -0.3347 -0.0597 -0.4365
 8217TIP3    H148846   1.311   2.024   8.768 -1.7455  0.9747 -0.9439
 8217TIP3    H248847   1.361   1.968   8.637  0.4904 -0.3640  0.4191
 8218TIP3   OH248848   0.576   1.940   6.710  0.1634  0.2376 -0.3590
 8218TIP3    H148849   0.649   2.002   6.711 -0.3582  0.8618  1.0189
 8218TIP3    H248850   0.613   1.859   6.744  0.1762  0.6244  0.5759
 8219TIP3   OH248851   1.384   5.395   7.959 -0.8701  0.0515 -0.2844
 8219TIP3    H148852   1.359   5.481   7.991 -1.6575 -0.5060  0.6544
 8219TIP3    H248853   1.334   5.383   7.878 -1.6674 -0.0028  0.2124
 8220TIP3   OH248854   0.455   1.055   7.392 -0.4702  0.1759 -0.1308
 8220TIP3    H148855   0.367   1.047   7.354 -1.5777 -1.1610  2.4390
 8220TIP3    H248856   0.495   0.969   7.378 -0.4529  0.0516  0.6048
 8221TIP3   OH248857   3.564   4.403   6.773 -0.3316  0.1355  0.5499
 8221TIP3    H148858   3.579   4.464   6.701 -1.7402 -1.0811 -0.8333
 8221TIP3    H248859   3.615   4.326   6.751 -1.3149 -0.5140  0.4499
 8222TIP3   OH248860   6.655   6.409   6.362  0.0293  0.6490  0.3831
 8222TIP3    H148861   6.585   6.460   6.405 -0.2337  1.5207 -1.0160
 8222TIP3    H248862   6.609   6.357   6.297  0.2416 -1.8098  2.0796
 8223TIP3   OH248863   2.933   6.125   6.734 -0.0724 -0.4395  0.4212
 8223TIP3    H148864   2.849   6.130   6.689  0.3566 -1.2890 -0.5248
 8223TIP3    H248865   2.940   6.208   6.781 -1.2932 -0.2324  0.2647
 8224TIP3   OH248866   2.302   4.568   5.573 -0.6025 -0.2818 -0.1948
 8224TIP3    H148867   2.305   4.475   5.549 -1.0169 -0.0046 -1.3993
 8224TIP3    H248868   2.211   4.594   5.559 -0.2273  0.6057 -1.1384
 8225TIP3   OH248869   6.677   2.738   5.523 -0.0844  0.0864  0.0509
 8225TIP3    H148870   6.601   2.770   5.572  0.0249 -0.2394  0.4383
 8225TIP3    H248871   6.640   2.689   5.450 -0.2498 -0.3039  0.3923
 8226TIP3   OH248872   1.550   3.499   8.458  0.1312  0.0016  0.3892
 8226TIP3    H148873   1.478   3.557   8.431  0.6219  0.8320  0.8164
 8226TIP3    H248874   1.608   3.556   8.508  0.4417 -0.9678  1.1437
 8227TIP3   OH248875   4.557   2.415   7.044  0.0391 -0.2385 -0.3231
 8227TIP3    H148876   4.599   2.339   7.004 -1.4025 -0.3211 -1.7882
 8227TIP3    H248877   4.619   2.445   7.111  1.6461 -1.3087 -1.2801
 8228TIP3   OH248878   2.609   0.998   6.955 -0.2947 -0.6275 -0.0914
 8228TIP3    H148879   2.625   0.999   7.050 -3.3669 -0.5006  0.5138
 8228TIP3    H248880   2.572   1.084   6.936 -0.5424 -0.9795 -1.2513
 8229TIP3   OH248881   0.585   6.484   8.109 -0.1482 -0.3255 -0.3657
 8229TIP3    H148882   0.676   6.472   8.079 -0.8534 -0.3886 -2.7298
 8229TIP3    H248883   0.578   6.429   8.187  1.5726 -1.1487 -0.7383
 8230TIP3   OH248884   1.718   3.210   9.154  0.2734  0.0617 -0.2329
 8230TIP3    H148885   1.812   3.194   9.158  0.0430 -1.9570 -1.3090
 8230TIP3    H248886   1.685   3.177   9.237  0.4146 -0.1573 -0.2625
 8231TIP3   OH248887   0.722   2.699   7.365 -0.0481  0.7458 -0.1980
 8231TIP3    H148888   0.729   2.619   7.313 -0.7153  1.4047 -1.3500
 8231TIP3    H248889   0.754   2.769   7.308 -0.2211  1.4134  0.4959
 8232TIP3   OH248890   0.233   1.339   6.524  0.3060 -0.0431 -0.4348
 8232TIP3    H148891   0.294   1.331   6.598  0.0293  2.4121  0.1482
 8232TIP3    H248892   0.289   1.357   6.449  0.5399 -1.8932 -0.7484
 8233TIP3   OH248893   2.958   4.800   5.529  0.0489 -0.1876  0.1139
 8233TIP3    H148894   2.967   4.706   5.545 -2.0995 -0.5905 -0.7583
 8233TIP3    H248895   2.922   4.806   5.440 -0.5767  1.4155  0.4423
 8234TIP3   OH248896   4.716   1.704   7.811 -0.3765  0.2882 -0.3473
 8234TIP3    H148897   4.626   1.731   7.826 -0.7253 -1.8412  2.0552
 8234TIP3    H248898   4.714   1.660   7.725 -1.9237 -0.7875  0.2070
 8235TIP3   OH248899   2.034   1.832   5.898  0.3002  0.2446 -0.1928
 8235TIP3    H148900   2.091   1.755   5.907  0.7734  0.4107 -1.5492
 8235TIP3    H248901   2.094   1.906   5.900 -0.3252  0.8287  3.4085
 8236TIP3   OH248902   4.475   4.418   7.265 -0.2235 -0.0299 -0.0580
 8236TIP3    H148903   4.410   4.348   7.277 -0.5578  0.2709 -0.0960
 8236TIP3    H248904   4.557   4.380   7.297 -0.4404 -0.3720  0.1027
 8237TIP3   OH248905   0.011   1.204   7.388  0.5204  0.1747  0.3666
 8237TIP3    H148906  -0.065   1.179   7.336  0.1568 -0.8681  1.3393
 8237TIP3    H248907   0.081   1.147   7.357  0.9466  1.1756 -0.5696
 8238TIP3   OH248908   2.178   3.351   7.131 -0.2581  0.6343 -0.1423
 8238TIP3    H148909   2.221   3.437   7.130 -1.6330  1.4082 -2.7088
 8238TIP3    H248910   2.231   3.296   7.075 -0.8807  0.6773 -0.7928
 8239TIP3   OH248911   3.678   4.757   7.014 -0.3582 -0.0492  0.3301
 8239TIP3    H148912   3.597   4.788   6.972 -0.5889  3.0218  2.7554
 8239TIP3    H248913   3.651   4.679   7.062 -0.3870 -2.8285 -3.6531
 8240TIP3   OH248914   4.018   2.564   7.404 -0.4477  0.1176 -0.6020
 8240TIP3    H148915   4.011   2.516   7.321 -0.9367 -1.0604  0.0878
 8240TIP3    H248916   4.068   2.505   7.461  1.6643  1.7616 -0.6479
 8241TIP3   OH248917   1.686   1.540   6.598  0.0020  0.3303  0.1261
 8241TIP3    H148918   1.660   1.577   6.513 -1.3557  1.4018  0.9657
 8241TIP3    H248919   1.744   1.607   6.636 -0.2534  0.3482  0.4895
 8242TIP3   OH248920   1.217   0.186   7.154 -0.1624  0.0458 -0.1241
 8242TIP3    H148921   1.301   0.146   7.177 -0.0669  0.9786  1.2586
 8242TIP3    H248922   1.152   0.131   7.198 -0.0939  0.7978  0.9463
 8243TIP3   OH248923   1.933   1.598   6.949  0.6492  0.2317  0.4736
 8243TIP3    H148924   2.013   1.595   7.002  0.3354  1.2686  1.0295
 8243TIP3    H248925   1.964   1.608   6.859  1.1646  3.0665  0.8739
 8244TIP3   OH248926   2.964   3.770   6.644  0.0550 -0.3461 -0.2894
 8244TIP3    H148927   2.960   3.809   6.731  1.3074 -1.2471  0.2146
 8244TIP3    H248928   3.048   3.724   6.643 -1.5601 -3.5632 -0.5915
 8245TIP3   OH248929   2.229   5.803   6.758  0.0207  0.5529 -0.4143
 8245TIP3    H148930   2.284   5.748   6.702  0.3106 -0.5014  0.8371
 8245TIP3    H248931   2.244   5.769   6.846 -0.5137  2.0790  0.2975
 8246TIP3   OH248932   5.261   3.494   7.336 -0.0572  0.8028  0.0598
 8246TIP3    H148933   5.235   3.512   7.246  1.3213 -0.6810 -0.6887
 8246TIP3    H248934   5.348   3.455   7.329 -1.3015 -2.7141  1.6874
 8247TIP3   OH248935   2.554   2.488   7.226  0.7805 -0.0905  0.4588
 8247TIP3    H148936   2.556   2.416   7.163  1.5491  0.8254 -0.6415
 8247TIP3    H248937   2.573   2.448   7.310  0.5611 -1.2542 -0.0304
 8248TIP3   OH248938   5.602   4.010   6.076 -0.5372 -0.0701  0.3055
 8248TIP3    H148939   5.617   4.094   6.032 -1.4067  0.9870  1.9234
 8248TIP3    H248940   5.674   4.003   6.139 -0.4207 -0.6015  0.1221
 8249TIP3   OH248941   2.545   0.971   5.699  0.7109  0.2425  0.1781
 8249TIP3    H148942   2.613   1.037   5.685 -0.4367  1.6504  1.0946
 8249TIP3    H248943   2.559   0.908   5.628  1.5308  1.7002 -1.0150
 8250TIP3   OH248944   3.403   5.741   6.801 -0.0484 -0.1423  0.1645
 8250TIP3    H148945   3.423   5.828   6.766 -0.0814 -0.1573  0.1091
 8250TIP3    H248946   3.418   5.681   6.728  0.9731 -0.3005  0.4923
 8251TIP3   OH248947   2.713   4.540   5.305  0.2301  0.0030 -0.6881
 8251TIP3    H148948   2.776   4.471   5.324  0.3534  0.0385 -0.9691
 8251TIP3    H248949   2.628   4.504   5.330  0.2910 -0.2582 -0.8674
 8252TIP3   OH248950   3.047   2.023   5.491 -0.0019 -0.4750 -0.0737
 8252TIP3    H148951   2.999   1.940   5.495  0.2894 -0.7118 -1.2387
 8252TIP3    H248952   3.132   2.003   5.531  0.1285 -0.7789 -0.5073
 8253TIP3   OH248953   2.125   0.470   8.175  0.2130 -0.3211 -0.0459
 8253TIP3    H148954   2.175   0.520   8.111 -0.4974 -1.2864 -1.3918
 8253TIP3    H248955   2.093   0.536   8.237  0.0333  0.7923 -1.2881
 8254TIP3   OH248956   0.834   6.166   6.746  0.4299 -0.7352  0.6036
 8254TIP3    H148957   0.888   6.205   6.816  2.8173 -2.3504 -0.2186
 8254TIP3    H248958   0.852   6.220   6.669 -0.9183  0.0328  0.7822
 8255TIP3   OH248959   1.628   4.785   5.767 -0.4452  0.1638  0.3232
 8255TIP3    H148960   1.599   4.694   5.767  1.0288 -0.3799 -1.5938
 8255TIP3    H248961   1.667   4.798   5.854  0.0549 -1.2971  0.3358
 8256TIP3   OH248962   2.444   4.859   8.192  0.2483  0.3476  0.0650
 8256TIP3    H148963   2.472   4.769   8.206  0.4192  0.0844 -1.6657
 8256TIP3    H248964   2.402   4.885   8.274  0.8907 -1.0325  0.8584
 8257TIP3   OH248965   1.610   5.839   8.301 -0.1759  0.5841 -0.0975
 8257TIP3    H148966   1.581   5.849   8.210  0.5047  1.5798 -0.2193
 8257TIP3    H248967   1.629   5.928   8.330 -1.4438  0.4271  1.3989
 8258TIP3   OH248968   0.604   1.089   6.957  0.2479 -0.4730 -0.5695
 8258TIP3    H148969   0.585   1.002   6.921  2.4386 -1.0641 -0.4621
 8258TIP3    H248970   0.571   1.150   6.892  0.2125 -1.4305 -1.4726
 8259TIP3   OH248971   6.611   3.173   6.354  0.2502  0.8567  0.0250
 8259TIP3    H148972   6.585   3.253   6.399  0.1761  0.6003  0.4337
 8259TIP3    H248973   6.694   3.196   6.311 -0.3214  1.4855 -0.7739
 8260TIP3   OH248974   3.048   2.313   7.114 -0.1355  0.7006  0.4342
 8260TIP3    H148975   3.036   2.269   7.198  0.1420  0.7654  0.5091
 8260TIP3    H248976   2.966   2.299   7.068  0.6422 -1.7745 -0.4013
 8261TIP3   OH248977   2.820   0.934   7.596 -0.4591  0.2445  0.4626
 8261TIP3    H148978   2.855   0.849   7.570  1.1365  1.4723 -1.8057
 8261TIP3    H248979   2.886   0.970   7.655 -0.3799  0.5041  0.2189
 8262TIP3   OH248980   0.798   0.165   8.430 -0.5238  0.1239 -0.2642
 8262TIP3    H148981   0.866   0.191   8.368  0.2853 -2.3528 -0.5220
 8262TIP3    H248982   0.733   0.120   8.376 -1.0924  0.2192  0.3336
 8263TIP3   OH248983   1.035   0.430   6.800  0.0582 -0.0079  0.0801
 8263TIP3    H148984   1.000   0.401   6.716  0.5352 -0.3791  0.0045
 8263TIP3    H248985   1.124   0.396   6.802 -0.9043 -2.7466  2.0879
 8264TIP3   OH248986   4.792   4.706   6.326  0.0869 -1.2996 -0.0500
 8264TIP3    H148987   4.755   4.771   6.385  0.8757 -1.0024  0.1317
 8264TIP3    H248988   4.875   4.680   6.368  0.6836 -1.0436 -1.0325
 8265TIP3   OH248989   5.486   2.127   8.131 -0.1375  0.0972  0.9533
 8265TIP3    H148990   5.538   2.157   8.057  0.7995 -1.5782  0.8789
 8265TIP3    H248991   5.549   2.083   8.188 -1.4914 -2.5396  0.5728
 8266TIP3   OH248992   5.778   3.358   7.669  0.0700 -0.0296  0.3257
 8266TIP3    H148993   5.729   3.439   7.684 -0.2623 -0.1541 -0.0742
 8266TIP3    H248994   5.762   3.306   7.747  0.7445  0.5103  0.8454
 8267TIP3   OH248995   4.501   4.740   6.239  0.1694  0.1630  0.4285
 8267TIP3    H148996   4.468   4.830   6.237  2.0913  1.0588  3.1915
 8267TIP3    H248997   4.594   4.749   6.259  0.4154 -2.4533  0.7942
 8268TIP3   OH248998   1.412   4.994   5.787 -0.1602  0.2453 -0.4893
 8268TIP3    H148999   1.484   4.932   5.781 -0.9428 -0.6008 -1.3712
 8268TIP3    H249000   1.395   5.020   5.696 -0.4166  1.0804 -0.2110
 8269TIP3   OH249001   3.905   0.991   6.515 -0.0049 -0.0148  1.3183
 8269TIP3    H149002   3.987   0.988   6.564  0.4912 -1.4381  0.4719
 8269TIP3    H249003   3.929   1.032   6.431 -0.3109  0.1724  1.3192
 8270TIP3   OH249004   0.344   5.668   8.021 -0.0574  0.0655  0.2424
 8270TIP3    H149005   0.302   5.599   8.071  0.6948 -1.6737 -1.4207
 8270TIP3    H249006   0.437   5.658   8.040  0.0550  0.7039  0.0610
 8271TIP3   OH249007   1.655   2.800   6.585 -0.4410  0.0375  0.0116
 8271TIP3    H149008   1.747   2.827   6.591 -0.5133  0.3848 -0.4543
 8271TIP3    H249009   1.650   2.751   6.503 -0.9157  0.9699 -0.5253
 8272TIP3   OH249010   4.511   0.876   5.873  0.3518  0.2225  0.0500
 8272TIP3    H149011   4.559   0.865   5.955  2.1504 -1.1957 -1.1135
 8272TIP3    H249012   4.578   0.874   5.805 -1.1228  0.9437 -1.5125
 8273TIP3   OH249013   2.188   4.051   7.626 -0.3199 -0.0564 -0.6377
 8273TIP3    H149014   2.283   4.058   7.618 -0.0423 -0.7681  1.4291
 8273TIP3    H249015   2.167   3.963   7.593  0.0887 -0.8097  0.9818
 8274TIP3   OH249016   0.157   3.138   7.843 -0.0794  0.1440  0.2654
 8274TIP3    H149017   0.249   3.144   7.865 -0.0918  1.2799  0.0802
 8274TIP3    H249018   0.127   3.056   7.882  0.4550  0.9028  2.3551
 8275TIP3   OH249019   0.296   2.268   9.039 -0.1549 -0.2995  0.3522
 8275TIP3    H149020   0.336   2.258   8.952 -0.5916  0.5098  0.0455
 8275TIP3    H249021   0.311   2.359   9.062 -1.0006 -0.2256  0.6391
 8276TIP3   OH249022   5.529   1.006   6.713  0.0266 -0.5954  0.0682
 8276TIP3    H149023   5.535   0.913   6.692 -0.1087 -0.5612 -0.1311
 8276TIP3    H249024   5.467   1.011   6.785  0.4138 -0.7068  0.4097
 8277TIP3   OH249025   6.126   3.436   6.733  0.0103  0.5874  0.0072
 8277TIP3    H149026   6.065   3.363   6.745 -1.2393  1.5440 -0.2982
 8277TIP3    H249027   6.073   3.506   6.695  1.5979  1.0098 -1.5893
 8278TIP3   OH249028   2.252   0.148   6.980 -0.1504 -0.5210  0.0751
 8278TIP3    H149029   2.162   0.167   7.008  0.2990  1.1428  0.4828
 8278TIP3    H249030   2.277   0.071   7.031 -1.3204 -1.0032 -0.0282
 8279TIP3   OH249031   4.267   0.893   7.791 -0.1238 -0.2035 -0.7348
 8279TIP3    H149032   4.330   0.948   7.838 -0.2238 -1.8223  1.4738
 8279TIP3    H249033   4.321   0.821   7.756 -0.3503 -0.0719 -1.3590
 8280TIP3   OH249034   3.551   5.384   6.215  0.3096 -0.5392  0.6343
 8280TIP3    H149035   3.582   5.332   6.288 -0.4576 -0.3772  1.0866
 8280TIP3    H249036   3.480   5.437   6.251  0.6770  0.3949  0.0503
 8281TIP3   OH249037   0.677   4.915   6.209  0.1733 -0.0946  0.3549
 8281TIP3    H149038   0.748   4.974   6.184 -0.7551  0.8416 -0.1319
 8281TIP3    H249039   0.614   4.921   6.138  0.3547 -2.2486 -0.0728
 8282TIP3   OH249040   2.237   3.093   6.856 -0.6340 -0.1007 -0.5320
 8282TIP3    H149041   2.238   3.098   6.761 -1.2502 -1.3897 -0.6302
 8282TIP3    H249042   2.256   3.182   6.885 -0.0322  0.2275 -1.8467
 8283TIP3   OH249043   1.729   2.569   5.528  0.1175  0.1906  0.1663
 8283TIP3    H149044   1.654   2.625   5.508  0.1287  0.5318  1.0172
 8283TIP3    H249045   1.794   2.629   5.565  0.2364 -0.3355  0.8346
 8284TIP3   OH249046   6.711   3.897   5.845  0.0854 -0.3698  0.1325
 8284TIP3    H149047   6.645   3.911   5.913  1.4609 -1.3705  1.7701
 8284TIP3    H249048   6.664   3.912   5.763 -1.6760  0.8126  1.2677
 8285TIP3   OH249049   5.576   2.296   6.124 -0.2534 -0.1552 -0.1656
 8285TIP3    H149050   5.599   2.358   6.193 -0.0900  0.0625 -0.4150
 8285TIP3    H249051   5.493   2.328   6.089 -0.5116 -0.4622  0.1637
 8286TIP3   OH249052   2.175   0.118   8.591 -0.4749 -0.8712  0.0263
 8286TIP3    H149053   2.133   0.032   8.595 -1.6494 -0.2857  0.9756
 8286TIP3    H249054   2.204   0.134   8.681  0.8214 -0.7736 -0.3866
 8287TIP3   OH249055   1.372   3.376   6.498 -0.0322 -0.2430  0.4342
 8287TIP3    H149056   1.313   3.432   6.549 -0.4951  1.0992 -1.4647
 8287TIP3    H249057   1.460   3.401   6.528 -0.3077 -0.3531  1.3943
 8288TIP3   OH249058   6.232   1.261   7.290  0.2154 -0.3666  0.2753
 8288TIP3    H149059   6.163   1.327   7.283  1.0145  0.6519  1.4244
 8288TIP3    H249060   6.310   1.311   7.315  0.5034 -1.8934  2.7898
 8289TIP3   OH249061   4.976   1.312   7.335 -0.0438 -0.2507 -0.0485
 8289TIP3    H149062   5.067   1.314   7.304  0.2922  0.2703  0.9086
 8289TIP3    H249063   4.979   1.359   7.419 -1.6740  2.1025 -1.2075
 8290TIP3   OH249064   2.349   4.013   7.350 -0.2603  0.5201  0.2653
 8290TIP3    H149065   2.336   3.982   7.260 -1.3232  2.8541 -0.4593
 8290TIP3    H249066   2.306   4.098   7.352  1.2303  1.2949  2.5400
 8291TIP3   OH249067   6.411   3.617   8.726 -0.7361 -0.4931 -0.2246
 8291TIP3    H149068   6.318   3.599   8.740 -1.1917  1.0457 -1.0598
 8291TIP3    H249069   6.414   3.706   8.692  1.0168 -0.6716 -0.6668
 8292TIP3   OH249070   4.658   3.413   6.084 -0.3583 -0.6723 -0.0037
 8292TIP3    H149071   4.701   3.339   6.044 -0.7073 -0.6031 -0.5146
 8292TIP3    H249072   4.616   3.377   6.162  0.5284 -0.7561  0.4471
 8293TIP3   OH249073   1.383   4.321   7.592 -0.4549  0.4746  0.5337
 8293TIP3    H149074   1.373   4.319   7.687  2.0822 -0.2445  0.8434
 8293TIP3    H249075   1.397   4.414   7.571  0.0759  0.5053  1.0072
 8294TIP3   OH249076   5.579   2.708   7.314 -0.1502  0.1875  0.8991
 8294TIP3    H149077   5.635   2.682   7.388  1.5009  0.3358 -0.2318
 8294TIP3    H249078   5.530   2.784   7.347  1.7442  1.2739  1.3867
 8295TIP3   OH249079   5.193   0.532   5.605  0.3613  0.2262 -0.1317
 8295TIP3    H149080   5.260   0.595   5.632 -0.4043  1.2590 -0.5891
 8295TIP3    H249081   5.125   0.539   5.672  0.6511 -0.7527  0.2828
 8296TIP3   OH249082   6.364   6.374   7.736  0.5215  0.5608  0.0081
 8296TIP3    H149083   6.278   6.370   7.779 -0.1126 -0.8642 -1.2895
 8296TIP3    H249084   6.344   6.363   7.643  2.2849 -3.0040 -0.0972
 8297TIP3   OH249085   5.218   3.493   7.063 -0.2545 -0.0536 -0.3977
 8297TIP3    H149086   5.200   3.399   7.066  1.0313 -0.3002  2.0324
 8297TIP3    H249087   5.305   3.500   7.026 -0.5849  0.2526 -1.1394
 8298TIP3   OH249088   5.641   0.150   9.250 -0.1585 -0.8364  0.0646
 8298TIP3    H149089   5.555   0.155   9.208 -0.5533 -1.2608  0.8072
 8298TIP3    H249090   5.676   0.239   9.243 -0.7567 -0.6066 -0.0262
 8299TIP3   OH249091   5.899   4.323   6.749  0.3283  0.2969  0.0352
 8299TIP3    H149092   5.816   4.337   6.796  0.8247  3.1128  0.2652
 8299TIP3    H249093   5.939   4.248   6.793 -2.6011 -2.0409 -0.9443
 8300TIP3   OH249094   5.496   4.525   8.167  0.1265 -0.3847  0.0842
 8300TIP3    H149095   5.521   4.552   8.255  2.9768  0.1246 -0.7750
 8300TIP3    H249096   5.457   4.438   8.178 -0.5428  0.0983  1.8991
 8301TIP3   OH249097   2.028   2.555   5.911 -0.0740 -0.3658 -0.2717
 8301TIP3    H149098   1.990   2.468   5.916  1.1600 -0.8507  3.1193
 8301TIP3    H249099   2.122   2.540   5.903  0.1075  0.6479 -0.1684
 8302TIP3   OH249100   1.393   0.129   8.499 -0.3313  0.1816  0.2695
 8302TIP3    H149101   1.333   0.196   8.533 -0.9043  0.2649 -0.8498
 8302TIP3    H249102   1.372   0.051   8.550 -1.1530  0.3079  0.1498
 8303TIP3   OH249103   4.249   1.854   5.812  0.5892 -0.1720 -0.1554
 8303TIP3    H149104   4.159   1.841   5.781  0.0004  0.8035  1.0446
 8303TIP3    H249105   4.256   1.949   5.827  1.5404 -0.3382  0.5803
 8304TIP3   OH249106   6.041   2.010   7.833 -0.0028  0.4695 -0.6860
 8304TIP3    H149107   6.079   2.098   7.843  0.2338  0.1471  1.7126
 8304TIP3    H249108   5.954   2.017   7.872 -1.1357  0.2747 -2.9726
 8305TIP3   OH249109   6.217   6.156   5.741 -0.6592  0.0338  0.3746
 8305TIP3    H149110   6.300   6.197   5.766 -0.1001 -1.5622  1.3353
 8305TIP3    H249111   6.187   6.206   5.665  0.9387  0.9526  0.2961
 8306TIP3   OH249112   3.595   0.318   6.980  0.5559  0.4848 -0.5061
 8306TIP3    H149113   3.657   0.331   7.052 -2.0953 -0.4980  2.1349
 8306TIP3    H249114   3.611   0.228   6.952 -1.2799 -0.7828  2.0543
 8307TIP3   OH249115   6.211   6.339   8.198 -0.1493 -0.0659 -0.3794
 8307TIP3    H149116   6.248   6.411   8.250 -2.0560  0.6602  0.0518
 8307TIP3    H249117   6.206   6.373   8.109  1.4981 -0.6933 -0.7524
 8308TIP3   OH249118   6.038   0.718   7.889 -0.2535 -0.1571 -0.1820
 8308TIP3    H149119   6.058   0.657   7.960  0.5982  0.4545  0.1169
 8308TIP3    H249120   5.944   0.736   7.900  0.5050  3.1063  3.4826
 8309TIP3   OH249121   0.113   5.281   5.933  0.3108 -0.2907  0.1426
 8309TIP3    H149122   0.121   5.256   6.025  0.9737 -0.2769  0.0941
 8309TIP3    H249123   0.199   5.260   5.895  0.3532  0.5635 -0.2594
 8310TIP3   OH249124   4.132   3.802   9.161  0.0007 -0.1671 -0.3895
 8310TIP3    H149125   4.104   3.752   9.237  0.1858  1.9417  1.1770
 8310TIP3    H249126   4.054   3.849   9.133  0.8529  2.6948  1.5497
 8311TIP3   OH249127   5.979   2.384   5.701  0.3019 -0.6746  0.0240
 8311TIP3    H149128   5.903   2.366   5.756  0.6131 -0.7386  0.4342
 8311TIP3    H249129   5.957   2.343   5.617 -0.1419 -0.6390  0.1200
 8312TIP3   OH249130   0.970   1.784   8.867 -0.0207  0.5151 -0.0755
 8312TIP3    H149131   0.904   1.852   8.852  1.5149  1.9613 -0.6362
 8312TIP3    H249132   1.029   1.822   8.933  0.1299 -0.8429  0.6002
 8313TIP3   OH249133   6.170   4.299   7.537  0.7547  0.3994 -0.8067
 8313TIP3    H149134   6.137   4.381   7.573 -0.7428 -0.8471  0.8279
 8313TIP3    H249135   6.242   4.274   7.596  0.2770 -0.1548 -0.4513
 8314TIP3   OH249136   2.731   2.681   7.084 -0.0875  0.0350  1.0447
 8314TIP3    H149137   2.788   2.630   7.026 -1.1860  0.5480 -0.5625
 8314TIP3    H249138   2.674   2.616   7.124 -1.5033 -0.0736 -1.0185
 8315TIP3   OH249139   3.760   2.570   8.174  0.1377 -0.0191 -0.7464
 8315TIP3    H149140   3.755   2.663   8.196 -1.0590 -0.5198  1.5158
 8315TIP3    H249141   3.738   2.566   8.081 -2.5312  1.7976 -0.3335
 8316TIP3   OH249142   0.301   4.973   7.165  0.6823 -0.1836 -0.5916
 8316TIP3    H149143   0.272   5.061   7.190  0.0745 -0.3213 -0.7865
 8316TIP3    H249144   0.396   4.976   7.175  0.7971  0.8457 -1.6847
 8317TIP3   OH249145   6.459   3.237   7.111 -0.3993  0.4531 -0.2864
 8317TIP3    H149146   6.430   3.297   7.042  3.0310  1.6764 -0.8671
 8317TIP3    H249147   6.505   3.294   7.174  0.3480 -1.1936  0.7216
 8318TIP3   OH249148   3.275   0.332   7.180 -0.7393 -0.1709 -0.1070
 8318TIP3    H149149   3.271   0.238   7.161  0.2463  0.1067 -1.8602
 8318TIP3    H249150   3.327   0.369   7.109 -2.9969  2.0469 -0.7658
 8319TIP3   OH249151   0.400   2.879   7.757 -0.4539  0.2440  0.1670
 8319TIP3    H149152   0.311   2.860   7.728  0.2940 -0.4114 -1.8465
 8319TIP3    H249153   0.403   2.849   7.848 -1.7407 -1.4881 -0.3301
 8320TIP3   OH249154   3.784   2.728   7.223  0.1660  0.0963 -0.1156
 8320TIP3    H149155   3.728   2.665   7.267  0.9054  0.8149  1.9712
 8320TIP3    H249156   3.787   2.698   7.132 -2.5895 -0.6368 -0.0467
 8321TIP3   OH249157   4.684   1.471   8.314 -0.2515 -0.0694 -0.6636
 8321TIP3    H149158   4.647   1.527   8.382 -1.6052 -1.2316 -0.4119
 8321TIP3    H249159   4.727   1.400   8.361 -1.3118 -0.9533 -0.9941
 8322TIP3   OH249160   1.843   0.765   9.011  0.1043  0.0268 -0.5596
 8322TIP3    H149161   1.770   0.808   9.056  0.5970  1.4550 -1.0710
 8322TIP3    H249162   1.819   0.672   9.010 -1.1079  0.3031  0.3799
 8323TIP3   OH249163   0.868   5.002   8.431  0.5487  0.0018 -0.3790
 8323TIP3    H149164   0.872   5.094   8.406 -0.7265 -0.0747 -0.9257
 8323TIP3    H249165   0.849   4.956   8.349  0.8629 -0.7225 -0.0541
 8324TIP3   OH249166   5.745   0.327   7.583 -0.5273  0.3937 -0.8514
 8324TIP3    H149167   5.685   0.310   7.510 -0.6527 -0.0111 -0.6549
 8324TIP3    H249168   5.832   0.318   7.546 -0.5878  0.5824 -1.0432
 8325TIP3   OH249169   5.751   1.054   5.828  0.1375 -0.4663 -0.4317
 8325TIP3    H149170   5.801   1.135   5.821  0.5314 -0.7612 -1.0791
 8325TIP3    H249171   5.802   0.989   5.780  0.5611 -1.4707  1.2882
 8326TIP3   OH249172   5.186   3.998   8.674  0.2301 -0.1489 -0.1900
 8326TIP3    H149173   5.259   4.036   8.624  1.3254 -1.0469  0.6710
 8326TIP3    H249174   5.228   3.951   8.746 -1.2283 -0.4457  0.5112
 8327TIP3   OH249175   0.910   0.122   6.791 -0.4201 -0.5841  0.2531
 8327TIP3    H149176   0.975   0.145   6.725  0.2953  0.8333  1.3921
 8327TIP3    H249177   0.851   0.061   6.747 -1.3290  1.9893 -2.4551
 8328TIP3   OH249178   0.109   0.648   6.254 -0.0904  0.3088  0.0588
 8328TIP3    H149179   0.189   0.597   6.264  0.5103  1.2092 -0.0592
 8328TIP3    H249180   0.138   0.739   6.254 -1.0524  0.6359 -0.5297
 8329TIP3   OH249181   6.198   2.087   7.584  0.2768  0.2063  0.3606
 8329TIP3    H149182   6.284   2.051   7.607  0.5030  1.1406  1.0329
 8329TIP3    H249183   6.136   2.037   7.637 -0.1513 -3.3705 -3.0358
 8330TIP3   OH249184   1.342   1.323   6.139 -0.0356 -0.0114 -0.6030
 8330TIP3    H149185   1.296   1.340   6.221 -2.1960 -0.6103 -1.5975
 8330TIP3    H249186   1.284   1.264   6.091  0.6975  1.0155 -2.9277
 8331TIP3   OH249187   4.500   1.713   5.903  0.3874  0.2090 -0.1273
 8331TIP3    H149188   4.426   1.763   5.870  1.1607  1.7994  0.4515
 8331TIP3    H249189   4.554   1.694   5.826  0.1678  0.4013 -0.3265
 8332TIP3   OH249190   5.159   1.849   6.983 -0.4106 -0.2590 -0.4001
 8332TIP3    H149191   5.161   1.866   7.077  0.3660 -1.2860 -0.2167
 8332TIP3    H249192   5.246   1.815   6.962 -0.4271  0.3644 -1.5764
 8333TIP3   OH249193   0.610   1.258   7.177  0.2446 -0.8056 -0.0860
 8333TIP3    H149194   0.603   1.196   7.104 -1.4123 -0.2685 -0.4122
 8333TIP3    H249195   0.632   1.342   7.135  1.7619 -0.9739  0.2918
 8334TIP3   OH249196   1.262   2.963   6.403  0.7865  0.6845 -0.0457
 8334TIP3    H149197   1.212   3.011   6.469  0.1993 -0.6075  0.4960
 8334TIP3    H249198   1.316   2.902   6.453  0.4145 -0.2377 -0.7439
 8335TIP3   OH249199   1.576   6.578   7.995 -0.2934 -0.7328  0.1425
 8335TIP3    H149200   1.611   6.604   8.080  1.1404 -2.2251  0.0597
 8335TIP3    H249201   1.642   6.519   7.959 -0.1787  0.8641 -2.6124
 8336TIP3   OH249202   1.486   0.154  13.719  0.3254 -0.5718 -0.1712
 8336TIP3    H149203   1.508   0.179  13.809  0.5171 -0.0750 -0.3506
 8336TIP3    H249204   1.480   0.059  13.721  0.7554 -0.5931  0.2737
 8337TIP3   OH249205   5.842   0.533   5.756 -0.5013  0.0788  0.1738
 8337TIP3    H149206   5.876   0.458   5.805  1.6093  1.7106  1.4331
 8337TIP3    H249207   5.890   0.532   5.674 -2.8649 -1.7254 -1.3072
 8338TIP3   OH249208   1.958   4.026   7.113  0.2021 -0.0324  0.1198
 8338TIP3    H149209   2.002   4.055   7.033 -3.0391  1.1588 -1.4149
 8338TIP3    H249210   1.981   3.933   7.121  0.5354 -0.2230 -2.2646
 8339TIP3   OH249211   1.816   5.389   5.738  0.8165  0.4485  0.0471
 8339TIP3    H149212   1.813   5.295   5.721 -1.6388  0.1725  1.5251
 8339TIP3    H249213   1.892   5.401   5.795 -0.0633 -1.0212  1.6139
 8340TIP3   OH249214   2.580   4.153   8.388  0.4049  0.0080 -0.5645
 8340TIP3    H149215   2.508   4.161   8.451  0.6031  0.5992 -0.4093
 8340TIP3    H249216   2.655   4.193   8.432  1.3353 -2.1778  0.0307
 8341TIP3   OH249217   2.318   3.822   5.784  0.3695  0.7792  0.1661
 8341TIP3    H149218   2.391   3.880   5.764  1.3146 -0.7661 -1.0861
 8341TIP3    H249219   2.240   3.871   5.758  1.1951  1.2142 -1.6160
 8342TIP3   OH249220   5.882   6.354   8.205  0.1242 -0.1195 -0.1229
 8342TIP3    H149221   5.924   6.410   8.271  0.9012 -0.6892 -0.1220
 8342TIP3    H249222   5.866   6.413   8.131 -1.6033  0.7504  0.8829
 8343TIP3   OH249223   1.059   0.971   6.720  0.5222  0.4168  0.1063
 8343TIP3    H149224   1.029   0.994   6.809  1.9702  0.5878  0.5704
 8343TIP3    H249225   1.088   0.880   6.728 -1.5181 -0.3626 -0.7858
 8344TIP3   OH249226   0.665   6.525   7.241 -0.3218  0.5540  0.1482
 8344TIP3    H149227   0.712   6.606   7.257  0.8226 -0.0391 -0.0982
 8344TIP3    H249228   0.635   6.531   7.150  0.5031  0.3483 -0.1429
 8345TIP3   OH249229   3.514   5.151   7.569 -0.0134 -0.2249 -0.5489
 8345TIP3    H149230   3.486   5.060   7.578  1.0608 -0.7073 -1.7994
 8345TIP3    H249231   3.590   5.159   7.626  0.1268 -0.2219 -0.7343
 8346TIP3   OH249232   2.330   3.373   5.968  0.0477 -0.3815 -0.3060
 8346TIP3    H149233   2.415   3.417   5.966 -0.0927 -0.1154 -0.6798
 8346TIP3    H249234   2.269   3.439   5.935  0.0894 -1.3715 -2.5419
 8347TIP3   OH249235   5.427   1.300   7.039  0.0164 -0.6466  0.0875
 8347TIP3    H149236   5.507   1.338   7.074  0.1900 -0.6543 -0.2976
 8347TIP3    H249237   5.423   1.331   6.948 -1.1993  0.6122  0.5290
 8348TIP3   OH249238   5.839   1.070  15.275 -0.2873 -0.0479  0.0850
 8348TIP3    H149239   5.865   1.009  15.344 -0.1921 -0.6532 -0.4698
 8348TIP3    H249240   5.860   1.024  15.194 -1.6930  0.0733 -0.3638
 8349TIP3   OH249241   3.628   0.984   5.994 -0.0694  0.1625  0.7361
 8349TIP3    H149242   3.580   0.932   5.930 -0.7197  0.4496  0.9810
 8349TIP3    H249243   3.561   1.040   6.034  0.3600  0.1098  1.5439
 8350TIP3   OH249244   1.970   4.276   6.003  0.4861 -0.0960  0.3997
 8350TIP3    H149245   1.979   4.371   6.003  1.8114 -0.1256 -2.2827
 8350TIP3    H249246   2.053   4.244   5.967 -0.4233 -2.1787 -0.0066
 8351TIP3   OH249247   4.636   3.926   8.010 -0.5399  0.5909 -0.1050
 8351TIP3    H149248   4.700   3.950   7.943  0.9882  1.0552  1.4454
 8351TIP3    H249249   4.625   4.005   8.062 -1.3740  0.1249  0.4472
 8352TIP3   OH249250   2.201   3.568   5.839 -0.2931 -0.4138  0.2221
 8352TIP3    H149251   2.115   3.580   5.798  0.7396 -0.5141 -2.1649
 8352TIP3    H249252   2.252   3.644   5.812  0.6488 -0.8160  0.7974
 8353TIP3   OH249253   6.674   1.191   8.013 -0.3921  0.5121 -0.2477
 8353TIP3    H149254   6.728   1.239   7.950 -0.1621  0.9832  0.3044
 8353TIP3    H249255   6.674   1.245   8.092  0.7637 -0.8946  0.7608
 8354TIP3   OH249256   6.151   3.835   7.136 -0.1639  0.3054 -0.1701
 8354TIP3    H149257   6.225   3.827   7.075 -0.4790 -0.4237 -0.4733
 8354TIP3    H249258   6.076   3.854   7.079 -0.3283  0.3736  0.0695
 8355TIP3   OH249259   0.697   3.919   7.377 -0.5209 -0.2291  0.7166
 8355TIP3    H149260   0.739   3.931   7.462  2.8209 -0.1769 -0.7735
 8355TIP3    H249261   0.738   3.985   7.321 -1.3792 -1.3367 -1.3185
 8356TIP3   OH249262   2.364   1.653   6.292  0.3541 -0.1664 -0.8395
 8356TIP3    H149263   2.426   1.633   6.222  1.2889  1.0628 -0.4050
 8356TIP3    H249264   2.308   1.722   6.255  0.0043 -0.4381 -0.8208
 8357TIP3   OH249265   1.282   1.633   8.725 -0.2267  0.0908  0.1612
 8357TIP3    H149266   1.263   1.727   8.727 -0.0850  0.1080  0.8097
 8357TIP3    H249267   1.353   1.621   8.788  1.4777 -0.0880 -1.6773
 8358TIP3   OH249268   0.075   1.744   8.096  0.0844  0.3586  0.2165
 8358TIP3    H149269   0.115   1.752   8.009 -1.0221  0.6121 -0.2790
 8358TIP3    H249270   0.092   1.653   8.122 -0.8205 -0.1431 -0.8954
 8359TIP3   OH249271   0.086   3.205   8.326  0.1806  0.1677 -0.1652
 8359TIP3    H149272   0.103   3.130   8.270  0.7151 -0.0261  0.2399
 8359TIP3    H249273   0.056   3.167   8.409 -2.4991  0.5042 -0.8923
 8360TIP3   OH249274   0.805   0.346   6.533  0.4140 -0.3515 -0.4664
 8360TIP3    H149275   0.790   0.339   6.439  2.0675 -0.1406 -0.7811
 8360TIP3    H249276   0.827   0.257   6.561  0.6297 -0.2902 -0.4323
 8361TIP3   OH249277   0.398   1.486   8.860  0.0848 -0.3668  0.4950
 8361TIP3    H149278   0.306   1.477   8.883 -0.0493  0.4237  0.2980
 8361TIP3    H249279   0.444   1.430   8.923 -0.6330 -2.1570 -0.4841
 8362TIP3   OH249280   6.180   2.653   6.707  0.0223 -0.1324  0.1708
 8362TIP3    H149281   6.239   2.691   6.773 -0.4792  1.4523 -0.2789
 8362TIP3    H249282   6.211   2.563   6.698  0.3469 -0.2986  2.2994
 8363TIP3   OH249283   2.334   5.632   5.876  0.3119  0.2496  0.3240
 8363TIP3    H149284   2.409   5.656   5.822 -0.4937  1.0999 -0.4526
 8363TIP3    H249285   2.259   5.639   5.817 -0.2715 -1.6994  0.7734
 8364TIP3   OH249286   5.740   5.820   6.571  0.7394  0.2464 -0.1352
 8364TIP3    H149287   5.772   5.867   6.494 -0.5997 -0.7914 -1.3760
 8364TIP3    H249288   5.672   5.876   6.607 -0.6984 -0.5662 -1.4794
 8365TIP3   OH249289   6.376   6.496   6.172 -0.1257 -0.1926 -0.6705
 8365TIP3    H149290   6.299   6.473   6.120 -0.0663  0.9699 -1.2928
 8365TIP3    H249291   6.432   6.418   6.167 -1.9554 -1.7632  1.2359
 8366TIP3   OH249292   4.898   2.188   7.162  0.3530  0.2641 -0.0285
 8366TIP3    H149293   4.914   2.095   7.173  0.1535  0.3585  1.2170
 8366TIP3    H249294   4.845   2.195   7.082  0.2210 -0.6985 -0.0277
 8367TIP3   OH249295   5.560   5.494   6.766  0.1905  0.3163 -0.0404
 8367TIP3    H149296   5.465   5.503   6.769  0.3428  2.1166  0.6868
 8367TIP3    H249297   5.593   5.573   6.809  2.0257  0.2336 -1.1768
 8368TIP3   OH249298   3.895   6.442   7.664 -0.9643  0.0097 -0.6073
 8368TIP3    H149299   3.866   6.388   7.590 -0.8311 -0.4172 -0.3552
 8368TIP3    H249300   3.826   6.506   7.676 -0.8849  0.2239 -1.2415
 8369TIP3   OH249301   2.516   6.214   5.987  0.4110  0.4917 -0.1358
 8369TIP3    H149302   2.556   6.280   6.043  2.3059 -0.0027 -0.8451
 8369TIP3    H249303   2.530   6.247   5.898 -0.1802 -0.0248 -0.4292
 8370TIP3   OH249304   1.435   5.193   8.679  0.2509  0.4322  0.2963
 8370TIP3    H149305   1.461   5.284   8.663 -1.5406  0.6473 -1.9392
 8370TIP3    H249306   1.442   5.152   8.593  1.6394 -1.7713  1.3828
 8371TIP3   OH249307   3.007   6.542   5.433 -0.2335  0.6074  0.1743
 8371TIP3    H149308   2.928   6.596   5.437  0.1274  1.2653 -0.9355
 8371TIP3    H249309   2.980   6.456   5.464 -0.8521  1.3834  1.8645
 8372TIP3   OH249310   4.712   3.929   6.896 -0.5320  0.5707 -0.3197
 8372TIP3    H149311   4.753   3.843   6.911 -1.6387  0.0215 -0.3765
 8372TIP3    H249312   4.658   3.917   6.818 -0.7274  1.3161 -0.3030
 8373TIP3   OH249313   4.075   3.708   5.808  0.0622  0.2680 -0.1440
 8373TIP3    H149314   4.038   3.620   5.815  1.4171 -0.4119 -1.0430
 8373TIP3    H249315   4.072   3.728   5.715  1.3307  0.4486 -0.1577
 8374TIP3   OH249316   2.042   4.554   6.036  0.1268  0.2582 -0.0344
 8374TIP3    H149317   2.039   4.599   6.120 -0.2279  0.3720 -0.1087
 8374TIP3    H249318   2.098   4.608   5.981 -0.8031  0.9410 -0.3205
 8375TIP3   OH249319   5.252   5.112   6.096 -0.0158  0.0321  0.2981
 8375TIP3    H149320   5.285   5.029   6.062 -0.1364  0.2844 -0.4469
 8375TIP3    H249321   5.329   5.155   6.134 -0.0669 -0.6833  1.2588
 8376TIP3   OH249322   6.441   0.586   5.440  0.3305 -0.5781  0.6785
 8376TIP3    H149323   6.360   0.595   5.490 -0.2027 -0.2728 -0.2210
 8376TIP3    H249324   6.427   0.508   5.386  0.6267 -0.5257  0.5242
 8377TIP3   OH249325   2.829   2.102   8.110 -0.0677 -0.3575 -0.0571
 8377TIP3    H149326   2.793   2.123   8.197  0.6049  0.2190  0.0856
 8377TIP3    H249327   2.857   2.186   8.075  0.6529 -0.7349 -0.3918
 8378TIP3   OH249328   1.370   0.562   7.645 -0.2777  0.2891  0.3170
 8378TIP3    H149329   1.285   0.518   7.652  0.4098 -1.2709 -0.7529
 8378TIP3    H249330   1.390   0.588   7.735 -0.7287 -1.5952  1.0148
 8379TIP3   OH249331   5.599   5.730   8.076  0.2308 -0.4041  0.3313
 8379TIP3    H149332   5.647   5.806   8.109  1.4933 -0.6034 -0.9732
 8379TIP3    H249333   5.508   5.749   8.097  0.7500  0.4143  2.0444
 8380TIP3   OH249334   0.429   0.647   8.393  0.1431 -0.3147  0.5412
 8380TIP3    H149335   0.489   0.712   8.431 -0.3070  0.6071 -0.2642
 8380TIP3    H249336   0.363   0.700   8.347 -0.2794 -1.3511 -0.0774
 8381TIP3   OH249337   1.547   2.319   8.116 -0.1245  0.3000  0.4079
 8381TIP3    H149338   1.591   2.235   8.099  0.1858  0.4253  0.5806
 8381TIP3    H249339   1.589   2.380   8.055  0.5131  0.6003  1.1278
 8382TIP3   OH249340   5.218   3.454   7.895  0.5231 -0.1988  0.0590
 8382TIP3    H149341   5.124   3.442   7.882 -0.1771  0.4937  3.5212
 8382TIP3    H249342   5.250   3.369   7.924  0.8357 -0.2461 -0.4096
 8383TIP3   OH249343   1.627   1.930   9.128  0.1215 -0.4868 -0.0174
 8383TIP3    H149344   1.706   1.965   9.170 -0.9514  2.1815 -0.0449
 8383TIP3    H249345   1.558   1.991   9.152 -1.3384 -1.0460 -2.4604
 8384TIP3   OH249346   1.532   5.711   7.202 -0.0952  0.5598 -0.6286
 8384TIP3    H149347   1.627   5.706   7.207 -0.1511  0.3703  0.6538
 8384TIP3    H249348   1.503   5.619   7.201 -0.3201  0.6033  0.7875
 8385TIP3   OH249349   5.303   1.571   6.875 -0.0724 -0.0372  0.1861
 8385TIP3    H149350   5.387   1.526   6.883 -0.7325 -1.2106  0.7980
 8385TIP3    H249351   5.306   1.612   6.788  1.7089  1.2303  0.7966
 8386TIP3   OH249352   6.269   0.174   7.541  0.0564 -0.2305  0.3592
 8386TIP3    H149353   6.261   0.145   7.451  1.6943 -0.9775  0.4078
 8386TIP3    H249354   6.182   0.208   7.564  0.3109  2.8276 -2.4357
 8387TIP3   OH249355   5.095   4.018   8.245  0.1832  0.1748 -0.3415
 8387TIP3    H149356   5.075   3.929   8.217 -0.7231 -0.3933  1.9348
 8387TIP3    H249357   5.073   4.020   8.338  0.2266  2.7766 -0.3169
 8388TIP3   OH249358   4.780   4.498   7.848 -0.2312  0.5023 -0.0893
 8388TIP3    H149359   4.864   4.538   7.825  0.0654  0.7357  1.3117
 8388TIP3    H249360   4.714   4.553   7.806  0.2855  0.8626 -0.4288
 8389TIP3   OH249361   0.234   6.612   8.540  0.0767 -0.2538  0.3873
 8389TIP3    H149362   0.187   6.655   8.612 -0.3225  1.4325 -0.8191
 8389TIP3    H249363   0.233   6.519   8.564 -1.9205 -0.0182  1.5232
 8390TIP3   OH249364   0.856   1.925   8.546  0.2177 -0.7083 -0.4398
 8390TIP3    H149365   0.818   1.913   8.459  0.2081 -2.1575 -0.2490
 8390TIP3    H249366   0.800   1.874   8.604  1.2120 -1.1409  0.1606
 8391TIP3   OH249367   1.710   2.839   5.589 -0.0524 -0.7116  0.5972
 8391TIP3    H149368   1.803   2.816   5.600  0.0609 -0.1516  0.8487
 8391TIP3    H249369   1.697   2.913   5.647 -0.2860  0.1886 -0.5784
 8392TIP3   OH249370   2.234   4.557   6.646 -0.5941  0.0412 -0.0330
 8392TIP3    H149371   2.157   4.614   6.656 -0.5635 -0.1351  1.3257
 8392TIP3    H249372   2.290   4.604   6.584 -1.2810  0.7254 -0.1553
 8393TIP3   OH249373   6.324   1.606   6.175 -0.2159  0.3001 -0.3267
 8393TIP3    H149374   6.296   1.572   6.260 -2.0074  1.3106 -0.4646
 8393TIP3    H249375   6.283   1.692   6.169  0.1829  0.4063 -2.0612
 8394TIP3   OH249376   0.382   3.645   5.524  0.1260  0.2174  0.4417
 8394TIP3    H149377   0.348   3.566   5.482  2.6401 -0.4949 -0.4302
 8394TIP3    H249378   0.411   3.615   5.610  1.3769  0.0832 -0.0105
 8395TIP3   OH249379   3.483   0.796   5.763 -0.0751 -0.2870 -0.4953
 8395TIP3    H149380   3.544   0.744   5.816  0.1081 -1.3530 -1.6985
 8395TIP3    H249381   3.526   0.802   5.678 -0.9864  0.2295 -0.9195
 8396TIP3   OH249382   4.773   5.998   8.258 -0.3324 -0.4915  0.0599
 8396TIP3    H149383   4.681   5.991   8.230 -0.5186  0.6953  0.3566
 8396TIP3    H249384   4.770   5.987   8.353 -0.2767  0.4578  0.1742
 8397TIP3   OH249385   0.431   1.208   5.907  0.1999  0.2144  0.3497
 8397TIP3    H149386   0.366   1.142   5.885 -0.0453  0.5850 -0.0510
 8397TIP3    H249387   0.453   1.249   5.823  0.9147  0.1292  0.4865
 8398TIP3   OH249388   0.852   6.126   7.528  0.2227 -0.4431  0.0361
 8398TIP3    H149389   0.819   6.167   7.448  1.2962 -0.7819 -0.5984
 8398TIP3    H249390   0.905   6.052   7.498  2.1733  0.4937  0.9479
 8399TIP3   OH249391   0.345   4.564   8.250  0.6771 -0.8585 -0.0450
 8399TIP3    H149392   0.372   4.655   8.261 -2.0867 -0.0142  0.6729
 8399TIP3    H249393   0.354   4.526   8.337  1.5190 -1.1992 -0.2733
 8400TIP3   OH249394   5.926   3.070   5.943 -0.8272  0.5263  0.5829
 8400TIP3    H149395   5.947   3.157   5.909  1.3459  0.5049  1.6990
 8400TIP3    H249396   5.875   3.086   6.022  1.1523  0.9353  1.8456
 8401TIP3   OH249397   0.710   1.718   6.134  0.1643  0.1325  0.0627
 8401TIP3    H149398   0.697   1.805   6.172 -2.9307 -0.0531 -0.2722
 8401TIP3    H249399   0.756   1.734   6.051  0.5733  1.3173  0.4983
 8402TIP3   OH249400   3.211   0.269   5.710  0.3112 -0.1244 -0.1872
 8402TIP3    H149401   3.278   0.220   5.663  0.3489  0.3372 -0.6164
 8402TIP3    H249402   3.182   0.336   5.649  0.2006  0.3413  0.3604
 8403TIP3   OH249403   0.247   0.460   5.802 -0.1374  0.3480  0.3790
 8403TIP3    H149404   0.162   0.450   5.758  0.0148  1.3346 -0.1603
 8403TIP3    H249405   0.299   0.514   5.742 -0.3784  2.9228  2.2824
 8404TIP3   OH249406   5.213   0.862   5.959 -0.2902  0.3416  0.0619
 8404TIP3    H149407   5.272   0.916   6.012 -0.0440 -0.9908  1.2049
 8404TIP3    H249408   5.146   0.832   6.021 -1.4924  0.8394 -0.9586
 8405TIP3   OH249409   6.524   3.921   5.305  0.2046  0.0524 -0.2137
 8405TIP3    H149410   6.611   3.959   5.295 -0.4594  1.2293 -2.0550
 8405TIP3    H249411   6.528   3.840   5.254  1.0528 -1.5201  2.1733
 8406TIP3   OH249412   5.561   0.462   7.304 -0.3301  0.0876 -0.1009
 8406TIP3    H149413   5.651   0.487   7.280  0.1591 -0.1868  1.3198
 8406TIP3    H249414   5.520   0.543   7.333 -0.2266  0.0520  0.1496
 8407TIP3   OH249415   4.009   0.124   6.929  0.3934  0.3603  0.3440
 8407TIP3    H149416   4.077   0.143   6.864  0.3163 -0.1695  0.1105
 8407TIP3    H249417   4.053   0.137   7.013  0.4192  1.3220  0.1985
 8408TIP3   OH249418   0.383   1.911   7.699  0.1151  0.1503 -0.3160
 8408TIP3    H149419   0.384   1.955   7.614  0.5014 -0.0501 -0.4135
 8408TIP3    H249420   0.472   1.879   7.711 -0.2023 -0.7495 -0.3130
 8409TIP3   OH249421   3.548   1.899   8.192  0.0098 -0.5180  0.0274
 8409TIP3    H149422   3.591   1.926   8.111  1.2110  0.0828  0.8388
 8409TIP3    H249423   3.549   1.977   8.247  1.7308 -1.6008  1.6617
 8410TIP3   OH249424   1.728   4.900   6.741 -1.0128 -0.8285  0.1053
 8410TIP3    H149425   1.767   4.813   6.742 -0.1155 -0.4367  0.5014
 8410TIP3    H249426   1.764   4.943   6.818 -1.3661 -0.0710 -0.1422
 8411TIP3   OH249427   4.350   4.470   6.413  0.3786 -0.3121  0.3052
 8411TIP3    H149428   4.354   4.565   6.413 -0.8979 -0.2008  2.3695
 8411TIP3    H249429   4.258   4.450   6.392  0.2557 -1.0169  1.4616
 8412TIP3   OH249430   6.024   5.217   5.543 -0.2316 -0.0021 -0.1046
 8412TIP3    H149431   6.082   5.198   5.470  1.2317 -1.6383  1.4008
 8412TIP3    H249432   5.938   5.227   5.503  0.6945  0.2080 -2.1490
 8413TIP3   OH249433   0.720   1.413   5.864 -0.0792 -0.4502 -0.0173
 8413TIP3    H149434   0.719   1.361   5.783  1.4639 -0.5077 -0.0250
 8413TIP3    H249435   0.725   1.348   5.934 -0.7108 -0.3725  0.1114
 8414TIP3   OH249436   2.187   6.276   6.035 -0.2502  0.0636 -0.0424
 8414TIP3    H149437   2.165   6.194   6.079 -1.0822 -0.2304 -0.9413
 8414TIP3    H249438   2.265   6.255   5.983  0.4975  0.3039  0.9670
 8415TIP3   OH249439   1.991   4.126   8.519  0.5966 -0.1994 -0.0157
 8415TIP3    H149440   2.055   4.197   8.526  0.8483 -0.4659  0.4391
 8415TIP3    H249441   2.013   4.067   8.591 -0.2843 -0.1942  0.2648
 8416TIP3   OH249442   2.259   1.886   6.862  0.3405 -0.0807 -0.1623
 8416TIP3    H149443   2.296   1.798   6.865  0.1902 -0.1270  0.5399
 8416TIP3    H249444   2.165   1.873   6.875  0.4911  0.2797  1.5324
 8417TIP3   OH249445   6.610   0.816   8.531 -0.3050  0.5210  0.2309
 8417TIP3    H149446   6.549   0.804   8.604  1.7668 -2.3788  1.7063
 8417TIP3    H249447   6.661   0.735   8.530  2.0587  1.9018 -2.3029
 8418TIP3   OH249448   3.201   3.664   6.340 -0.1334 -0.3319 -0.5921
 8418TIP3    H149449   3.183   3.756   6.356  2.8553  0.5545 -1.7310
 8418TIP3    H249450   3.122   3.619   6.369 -0.8656  2.3502  2.0286
 8419TIP3   OH249451   6.258   2.404   6.622 -0.4238  0.5332  0.2910
 8419TIP3    H149452   6.242   2.342   6.551  0.1638 -0.4323  0.9884
 8419TIP3    H249453   6.251   2.352   6.702  1.3106  1.0794  0.8462
 8420TIP3   OH249454   4.730   4.972   6.406 -0.1596 -0.7831  0.1942
 8420TIP3    H149455   4.780   4.986   6.486  2.1583 -0.2459 -1.2566
 8420TIP3    H249456   4.732   5.057   6.362 -1.9817 -0.8902 -0.1595
 8421TIP3   OH249457   4.760   2.975   7.412  0.0939 -0.2142  0.6352
 8421TIP3    H149458   4.679   2.928   7.390 -0.0115 -0.2742  1.1305
 8421TIP3    H249459   4.820   2.952   7.342  0.3459 -1.8819  1.3498
 8422TIP3   OH249460   1.054   4.132   9.778  0.1498  0.4284  0.6044
 8422TIP3    H149461   1.011   4.051   9.751  1.0366  0.8530 -2.4288
 8422TIP3    H249462   1.123   4.104   9.838 -0.2421 -0.9373  0.4428
 8423TIP3   OH249463   0.933   4.514   6.932 -0.1700 -0.6387 -0.8041
 8423TIP3    H149464   1.027   4.532   6.942 -0.3718  1.0589 -1.7224
 8423TIP3    H249465   0.921   4.504   6.837 -0.7210 -2.1348 -0.5991
 8424TIP3   OH249466   1.478   4.116   7.393 -0.5805 -0.1139  0.3742
 8424TIP3    H149467   1.494   4.159   7.309 -0.5994  0.6497  0.7468
 8424TIP3    H249468   1.474   4.188   7.456 -0.6765 -0.6667  1.0138
 8425TIP3   OH249469   0.951   3.335   6.761  0.0368  0.2552  0.4004
 8425TIP3    H149470   0.904   3.349   6.843 -1.0214  1.5182 -0.3894
 8425TIP3    H249471   0.895   3.275   6.711  1.1889 -1.3870  0.9682
 8426TIP3   OH249472   3.961   3.592   7.010  0.3340  0.2859 -0.4139
 8426TIP3    H149473   3.955   3.508   6.965  1.1309 -0.0380  0.0593
 8426TIP3    H249474   4.023   3.643   6.957  2.3904 -0.5971  1.0076
 8427TIP3   OH249475   5.904   4.623   6.837 -0.1662  0.0429 -0.0679
 8427TIP3    H149476   5.944   4.659   6.758  1.9414  1.0692  1.3669
 8427TIP3    H249477   5.930   4.531   6.837 -0.4400 -0.0421 -0.6900
 8428TIP3   OH249478   3.942   4.361   6.853 -0.6315  0.5207  0.2410
 8428TIP3    H149479   3.850   4.359   6.824 -1.2096 -0.4857  2.0181
 8428TIP3    H249480   3.938   4.390   6.944  1.0941  3.2202 -0.4397
 8429TIP3   OH249481   0.232   1.635   5.524 -0.3056 -0.9626 -0.3840
 8429TIP3    H149482   0.320   1.673   5.532 -1.1147  0.9269  0.1372
 8429TIP3    H249483   0.222   1.581   5.602 -0.3505  0.5393  0.7042
 8430TIP3   OH249484   2.163   4.817   6.383 -0.1478 -0.2266  0.2974
 8430TIP3    H149485   2.203   4.824   6.470  2.0899  2.2359 -0.8004
 8430TIP3    H249486   2.140   4.907   6.359  0.1823 -0.7033 -2.0536
 8431TIP3   OH249487   4.228   2.895   5.643  0.4258 -0.7924 -0.4459
 8431TIP3    H149488   4.246   2.802   5.631 -0.6654 -1.2140  0.9478
 8431TIP3    H249489   4.297   2.925   5.701  0.6377 -0.7876 -0.6996
 8432TIP3   OH249490   2.791   2.946   7.831 -0.6526  0.0672 -0.5297
 8432TIP3    H149491   2.695   2.948   7.835 -0.7467 -1.2814 -1.2774
 8432TIP3    H249492   2.819   2.961   7.921 -1.6279 -1.0778 -0.0026
 8433TIP3   OH249493   6.385   5.952   5.483  0.2524  0.1366 -0.5984
 8433TIP3    H149494   6.308   5.997   5.450 -0.3971 -1.2264 -1.0017
 8433TIP3    H249495   6.351   5.885   5.541  1.1315 -0.4610 -0.7461
 8434TIP3   OH249496   4.681   0.846   7.864 -0.1518  0.4153 -0.4764
 8434TIP3    H149497   4.651   0.827   7.775  2.5282  2.0311 -1.8352
 8434TIP3    H249498   4.741   0.774   7.885 -1.9297 -0.8061  0.7517
 8435TIP3   OH249499   4.977   5.943   8.516  0.5070 -0.0650  0.7081
 8435TIP3    H149500   5.005   5.865   8.564 -1.8388  0.1673  2.7155
 8435TIP3    H249501   4.920   5.989   8.578 -0.1348  1.9910 -1.2721
 8436TIP3   OH249502   0.348   0.693   8.117 -0.0437  0.3223 -0.1462
 8436TIP3    H149503   0.411   0.663   8.052  0.5174  0.4089  0.3510
 8436TIP3    H249504   0.309   0.612   8.152  1.2084  0.1580  0.9375
 8437TIP3   OH249505   1.820   6.091   5.923  0.1588  0.2579 -0.2272
 8437TIP3    H149506   1.844   6.180   5.949 -1.9519  1.3878 -1.8362
 8437TIP3    H249507   1.848   6.084   5.832  2.1049 -1.5164  0.4279
 8438TIP3   OH249508   6.497   3.978   6.004  0.1499 -0.4909  0.1564
 8438TIP3    H149509   6.431   3.986   6.074  0.5082 -1.4241  0.6060
 8438TIP3    H249510   6.482   4.056   5.950  0.4086  0.7223  1.7327
 8439TIP3   OH249511   0.054   5.643   7.832 -0.3167  0.2418  0.6618
 8439TIP3    H149512   0.063   5.719   7.890 -0.3731  0.2631  0.6425
 8439TIP3    H249513   0.107   5.666   7.756  0.8313 -0.3286  1.2552
 8440TIP3   OH249514   1.506   0.139   8.263 -0.7912  0.0974  0.1414
 8440TIP3    H149515   1.445   0.144   8.337 -1.2829  1.2870 -0.3148
 8440TIP3    H249516   1.543   0.051   8.268 -0.7255  0.1846  1.8661
 8441TIP3   OH249517   5.102   6.364   6.492  0.2886 -0.8110  0.5705
 8441TIP3    H149518   5.122   6.271   6.480  1.5234 -0.6140  0.9695
 8441TIP3    H249519   5.139   6.385   6.577  2.0648  0.5623 -0.4665
 8442TIP3   OH249520   0.459   0.056   7.259 -0.1641 -0.4947 -0.3916
 8442TIP3    H149521   0.365   0.038   7.264 -0.3259  0.2548 -0.6219
 8442TIP3    H249522   0.490  -0.002   7.189 -0.9872  1.2267 -2.3053
 8443TIP3   OH249523   4.985   3.925   8.522 -0.3779 -0.1235 -0.2673
 8443TIP3    H149524   4.977   4.020   8.530 -2.8633 -0.3738  1.1402
 8443TIP3    H249525   5.053   3.901   8.585 -0.3213  0.6194 -0.0339
 8444TIP3   OH249526   5.174   5.041   5.250 -0.1007 -0.3855  0.2511
 8444TIP3    H149527   5.160   4.957   5.295  0.9530 -1.5324 -1.4488
 8444TIP3    H249528   5.259   5.031   5.207 -0.8898  0.7812 -1.6693
 8445TIP3   OH249529   0.153   4.535   7.337 -0.1087 -0.6956 -0.1559
 8445TIP3    H149530   0.204   4.594   7.282 -0.5246 -0.1526  0.0360
 8445TIP3    H249531   0.158   4.572   7.425  0.1482 -1.2936  0.0928
 8446TIP3   OH249532   5.735   3.269   7.934  0.2350 -0.2440  0.3825
 8446TIP3    H149533   5.780   3.256   8.017 -0.8641  1.0581  1.2154
 8446TIP3    H249534   5.684   3.349   7.946  0.6278  0.3986 -1.8014
 8447TIP3   OH249535   5.031   1.954   8.984  0.5429 -0.5231  0.5927
 8447TIP3    H149536   4.958   2.006   8.951  0.6190  0.4890  1.9672
 8447TIP3    H249537   5.040   1.882   8.920 -1.5907 -0.6310  0.3569
 8448TIP3   OH249538   0.889   1.604   6.602 -0.3779 -0.1190 -0.0779
 8448TIP3    H149539   0.948   1.656   6.548 -0.3869  1.9082  1.7253
 8448TIP3    H249540   0.933   1.519   6.611  1.2191  0.6277 -0.5400
 8449TIP3   OH249541   0.204   6.097   8.384  0.4674  0.3901  0.0543
 8449TIP3    H149542   0.223   6.190   8.376 -2.6864  1.1830  0.6391
 8449TIP3    H249543   0.185   6.084   8.477 -2.1222 -0.1143 -0.4797
 8450TIP3   OH249544   0.201   0.841   7.007 -0.0948 -0.0514  0.0914
 8450TIP3    H149545   0.153   0.914   6.967 -1.2770 -0.0931  1.3562
 8450TIP3    H249546   0.149   0.818   7.084 -0.1237 -2.6981 -0.6288
 8451TIP3   OH249547   3.483   0.781   8.717 -0.5278 -0.1857 -0.0764
 8451TIP3    H149548   3.409   0.840   8.730 -1.8321 -2.0112  1.1925
 8451TIP3    H249549   3.477   0.755   8.625 -0.0884  1.3615 -0.5839
 8452TIP3   OH249550   3.920   4.644   6.543 -0.9320  0.0167 -0.0742
 8452TIP3    H149551   3.863   4.567   6.535 -2.7749  1.1230  1.4458
 8452TIP3    H249552   3.873   4.702   6.603  1.5984  1.2586  0.8612
 8453TIP3   OH249553   3.091   2.337   6.326  0.0524 -0.3664 -0.2627
 8453TIP3    H149554   3.028   2.285   6.276 -0.1920 -0.3651  0.0400
 8453TIP3    H249555   3.103   2.417   6.274  1.4603 -1.2789 -1.4289
 8454TIP3   OH249556   1.429   2.997   6.944  0.5048 -0.2194  0.2090
 8454TIP3    H149557   1.360   3.047   6.901  2.3033  2.7139  0.4548
 8454TIP3    H249558   1.385   2.920   6.978 -2.2089  0.4819 -1.4131
 8455TIP3   OH249559   6.376   3.138   5.651  0.0579  0.0958 -0.2230
 8455TIP3    H149560   6.282   3.117   5.655  0.6998 -3.1511  0.8806
 8455TIP3    H249561   6.397   3.165   5.741  0.7153 -2.4768  0.4882
 8456TIP3   OH249562   2.596   3.769   7.188  0.0573  0.0130 -0.0341
 8456TIP3    H149563   2.682   3.751   7.151 -0.3162  0.0017 -0.9130
 8456TIP3    H249564   2.539   3.700   7.153 -0.2424 -0.2019  0.8332
 8457TIP3   OH249565   2.510   1.319   5.906 -0.1311  0.7994 -0.2143
 8457TIP3    H149566   2.517   1.225   5.922 -0.5869  0.8479  0.2810
 8457TIP3    H249567   2.517   1.327   5.810 -1.9476  0.0749 -0.4440
 8458TIP3   OH249568   4.120   5.428   7.606 -0.6275 -0.1764 -0.1294
 8458TIP3    H149569   4.077   5.439   7.691 -1.7407  2.8111 -0.9760
 8458TIP3    H249570   4.049   5.432   7.543  0.2847 -1.4644 -1.2985
 8459TIP3   OH249571   0.457   5.482   6.572 -0.6371 -0.5120  0.4326
 8459TIP3    H149572   0.372   5.454   6.605 -0.9152  1.3309  1.4483
 8459TIP3    H249573   0.458   5.455   6.480 -1.6176 -2.0237  0.8347
 8460TIP3   OH249574   5.566   3.391   8.134  0.6860 -0.1398 -0.4796
 8460TIP3    H149575   5.606   3.456   8.191  0.2356 -1.0027  0.8667
 8460TIP3    H249576   5.592   3.307   8.170 -2.1628 -0.7531  0.4259
 8461TIP3   OH249577   6.130   3.819   5.844  0.4988 -0.6997  0.1778
 8461TIP3    H149578   6.108   3.747   5.902 -2.8939 -0.5205 -0.6408
 8461TIP3    H249579   6.130   3.780   5.756 -1.2173  0.1746 -0.2571
 8462TIP3   OH249580   4.145   0.916   6.674 -0.3572  0.2152  0.1640
 8462TIP3    H149581   4.240   0.905   6.671 -0.3859  0.2930 -1.3588
 8462TIP3    H249582   4.132   0.995   6.727  0.3128 -0.8180  1.9698
 8463TIP3   OH249583   4.783   3.668   6.919 -0.3211  0.1869 -0.1086
 8463TIP3    H149584   4.768   3.619   6.999  0.6794 -1.2212 -0.7352
 8463TIP3    H249585   4.815   3.603   6.856  0.0898  1.4628 -1.2843
 8464TIP3   OH249586   3.325   0.053   6.329 -0.0754 -0.2279 -0.5120
 8464TIP3    H149587   3.292   0.059   6.419  0.1045  1.6431 -0.5493
 8464TIP3    H249588   3.307  -0.038   6.304 -0.9367 -0.5427  1.0954
 8465TIP3   OH249589   0.643   6.134   5.736  0.2285 -0.2503 -0.0426
 8465TIP3    H149590   0.683   6.220   5.720 -1.4895  0.2287 -2.5234
 8465TIP3    H249591   0.549   6.153   5.739 -0.6210 -2.3396 -4.8647
 8466TIP3   OH249592   1.721   4.382   7.371 -0.5788  0.5225 -0.4306
 8466TIP3    H149593   1.675   4.339   7.299  1.1211 -2.0792 -0.0756
 8466TIP3    H249594   1.812   4.387   7.342 -0.0162  0.1976  1.1542
 8467TIP3   OH249595   1.152   6.081   9.862  0.1102 -0.6247 -0.1455
 8467TIP3    H149596   1.150   6.174   9.839 -1.3788 -0.5245  0.2626
 8467TIP3    H249597   1.125   6.036   9.782 -0.5106 -0.6046  0.0509
 8468TIP3   OH249598   3.635   0.638   5.932  0.2247 -0.6235  0.2630
 8468TIP3    H149599   3.656   0.650   6.024 -0.0990  1.2506  0.1266
 8468TIP3    H249600   3.690   0.565   5.904  1.3247 -0.3509  1.6106
 8469TIP3   OH249601   4.845   4.965   5.668 -0.4993  0.5229  0.4664
 8469TIP3    H149602   4.754   4.992   5.679 -0.4978 -0.0054  2.0748
 8469TIP3    H249603   4.896   5.034   5.711 -0.0959  1.0296 -0.7916
 8470TIP3   OH249604   1.782   3.292   6.925 -0.4675 -0.7543 -0.0286
 8470TIP3    H149605   1.825   3.246   6.853 -0.6085 -0.4942 -0.2806
 8470TIP3    H249606   1.819   3.253   7.004  0.7734 -0.0333 -0.2370
 8471TIP3   OH249607   6.176   2.339   6.016 -0.0174 -0.0223 -0.6525
 8471TIP3    H149608   6.258   2.379   6.045  0.3295  0.0660 -1.7268
 8471TIP3    H249609   6.177   2.348   5.921 -0.7297 -1.0693 -0.7743
 8472TIP3   OH249610   1.018   5.538   8.441 -0.3405  1.1436 -0.5052
 8472TIP3    H149611   1.100   5.495   8.415 -1.1278  0.2951 -1.7186
 8472TIP3    H249612   1.045   5.617   8.487  1.1800 -0.1438  0.9516
 8473TIP3   OH249613   5.955   4.306   6.374 -0.3524  0.2411 -0.1950
 8473TIP3    H149614   5.966   4.264   6.459  1.4529  1.8622  0.4403
 8473TIP3    H249615   5.897   4.380   6.392  0.7066  1.0838 -0.1572
 8474TIP3   OH249616   0.289   2.411   6.993 -0.3396 -0.3147  0.0470
 8474TIP3    H149617   0.335   2.494   6.986  1.2491 -1.2148 -0.7903
 8474TIP3    H249618   0.340   2.350   6.939  0.0164 -2.4404  2.5339
 8475TIP3   OH249619   2.372   6.126   7.977 -0.2522 -0.1597  0.5264
 8475TIP3    H149620   2.449   6.165   7.936 -0.1754 -1.6340 -0.8314
 8475TIP3    H249621   2.298   6.173   7.939 -0.0804  0.1690  0.5971
 8476TIP3   OH249622   2.770   5.744   7.484  0.3306 -0.8459  0.2643
 8476TIP3    H149623   2.846   5.742   7.542  1.1791 -0.2748 -0.7913
 8476TIP3    H249624   2.806   5.763   7.397 -0.8196 -2.3929 -0.6138
 8477TIP3   OH249625   5.099   0.905   6.676  0.4633 -0.1249 -0.0109
 8477TIP3    H149626   5.095   0.955   6.758 -1.0265  2.2680 -1.4269
 8477TIP3    H249627   5.030   0.839   6.685 -0.2700  0.6688  0.3661
 8478TIP3   OH249628   1.144   0.357   7.765  0.1369  0.1443  0.0194
 8478TIP3    H149629   1.105   0.306   7.836  1.1308 -0.2888  0.2694
 8478TIP3    H249630   1.080   0.426   7.746 -0.8195 -0.6474  0.2971
 8479TIP3   OH249631   1.595   1.491   8.651  0.4037 -0.6805 -0.2666
 8479TIP3    H149632   1.600   1.537   8.734 -0.6311 -2.5337  0.8808
 8479TIP3    H249633   1.547   1.551   8.593 -0.9741 -0.3117  1.1956
 8480TIP3   OH249634   0.338   2.710   6.791  0.1335 -0.1815  0.5451
 8480TIP3    H149635   0.396   2.775   6.831 -1.7585  1.2542  1.1032
 8480TIP3    H249636   0.255   2.720   6.837 -0.8465 -1.5093 -0.8318
 8481TIP3   OH249637   4.314   4.808   5.743  0.2780 -0.4339  0.5927
 8481TIP3    H149638   4.242   4.796   5.805  0.0654  0.8443  0.6285
 8481TIP3    H249639   4.356   4.722   5.737 -1.3467 -1.2518  0.4412
 8482TIP3   OH249640   5.725   2.843   6.608 -0.0600 -0.0297  0.2770
 8482TIP3    H149641   5.817   2.869   6.618  0.2207 -1.3469  1.4053
 8482TIP3    H249642   5.675   2.915   6.647  0.4740  0.7147 -0.3879
 8483TIP3   OH249643   5.276   3.704   6.106 -0.5196  0.2189 -0.5199
 8483TIP3    H149644   5.341   3.716   6.175  0.3921 -0.8424 -1.1603
 8483TIP3    H249645   5.322   3.729   6.025 -0.2852 -2.2065 -1.2022
 8484TIP3   OH249646   4.443   6.129   5.764 -0.6533  0.4628  0.4938
 8484TIP3    H149647   4.488   6.108   5.682 -1.4976  3.8301 -1.0036
 8484TIP3    H249648   4.467   6.220   5.781 -2.3230  0.5454  2.7880
 8485TIP3   OH249649   5.923   4.301   5.767 -0.6610 -0.5818 -0.5334
 8485TIP3    H149650   5.946   4.218   5.809  0.7863 -0.2156 -0.5629
 8485TIP3    H249651   5.993   4.316   5.703 -0.3644  1.1326  0.1482
 8486TIP3   OH249652   5.921   2.256   7.175 -0.1046 -0.6976  0.0982
 8486TIP3    H149653   5.940   2.267   7.082  1.1305 -1.5300  0.2315
 8486TIP3    H249654   6.007   2.248   7.216 -0.6160  0.0796  1.3766
 8487TIP3   OH249655   3.028   2.082   7.279  0.4772 -0.0144  0.4625
 8487TIP3    H149656   3.104   2.069   7.222  1.5191  4.0317  0.6718
 8487TIP3    H249657   2.952   2.075   7.220  1.1586 -0.9528 -0.3446
 8488TIP3   OH249658   2.533   5.534   8.403  0.3045  0.3422  0.1390
 8488TIP3    H149659   2.598   5.571   8.343 -2.2118  2.3848 -1.6112
 8488TIP3    H249660   2.529   5.597   8.475  1.4932 -0.7374  1.1718
 8489TIP3   OH249661   4.696   6.302   7.922  0.1258  0.5497  0.1830
 8489TIP3    H149662   4.653   6.313   7.837 -0.4907 -0.1977  0.3883
 8489TIP3    H249663   4.625   6.279   7.982  0.7828 -0.5924  0.5501
 8490TIP3   OH249664   6.424   4.466   6.270  0.3278  0.2998  0.3726
 8490TIP3    H149665   6.501   4.444   6.322  1.8833 -0.0740 -1.9451
 8490TIP3    H249666   6.375   4.384   6.265  0.6305  0.1091  0.4890
 8491TIP3   OH249667   1.443   5.716   6.615  0.5122  0.1608 -0.3846
 8491TIP3    H149668   1.485   5.735   6.531 -1.2188 -0.5868 -1.4971
 8491TIP3    H249669   1.351   5.738   6.600  0.0404 -0.6991  1.0905
 8492TIP3   OH249670   3.966   0.493   6.865 -0.2565 -0.5465 -0.2816
 8492TIP3    H149671   4.000   0.510   6.777  0.4515 -2.6537 -0.4820
 8492TIP3    H249672   3.962   0.579   6.906  0.0650  0.4076 -2.1338
 8493TIP3   OH249673   0.696   1.049   8.086  0.0285 -0.4148 -0.1240
 8493TIP3    H149674   0.699   0.957   8.060  0.5382 -0.3634 -0.2585
 8493TIP3    H249675   0.740   1.096   8.015 -1.5556  0.1133 -0.7840
 8494TIP3   OH249676   3.797   2.895   6.267  0.4969 -0.8315  0.6736
 8494TIP3    H149677   3.776   2.804   6.243 -1.0797 -0.1918 -0.5166
 8494TIP3    H249678   3.735   2.948   6.218 -0.1231  0.8261  3.0571
 8495TIP3   OH249679   6.453   6.635   6.994 -0.0047 -0.1051  0.3596
 8495TIP3    H149680   6.418   6.724   6.998 -1.5442 -0.6634  0.0600
 8495TIP3    H249681   6.520   6.638   6.926 -1.5358  0.3688 -1.1956
 8496TIP3   OH249682   5.780   5.488   7.208 -0.2371  0.2666  0.5393
 8496TIP3    H149683   5.790   5.401   7.247  0.3528  0.3827  0.6623
 8496TIP3    H249684   5.693   5.517   7.236 -1.6204 -1.3627 -1.7067
 8497TIP3   OH249685   4.520   6.594   8.281  0.2750  0.1042  0.0068
 8497TIP3    H149686   4.525   6.690   8.287  0.0258  0.1331 -0.2130
 8497TIP3    H249687   4.430   6.577   8.257  0.1498 -0.2244  0.6951
 8498TIP3   OH249688   6.448   2.850   8.701 -0.8954  0.0674 -0.0811
 8498TIP3    H149689   6.452   2.940   8.667  1.9714  0.6087  1.4055
 8498TIP3    H249690   6.379   2.853   8.768 -1.0716  1.0530 -0.2891
 8499TIP3   OH249691   3.437   0.294   8.003  0.8875  0.3135 -0.1416
 8499TIP3    H149692   3.521   0.247   7.997  0.1626 -0.9266 -1.1310
 8499TIP3    H249693   3.411   0.284   8.094  1.0704 -0.6872 -0.1838
 8500TIP3   OH249694   5.712   0.738   7.304 -0.0546  0.0753  0.2402
 8500TIP3    H149695   5.625   0.773   7.286  0.7775  2.2948  0.3275
 8500TIP3    H249696   5.750   0.721   7.217  0.4698  1.8661  0.0909
 8501TIP3   OH249697   2.647   0.454   7.967  0.3316 -0.4426  0.2397
 8501TIP3    H149698   2.621   0.362   7.975  0.4508 -0.3624  1.9315
 8501TIP3    H249699   2.689   0.460   7.881  1.0544 -2.1516  0.4383
 8502TIP3   OH249700   2.677   1.065   5.290  0.0415 -0.2050  0.2279
 8502TIP3    H149701   2.705   0.977   5.314 -0.6183 -0.8007 -1.0728
 8502TIP3    H249702   2.586   1.070   5.319  0.1660  0.1661  0.5682
 8503TIP3   OH249703   4.823   6.661   6.985 -0.1938  0.4319 -0.2970
 8503TIP3    H149704   4.826   6.757   6.979  0.4969  0.5348  1.3034
 8503TIP3    H249705   4.792   6.633   6.899  0.0497  2.0659 -0.9541
 8504TIP3   OH249706   2.472   1.580   6.016  0.1233  0.0039 -0.4916
 8504TIP3    H149707   2.498   1.489   6.002 -1.0301 -0.4769  0.3172
 8504TIP3    H249708   2.548   1.632   5.988  1.4493 -1.2668  0.6259
 8505TIP3   OH249709   0.107   1.936   5.864 -0.1985  0.1909 -0.0493
 8505TIP3    H149710   0.041   1.950   5.796  0.6850 -0.0250 -0.9795
 8505TIP3    H249711   0.079   1.856   5.908  0.2552 -0.7681 -1.4481
 8506TIP3   OH249712   1.980   1.639   9.302 -0.0058 -0.0605 -0.2394
 8506TIP3    H149713   1.994   1.592   9.220 -1.8529 -1.4055  0.1473
 8506TIP3    H249714   1.973   1.570   9.368 -0.2441  0.8981  0.7601
 8507TIP3   OH249715   6.581   6.071   8.022 -0.3800 -0.2116  0.0843
 8507TIP3    H149716   6.623   6.155   8.045 -0.4932  0.0452 -0.6385
 8507TIP3    H249717   6.625   6.043   7.942 -0.3177 -0.8723  0.3419
 8508TIP3   OH249718   4.934   1.982   6.555  0.8888  0.7772 -0.0031
 8508TIP3    H149719   4.970   1.954   6.471 -1.6684 -0.6057 -0.7745
 8508TIP3    H249720   4.965   1.918   6.618  4.4218  2.8893  0.6638
 8509TIP3   OH249721   2.070   2.422   7.303 -0.2571  0.1482  0.3097
 8509TIP3    H149722   2.113   2.405   7.220 -0.3498 -1.4182  0.5513
 8509TIP3    H249723   2.092   2.346   7.357  0.7772  1.6498  2.1270
 8510TIP3   OH249724   6.574   3.310   8.151 -0.0995 -0.2941  0.3454
 8510TIP3    H149725   6.633   3.263   8.209  1.8862  2.7693  1.0399
 8510TIP3    H249726   6.627   3.381   8.115 -2.1358 -0.2012 -2.8210
 8511TIP3   OH249727   0.299   5.769   5.970  0.2114  0.7177 -0.0123
 8511TIP3    H149728   0.235   5.828   5.929 -0.7230 -0.1229  0.1741
 8511TIP3    H249729   0.269   5.682   5.944  0.9261  0.2831  0.6191
 8512TIP3   OH249730   6.572   2.730   8.101  0.1606 -0.3176 -0.1409
 8512TIP3    H149731   6.557   2.657   8.041 -0.9802  0.2025 -0.5165
 8512TIP3    H249732   6.523   2.706   8.180  1.0463 -0.6502  0.3309
 8513TIP3   OH249733   4.867   3.432   6.821  0.3203 -0.6156 -0.5429
 8513TIP3    H149734   4.912   3.349   6.839 -0.9153 -1.0458  0.7617
 8513TIP3    H249735   4.826   3.419   6.736  1.5100 -0.6970 -1.1328
 8514TIP3   OH249736   2.589   1.241   8.351 -0.1115  0.2587  0.1466
 8514TIP3    H149737   2.627   1.262   8.436  2.7861 -0.1526 -0.9034
 8514TIP3    H249738   2.614   1.315   8.295  0.6064 -0.7780 -0.9705
 8515TIP3   OH249739   4.426   3.589   6.158 -0.1565 -0.4512 -0.0656
 8515TIP3    H149740   4.493   3.536   6.114  1.1891 -0.1704  1.5651
 8515TIP3    H249741   4.449   3.679   6.135 -0.3457 -0.3847  0.0092
 8516TIP3   OH249742   4.043   3.381   7.761 -0.5134 -0.0545  0.2690
 8516TIP3    H149743   4.039   3.476   7.778  1.5433  0.0991  0.1270
 8516TIP3    H249744   4.053   3.374   7.666 -0.4196 -0.4110  0.3058
 8517TIP3   OH249745   0.329   4.321   8.631  0.2709  0.1544  0.0249
 8517TIP3    H149746   0.284   4.398   8.663 -1.8424 -0.7423 -0.6172
 8517TIP3    H249747   0.276   4.247   8.660  1.4826 -0.9928 -0.5310
 8518TIP3   OH249748   2.444   4.878   5.814 -0.5545  0.2833  0.0374
 8518TIP3    H149749   2.523   4.893   5.866 -0.5078 -0.2614  0.1324
 8518TIP3    H249750   2.461   4.795   5.769 -0.6389  0.6950 -0.7658
 8519TIP3   OH249751   0.549   3.680   7.302 -0.0800 -0.1472 -0.9088
 8519TIP3    H149752   0.609   3.628   7.250 -0.1321  0.2759 -1.3954
 8519TIP3    H249753   0.599   3.757   7.328 -0.6393  0.6271 -2.0278
 8520TIP3   OH249754   4.914   1.606   6.123  0.1539 -1.0816  0.1815
 8520TIP3    H149755   4.949   1.526   6.161  0.9260 -1.2298 -0.7756
 8520TIP3    H249756   4.960   1.677   6.169 -0.2504 -1.1934  0.7642
 8521TIP3   OH249757   3.072   1.978   6.864 -0.1903  1.1224  0.3166
 8521TIP3    H149758   3.105   1.943   6.782 -0.9716  2.0859 -0.4402
 8521TIP3    H249759   2.985   1.938   6.874  0.7366 -0.6614  1.8019
 8522TIP3   OH249760   4.716   4.346   7.406  0.3353  0.7219  0.5553
 8522TIP3    H149761   4.771   4.313   7.477 -1.3419 -0.8973  1.1658
 8522TIP3    H249762   4.764   4.322   7.326  1.1914  0.6381  1.0852
 8523TIP3   OH249763   5.489   2.060   7.476  0.2554  0.7005  0.3674
 8523TIP3    H149764   5.561   2.079   7.416 -0.5819  1.6864 -0.3869
 8523TIP3    H249765   5.413   2.103   7.435 -0.7083 -0.1195  1.2403
 8524TIP3   OH249766   2.150   5.680   7.236  0.8711 -0.4690  0.1937
 8524TIP3    H149767   2.153   5.591   7.201 -1.8404 -0.4757 -0.2211
 8524TIP3    H249768   2.059   5.692   7.262  1.1642  2.2213  0.2097
 8525TIP3   OH249769   6.484   5.517   8.076  0.4842  0.0737 -0.1808
 8525TIP3    H149770   6.460   5.442   8.022 -0.4554 -0.0572  0.3893
 8525TIP3    H249771   6.402   5.544   8.118  0.9409  0.9794  0.1717
 8526TIP3   OH249772   4.293   0.952   8.123 -0.0702  0.1394 -0.4252
 8526TIP3    H149773   4.363   0.996   8.075 -0.1766  2.3310  1.2296
 8526TIP3    H249774   4.241   1.024   8.160 -1.6542 -1.4249  0.5633
 8527TIP3   OH249775   4.059   3.248   7.476 -0.6267 -0.0247 -0.4728
 8527TIP3    H149776   3.977   3.269   7.431  0.3264  0.0374 -2.3025
 8527TIP3    H249777   4.127   3.259   7.408  0.7847 -1.0510  0.7045
 8528TIP3   OH249778   2.112   0.975   6.825 -1.1752 -0.2777  0.7541
 8528TIP3    H149779   2.036   0.998   6.878 -2.1545 -0.0230 -0.7180
 8528TIP3    H249780   2.075   0.941   6.743  0.2759  1.0934 -0.5296
 8529TIP3   OH249781   5.879   5.188   7.184 -0.2033 -0.5934  0.5195
 8529TIP3    H149782   5.918   5.127   7.121  1.7047 -1.6450  2.5717
 8529TIP3    H249783   5.937   5.265   7.182 -0.8119 -0.1326  0.1830
 8530TIP3   OH249784   1.224   1.903   7.787  0.5693  0.0824 -0.4215
 8530TIP3    H149785   1.281   1.973   7.757 -0.3472  0.8378 -0.4345
 8530TIP3    H249786   1.264   1.873   7.869  3.1644 -2.0703 -2.2845
 8531TIP3   OH249787   5.698   6.331   8.423 -0.2495  0.4492 -0.6964
 8531TIP3    H149788   5.621   6.276   8.410 -1.9626  2.8685 -1.5473
 8531TIP3    H249789   5.750   6.319   8.343  1.6350 -2.9794  0.8268
 8532TIP3   OH249790   6.388   2.114   5.704 -0.4532 -0.2096  0.0547
 8532TIP3    H149791   6.313   2.065   5.740 -0.7678 -0.8215 -1.3828
 8532TIP3    H249792   6.355   2.203   5.696 -1.4482 -0.6769 -1.5878
 8533TIP3   OH249793   5.592   1.263   8.822  0.2914 -0.0783 -0.3372
 8533TIP3    H149794   5.626   1.353   8.826 -0.5558  0.2365  0.0094
 8533TIP3    H249795   5.599   1.239   8.730 -3.2153  1.8547 -1.2579
 8534TIP3   OH249796   4.017   6.547   5.588 -0.0346 -0.0746  0.8130
 8534TIP3    H149797   3.992   6.475   5.646 -0.1805  1.1628  2.3399
 8534TIP3    H249798   4.107   6.525   5.561  0.0622 -0.6529  1.5597
 8535TIP3   OH249799   6.393   0.480   7.304 -0.5426  0.2214 -0.1685
 8535TIP3    H149800   6.483   0.502   7.324 -0.5168  2.1577 -2.0732
 8535TIP3    H249801   6.345   0.562   7.312 -2.0540 -0.6665  0.3037
 8536TIP3   OH249802   1.612   3.375   5.988  0.3256  0.3125 -0.1898
 8536TIP3    H149803   1.694   3.328   6.004  1.0810  2.0486  1.2672
 8536TIP3    H249804   1.636   3.467   5.992 -1.8258  0.8682  0.9166
 8537TIP3   OH249805   0.639   6.688   7.939 -0.9061  0.0600 -0.1930
 8537TIP3    H149806   0.611   6.624   8.004 -0.5523  0.4208  0.3291
 8537TIP3    H249807   0.569   6.689   7.873 -1.3854 -0.1278  0.3090
 8538TIP3   OH249808   4.426   6.472   7.833  0.1594  0.1352 -0.0432
 8538TIP3    H149809   4.387   6.428   7.757 -1.1233  1.7103 -0.3569
 8538TIP3    H249810   4.357   6.467   7.901  0.0348  1.4968 -0.0467
 8539TIP3   OH249811   1.459   1.805   9.485 -0.0781  0.1842 -0.1934
 8539TIP3    H149812   1.438   1.744   9.556 -0.2275  0.1922 -0.2305
 8539TIP3    H249813   1.536   1.767   9.443  0.2000  0.3375  0.1625
 8540TIP3   OH249814   0.223   5.734   8.595 -0.0817 -0.3033 -0.0351
 8540TIP3    H149815   0.294   5.746   8.659 -0.9079  0.8391  0.6940
 8540TIP3    H249816   0.151   5.785   8.629 -0.3965  0.7836 -2.1654
 8541TIP3   OH249817   1.360   3.507   8.826  0.3987  0.0320 -0.7044
 8541TIP3    H149818   1.359   3.502   8.730 -0.6746  0.9161 -0.7592
 8541TIP3    H249819   1.425   3.575   8.846  0.2680  0.1940 -0.8288
 8542TIP3   OH249820   1.774   5.264   7.490 -0.0183 -0.0964  0.0204
 8542TIP3    H149821   1.714   5.273   7.416 -0.2865 -0.0676  0.2398
 8542TIP3    H249822   1.750   5.180   7.530  0.6341 -0.4784 -0.3800
 8543TIP3   OH249823   0.102   2.859   9.104  0.0987 -0.5578  0.1430
 8543TIP3    H149824   0.182   2.814   9.132  0.6019  1.1473  1.5944
 8543TIP3    H249825   0.132   2.921   9.037  0.2737  1.0014  1.6039
 8544TIP3   OH249826   1.682   6.531   6.093  0.1140 -0.3268  0.2294
 8544TIP3    H149827   1.714   6.600   6.151 -0.0474 -0.0964  0.0444
 8544TIP3    H249828   1.587   6.544   6.091 -0.3084 -2.3092  2.5057
 8545TIP3   OH249829   0.219   2.930   6.627 -0.5462  0.2723  0.1412
 8545TIP3    H149830   0.153   2.897   6.566 -1.3272  1.0399  0.5444
 8545TIP3    H249831   0.235   2.857   6.687  0.0267 -0.3961 -0.7838
 8546TIP3   OH249832   4.343   2.153   8.072  0.0940 -0.1983 -0.3753
 8546TIP3    H149833   4.356   2.114   8.159 -1.2869  0.1681  0.0221
 8546TIP3    H249834   4.306   2.083   8.019 -1.8156  0.3293  0.1720
 8547TIP3   OH249835   1.947   3.397   7.222  0.4620 -0.1094 -0.0814
 8547TIP3    H149836   2.022   3.393   7.163  1.2861  0.9610  0.8392
 8547TIP3    H249837   1.899   3.475   7.195  1.4239  1.0119  1.2476
 8548TIP3   OH249838   2.691   0.887   8.806  0.3980  0.0590  0.8765
 8548TIP3    H149839   2.727   0.801   8.788 -0.2062 -0.4729  2.1100
 8548TIP3    H249840   2.618   0.871   8.866  1.1414  1.5319  2.2679
 8549TIP3   OH249841   2.801   0.463   6.011 -0.1432  0.1428  0.4021
 8549TIP3    H149842   2.842   0.386   5.972 -0.2226 -0.5863  1.7130
 8549TIP3    H249843   2.760   0.431   6.091 -1.7675  1.1901  0.0488
 8550TIP3   OH249844   5.400   4.114  16.050  0.2052 -0.3566 -0.2069
 8550TIP3    H149845   5.458   4.176  16.093 -0.4674  1.2965 -1.5788
 8550TIP3    H249846   5.364   4.061  16.121  1.3890  0.2933  0.9201
 8551TIP3   OH249847   0.411   4.079   7.200 -0.4924  0.3338  0.4712
 8551TIP3    H149848   0.448   4.080   7.112  0.4948  1.1513  0.8725
 8551TIP3    H249849   0.478   4.121   7.254 -0.8801 -0.5576  1.6893
 8552TIP3   OH249850   6.390   0.364   5.294  0.0034  0.2062 -0.5036
 8552TIP3    H149851   6.316   0.377   5.235 -0.1887 -0.4361 -0.4100
 8552TIP3    H249852   6.375   0.278   5.333  1.2794 -0.3378 -1.1647
 8553TIP3   OH249853   5.169   1.292   7.119 -0.2641 -0.4950  0.0058
 8553TIP3    H149854   5.157   1.368   7.062 -1.0816  0.9884  2.0290
 8553TIP3    H249855   5.259   1.264   7.103 -0.5066 -0.2054 -2.0405
 8554TIP3   OH249856   4.291   1.151   6.567  0.0095 -0.2822  0.1590
 8554TIP3    H149857   4.384   1.157   6.590  0.1779 -0.1520 -0.5317
 8554TIP3    H249858   4.245   1.158   6.651  0.5421  1.5672  0.3470
 8555TIP3   OH249859   4.310   0.800   6.933  0.1219 -0.5915  0.5691
 8555TIP3    H149860   4.351   0.853   7.002  0.6085 -0.7332  0.3924
 8555TIP3    H249861   4.217   0.804   6.953 -0.3164  3.0561 -1.2390
 8556TIP3   OH249862   5.899   6.127   8.050  0.0404  0.0703  0.2924
 8556TIP3    H149863   5.809   6.121   8.017  0.2889  2.6008 -1.0938
 8556TIP3    H249864   5.895   6.192   8.119  0.9801  1.1761 -0.6559
 8557TIP3   OH249865   6.652   3.945   8.313 -0.1705 -0.0760 -0.1784
 8557TIP3    H149866   6.602   3.995   8.379  0.0957 -2.2902  1.8419
 8557TIP3    H249867   6.743   3.960   8.336 -0.0734 -0.8461 -0.0512
 8558TIP3   OH249868   6.138   3.346   6.182 -0.0278 -0.1577 -0.1134
 8558TIP3    H149869   6.208   3.283   6.200  0.6074  0.9553  1.5754
 8558TIP3    H249870   6.183   3.428   6.163 -0.8622  0.2881 -0.2396
 8559TIP3   OH249871   4.533   3.038   7.570  0.6732  0.1509  0.5798
 8559TIP3    H149872   4.621   3.007   7.549  0.5263  0.5191 -0.6774
 8559TIP3    H249873   4.520   3.114   7.514 -0.8044 -0.4647  0.0316
 8560TIP3   OH249874   2.855   4.530   6.010 -0.4333 -0.1799 -0.8108
 8560TIP3    H149875   2.864   4.526   6.105  1.8777 -0.3273 -0.9806
 8560TIP3    H249876   2.854   4.438   5.982 -1.2832 -0.1412 -0.9289
 8561TIP3   OH249877   3.827   3.324   6.201 -0.3723  0.1500  0.0742
 8561TIP3    H149878   3.737   3.333   6.233 -0.1913  2.2410  0.0935
 8561TIP3    H249879   3.857   3.414   6.188  1.9454 -0.4850  0.7002
 8562TIP3   OH249880   6.309   2.661  15.919 -0.5524 -0.0940 -0.3524
 8562TIP3    H149881   6.312   2.707  15.835 -1.5855  1.9975  0.6827
 8562TIP3    H249882   6.376   2.703  15.973 -0.3896 -0.9285  0.1219
 8563TIP3   OH249883   6.410   5.285   9.021 -0.2931 -0.8720 -0.0802
 8563TIP3    H149884   6.395   5.359   8.963  0.7822  0.5033  1.3296
 8563TIP3    H249885   6.476   5.232   8.975  0.2711 -0.0064 -0.2978
 8564TIP3   OH249886   0.692   2.647   7.634  0.1218  0.5176  0.0946
 8564TIP3    H149887   0.748   2.715   7.672 -0.2121  0.4009  0.8165
 8564TIP3    H249888   0.699   2.660   7.540 -2.1554  3.4292  0.1930
 8565TIP3   OH249889   4.330   5.743   7.776 -0.0464 -0.5931  0.7356
 8565TIP3    H149890   4.331   5.708   7.687  1.2694 -0.7152  0.7691
 8565TIP3    H249891   4.366   5.831   7.768 -1.3811 -0.0113  0.9475
 8566TIP3   OH249892   2.510   0.459   6.502 -0.0062  0.1548  0.1677
 8566TIP3    H149893   2.588   0.462   6.558 -0.4913 -1.2433  0.9740
 8566TIP3    H249894   2.467   0.543   6.517  0.8664  0.5622  0.4311
 8567TIP3   OH249895   5.114   6.538   5.547 -0.1034 -0.2114 -0.6083
 8567TIP3    H149896   5.111   6.622   5.501  3.1043  0.7118  0.5981
 8567TIP3    H249897   5.106   6.561   5.640 -0.6761 -1.4283 -0.3377
 8568TIP3   OH249898   3.305   5.246   5.946  0.2526 -0.8550 -0.1512
 8568TIP3    H149899   3.370   5.315   5.958 -0.1860 -0.5448  0.4689
 8568TIP3    H249900   3.319   5.186   6.019  0.5926 -1.4005 -0.6544
 8569TIP3   OH249901   4.706   3.428   8.654 -0.4982  0.5453  0.6582
 8569TIP3    H149902   4.627   3.453   8.605  0.4215 -0.0421 -1.2336
 8569TIP3    H249903   4.764   3.504   8.645  0.0811  0.0228 -0.0968
 8570TIP3   OH249904   1.227   3.828   6.846  1.0239 -0.7326  0.1106
 8570TIP3    H149905   1.309   3.819   6.797  0.0964 -1.7888 -1.3609
 8570TIP3    H249906   1.165   3.775   6.796 -0.4948 -0.1531  1.3303
 8571TIP3   OH249907   4.439   2.030   7.571 -0.1585 -0.4579  0.0243
 8571TIP3    H149908   4.533   2.041   7.556 -0.5193  1.1920 -1.2392
 8571TIP3    H249909   4.415   2.100   7.631 -0.8897  0.2916 -1.1028
 8572TIP3   OH249910   2.917   2.494   5.968 -0.2038  0.5674  0.8468
 8572TIP3    H149911   2.894   2.409   6.005  0.1517  0.2865  0.4316
 8572TIP3    H249912   2.957   2.542   6.041  0.0297  0.2030  0.9570
 8573TIP3   OH249913   1.173   3.914   7.416 -0.7046  0.8313  0.7427
 8573TIP3    H149914   1.203   3.993   7.371  1.2552 -0.0548  0.3776
 8573TIP3    H249915   1.107   3.877   7.357 -0.8201  1.6076  0.3722
 8574TIP3   OH249916   5.686   6.440   7.581  0.1077 -0.3980 -0.1852
 8574TIP3    H149917   5.636   6.481   7.511 -0.2251 -1.6037 -0.6835
 8574TIP3    H249918   5.639   6.359   7.600  0.5532 -0.4038  0.9984
 8575TIP3   OH249919   3.493   3.951   5.673 -0.3648  0.0061 -0.3295
 8575TIP3    H149920   3.408   3.995   5.671 -0.2141  0.3710  0.8189
 8575TIP3    H249921   3.474   3.862   5.701 -0.5194 -0.3441 -1.4685
 8576TIP3   OH249922   2.128   2.906   6.536 -0.0263 -0.4787 -0.0497
 8576TIP3    H149923   2.158   2.993   6.510 -0.2734 -0.9542 -2.1861
 8576TIP3    H249924   2.195   2.874   6.597  0.1420  1.1263  0.6405
 8577TIP3   OH249925   5.239   3.203   7.064 -0.2969 -0.0145 -0.8346
 8577TIP3    H149926   5.205   3.226   7.151  0.8918  1.6107 -0.7612
 8577TIP3    H249927   5.251   3.108   7.068 -1.1481 -0.1018  0.4369
 8578TIP3   OH249928   5.026   1.627   7.280 -0.2118  0.3829  0.2018
 8578TIP3    H149929   5.080   1.570   7.226 -2.3085 -0.1558 -1.4775
 8578TIP3    H249930   4.947   1.575   7.298 -1.0041  1.7765  0.9461
 8579TIP3   OH249931   6.211   4.062   6.029  0.4149 -0.0275 -0.2424
 8579TIP3    H149932   6.210   4.130   5.962  1.3055  0.3645  0.1131
 8579TIP3    H249933   6.122   4.029   6.032 -0.1151  1.3308 -0.2219
 8580TIP3   OH249934   0.729   2.479   7.203 -0.0248 -0.3679 -0.4071
 8580TIP3    H149935   0.643   2.444   7.226  0.4061 -1.5933 -0.5907
 8580TIP3    H249936   0.758   2.426   7.129  2.4131 -2.4467  1.8313
 8581TIP3   OH249937   4.237   3.259   5.689 -0.3982 -0.3255  0.4889
 8581TIP3    H149938   4.329   3.257   5.714 -0.2590 -4.1623  0.2381
 8581TIP3    H249939   4.190   3.229   5.767 -1.0746 -1.5327 -0.3542
 8582TIP3   OH249940   4.515   4.613   5.339  1.3803 -0.6276 -0.0888
 8582TIP3    H149941   4.430   4.602   5.383  1.1443  0.2481 -0.3076
 8582TIP3    H249942   4.529   4.530   5.295  1.3928 -1.3580  1.2363
 8583TIP3   OH249943   6.212   3.061   7.102  0.7320  0.4449  0.4523
 8583TIP3    H149944   6.193   3.133   7.163 -0.0284  2.1524 -1.6798
 8583TIP3    H249945   6.302   3.077   7.074  0.8500  0.0593  0.6154
 8584TIP3   OH249946   0.103   2.554   6.033 -0.4392 -0.6368  0.3931
 8584TIP3    H149947   0.094   2.460   6.018  1.3061 -1.0460  1.6677
 8584TIP3    H249948   0.102   2.564   6.128 -0.3371  0.6089  0.2840
 8585TIP3   OH249949   3.320   3.064   5.795  0.3447 -0.4397  0.3341
 8585TIP3    H149950   3.299   3.011   5.718  1.5375 -1.5130  0.7059
 8585TIP3    H249951   3.396   3.115   5.768 -0.7846  1.1079 -0.0102
 8586TIP3   OH249952   0.926   4.893   7.539 -0.7909  0.0420  0.2046
 8586TIP3    H149953   0.967   4.838   7.605  0.9390 -0.0711 -0.9192
 8586TIP3    H249954   0.905   4.974   7.586  0.1753 -0.1226  0.9545
 8587TIP3   OH249955   1.240   0.902   5.419 -0.0565  0.0279 -0.0291
 8587TIP3    H149956   1.289   0.985   5.420 -0.1910  0.1171 -0.4736
 8587TIP3    H249957   1.149   0.928   5.433 -0.2823  0.0972 -1.5065
 8588TIP3   OH249958   5.759   6.123   5.805  0.0459  0.3461  0.5448
 8588TIP3    H149959   5.673   6.082   5.806 -0.4608  1.3897  0.8295
 8588TIP3    H249960   5.780   6.132   5.712 -1.0005  1.7687  0.4110
 8589TIP3   OH249961   3.797   3.704   6.671 -0.1146  0.0995  0.0292
 8589TIP3    H149962   3.847   3.681   6.749  0.1505  0.5699  0.0023
 8589TIP3    H249963   3.709   3.671   6.688 -0.1980  0.6741  0.7596
 8590TIP3   OH249964   0.948   3.883   8.014 -0.1575 -0.8051 -0.3166
 8590TIP3    H149965   0.934   3.803   8.063  1.4393  0.0480  1.6656
 8590TIP3    H249966   0.988   3.943   8.076  0.8181  0.7835 -2.3426
 8591TIP3   OH249967   5.690   1.595   6.428 -0.2399 -0.2408 -0.1467
 8591TIP3    H149968   5.675   1.673   6.480 -1.8138 -1.0556  0.6850
 8591TIP3    H249969   5.611   1.586   6.375  0.4133 -0.6461 -1.0834
 8592TIP3   OH249970   3.247   0.734   8.392  0.2857 -0.2468 -0.7373
 8592TIP3    H149971   3.281   0.820   8.417 -1.3862 -0.0023  0.8991
 8592TIP3    H249972   3.292   0.672   8.450  0.8858 -0.4075 -1.3576
 8593TIP3   OH249973   1.186   2.762   7.805  0.4417  0.3064 -0.2329
 8593TIP3    H149974   1.265   2.766   7.751 -0.3493 -0.8491 -1.5408
 8593TIP3    H249975   1.127   2.704   7.757 -0.7647  0.2002  1.2996
 8594TIP3   OH249976   3.762   2.664   7.553 -0.4868  0.0256  0.4114
 8594TIP3    H149977   3.768   2.624   7.467 -4.2305 -1.4378  0.6222
 8594TIP3    H249978   3.822   2.613   7.608  1.8847  0.9280 -1.1841
 8595TIP3   OH249979   6.577   5.766   8.105 -0.6283 -0.0759 -0.0769
 8595TIP3    H149980   6.661   5.779   8.150  0.1700  1.7729 -1.9620
 8595TIP3    H249981   6.578   5.674   8.079  0.4687 -0.2708  0.5925
 8596TIP3   OH249982   0.979   4.281   7.101 -0.4343  0.5136 -0.9098
 8596TIP3    H149983   1.064   4.308   7.136 -0.1497 -1.2063 -0.1513
 8596TIP3    H249984   0.960   4.344   7.032 -0.2670  3.0982  1.2538
 8597TIP3   OH249985   4.718   3.034   6.309  0.3956  0.3602 -0.1943
 8597TIP3    H149986   4.669   3.114   6.287 -0.1596  0.1045  0.0855
 8597TIP3    H249987   4.808   3.053   6.283  0.8527  2.0934  2.3166
 8598TIP3   OH249988   3.642   6.345   6.469 -0.2688 -0.2796  0.1822
 8598TIP3    H149989   3.664   6.253   6.455 -0.6753  0.0509 -3.7990
 8598TIP3    H249990   3.708   6.393   6.419 -2.8113  1.2620 -1.9359
 8599TIP3   OH249991   4.583   5.226   6.803 -0.7077 -0.4533  0.4172
 8599TIP3    H149992   4.487   5.226   6.796 -0.6267  1.5726 -1.6662
 8599TIP3    H249993   4.614   5.206   6.715  0.8678 -2.2577  1.3009
 8600TIP3   OH249994   0.330   1.653   8.509  0.3717 -0.2623  0.0239
 8600TIP3    H149995   0.237   1.637   8.524  0.0725  1.5034  0.1757
 8600TIP3    H249996   0.356   1.585   8.447 -1.4659  0.3866 -1.5350
 8601TIP3   OH249997   3.985   2.535   7.733  0.2923  0.1289  0.5670
 8601TIP3    H149998   4.068   2.531   7.686  0.4429 -0.9961  0.8944
 8601TIP3    H249999   3.966   2.443   7.755 -1.1854  0.3322  0.2292
 8602TIP3   OH250000   2.216   1.623   5.903  0.1796  0.2070 -0.3423
 8602TIP3    H150001   2.248   1.631   5.813  0.4880  3.9420 -0.0394
 8602TIP3    H250002   2.294   1.614   5.956  0.0832 -0.4973 -0.3101
 8603TIP3   OH250003   3.607   5.967   6.969  0.1396 -0.1115  0.1192
 8603TIP3    H150004   3.629   5.876   6.991 -0.1091 -0.3257 -0.4903
 8603TIP3    H250005   3.673   5.993   6.905 -0.9130 -0.5331 -1.2014
 8604TIP3   OH250006   4.113   4.843   8.955  0.2361 -0.9725 -0.1544
 8604TIP3    H150007   4.149   4.858   9.042  0.2128 -0.5729 -0.2143
 8604TIP3    H250008   4.080   4.928   8.926  1.2237 -0.8526 -0.9951
 8605TIP3   OH250009   2.299   3.681   7.321  0.1378  0.1980  0.5220
 8605TIP3    H150010   2.328   3.671   7.231  0.1974  0.7419  0.4771
 8605TIP3    H250011   2.364   3.633   7.373 -0.1612 -0.5193  0.2437
 8606TIP3   OH250012   4.637   0.667   7.033  0.2520 -0.2790  0.1318
 8606TIP3    H150013   4.634   0.753   6.989 -0.1274 -0.5971 -0.4808
 8606TIP3    H250014   4.648   0.688   7.125  0.2431  0.4304 -0.0189
 8607TIP3   OH250015   5.930   5.662   5.244  0.7641 -0.7945  0.3389
 8607TIP3    H150016   5.856   5.722   5.235  0.4372 -1.4733 -3.9777
 8607TIP3    H250017   5.890   5.577   5.262  1.0123 -0.3679  3.3395
 8608TIP3   OH250018   2.666   2.317   7.686  0.3351 -0.5891 -0.2916
 8608TIP3    H150019   2.698   2.391   7.738  0.5429 -0.6806 -0.2888
 8608TIP3    H250020   2.739   2.255   7.685 -0.1185 -1.1410  0.3647
 8609TIP3   OH250021   3.551   3.231   7.465  0.2783 -0.0029  0.5308
 8609TIP3    H150022   3.531   3.162   7.528 -0.8222  0.6039  0.8742
 8609TIP3    H250023   3.613   3.191   7.404 -1.7484 -1.9247 -0.4027
 8610TIP3   OH250024   6.148   4.568   7.976  0.0323 -0.4380  0.0077
 8610TIP3    H150025   6.153   4.577   8.072  0.5758  0.5635 -0.0958
 8610TIP3    H250026   6.070   4.617   7.951  1.2890  1.5808 -0.2662
 8611TIP3   OH250027   1.159   6.616   6.071 -0.4078  0.1963 -0.8175
 8611TIP3    H150028   1.130   6.690   6.019 -2.7251 -0.9497 -1.2882
 8611TIP3    H250029   1.159   6.648   6.161  1.5893  1.5787 -1.2530
 8612TIP3   OH250030   6.306   4.741   5.749  0.3672  0.2566  0.3764
 8612TIP3    H150031   6.342   4.820   5.788  1.0005  0.8018 -1.2157
 8612TIP3    H250032   6.375   4.710   5.690  0.1457 -1.5193  0.9860
 8613TIP3   OH250033   3.864   1.393   6.089  0.1606 -0.3478 -0.0903
 8613TIP3    H150034   3.953   1.359   6.098  0.5780  0.2886 -1.6155
 8613TIP3    H250035   3.848   1.395   5.995 -1.2462  0.1375  0.1356
 8614TIP3   OH250036   6.041   0.782   6.911 -0.3082  0.6092 -1.1967
 8614TIP3    H150037   5.995   0.846   6.857  0.4200 -0.0036 -2.5868
 8614TIP3    H250038   6.127   0.772   6.870  0.1761 -0.0831 -0.0812
 8615TIP3   OH250039   6.442   1.062   7.538  0.0915 -0.9455  0.0807
 8615TIP3    H150040   6.470   1.089   7.626 -1.3536  1.1699 -0.0198
 8615TIP3    H250041   6.393   1.138   7.505 -0.2097 -2.0633 -2.1823
 8616TIP3   OH250042   5.529   1.205   7.309 -0.5521  0.3670  0.5263
 8616TIP3    H150043   5.604   1.212   7.251 -0.2352  0.1591  0.9002
 8616TIP3    H250044   5.567   1.192   7.396 -0.9875 -2.1941  0.4179
 8617TIP3   OH250045   6.309   0.814   5.871 -0.0204 -0.2518 -1.1354
 8617TIP3    H150046   6.393   0.831   5.914 -0.5383 -1.1543  0.3047
 8617TIP3    H250047   6.248   0.797   5.943 -1.1334 -0.9320 -2.2005
 8618TIP3   OH250048   2.344   6.240   8.655  0.2735  0.3296 -0.4300
 8618TIP3    H150049   2.418   6.212   8.601  1.3151  1.7141  0.2336
 8618TIP3    H250050   2.356   6.334   8.667 -1.4644  0.5479 -0.0835
 8619TIP3   OH250051   3.390   0.507   6.362  0.1288  0.4101 -0.1205
 8619TIP3    H150052   3.329   0.527   6.290  0.0992 -0.6019 -0.3985
 8619TIP3    H250053   3.473   0.490   6.318  0.3103  0.5787  0.1593
 8620TIP3   OH250054   4.506   6.667   7.442  0.1782  0.3542  0.0721
 8620TIP3    H150055   4.438   6.723   7.404 -0.0091  0.1272  0.0711
 8620TIP3    H250056   4.570   6.656   7.372  0.9146  1.6839  0.4893
 8621TIP3   OH250057   4.917   4.015   6.198  0.3326  0.0410  0.1067
 8621TIP3    H150058   4.852   3.995   6.130  1.7745 -0.5634 -1.1752
 8621TIP3    H250059   4.955   3.930   6.221  0.3976  0.3364  1.1225
 8622TIP3   OH250060   5.086   0.119   5.968  0.0986 -0.1298 -0.2715
 8622TIP3    H150061   5.039   0.166   5.899  0.4084 -1.7739 -1.6597
 8622TIP3    H250062   5.170   0.165   5.975  1.3487 -1.7186 -3.2400
 8623TIP3   OH250063   4.250   3.996   5.894  0.7299  0.2340 -0.3069
 8623TIP3    H150064   4.313   3.962   5.957 -2.1125 -0.8565  2.1775
 8623TIP3    H250065   4.231   4.084   5.925 -2.2995 -1.0418  1.9506
 8624TIP3   OH250066   3.757   6.395   7.121  0.5642 -0.3771  1.1315
 8624TIP3    H150067   3.814   6.456   7.075 -0.3677 -1.0010 -1.0065
 8624TIP3    H250068   3.804   6.311   7.117  0.5614 -0.3957  1.4846
 8625TIP3   OH250069   4.640   1.829   6.121  0.0572 -0.0306 -0.3505
 8625TIP3    H150070   4.641   1.925   6.121  0.2365 -0.0190  0.4600
 8625TIP3    H250071   4.604   1.805   6.036 -0.4671  0.7636 -0.3651
 8626TIP3   OH250072   1.842   6.079   6.958  0.4431  0.0444 -0.1158
 8626TIP3    H150073   1.910   6.035   7.011 -1.0575 -0.3087  1.6228
 8626TIP3    H250074   1.821   6.016   6.890  2.4298  0.5103 -1.2633
 8627TIP3   OH250075   5.910   2.214   7.490  0.5093 -0.7174 -0.4081
 8627TIP3    H150076   5.893   2.121   7.509 -0.0394 -0.4425  0.5395
 8627TIP3    H250077   5.903   2.221   7.395 -0.9155 -1.3725 -0.3734
 8628TIP3   OH250078   0.258   3.002   6.299 -0.7307 -0.0337 -0.8118
 8628TIP3    H150079   0.338   2.988   6.350 -0.6950  1.5083 -0.3787
 8628TIP3    H250080   0.188   2.968   6.354 -0.6887  1.5783  0.3113
 8629TIP3   OH250081   4.876   5.938   6.353 -0.1858  0.5517  0.3218
 8629TIP3    H150082   4.958   5.980   6.330 -0.9766  1.2657 -1.3898
 8629TIP3    H250083   4.833   5.999   6.413 -0.5902  1.4178 -0.8294
 8630TIP3   OH250084   5.836   2.836   5.830  0.0957 -0.1328  0.0736
 8630TIP3    H150085   5.835   2.928   5.855  0.8921  0.2322 -1.1655
 8630TIP3    H250086   5.756   2.800   5.869 -1.3562  1.5652 -1.1739
 8631TIP3   OH250087   0.295   5.557   7.153  0.0494 -0.6118  0.9959
 8631TIP3    H150088   0.376   5.603   7.174  0.7531 -1.8939  1.1568
 8631TIP3    H250089   0.293   5.551   7.058 -0.1304 -0.1183  0.9651
 8632TIP3   OH250090   0.768   4.478   7.870  0.2450  0.0112  0.1328
 8632TIP3    H150091   0.716   4.524   7.936 -0.1832  1.7407 -1.3600
 8632TIP3    H250092   0.785   4.543   7.802  0.6240 -1.7203 -1.5207
 8633TIP3   OH250093   2.220   1.620   8.729 -0.3233 -0.4812 -0.3241
 8633TIP3    H150094   2.197   1.713   8.740 -2.4117 -0.5020 -3.3345
 8633TIP3    H250095   2.273   1.618   8.649 -0.9794 -1.9331 -0.7555
 8634TIP3   OH250096   6.019   5.640   7.501 -0.4933 -0.0266 -0.2824
 8634TIP3    H150097   5.950   5.590   7.544  0.5068 -1.0649  0.1599
 8634TIP3    H250098   5.975   5.681   7.426 -1.6821 -0.2758  0.2484
 8635TIP3   OH250099   0.832   0.147   7.520  0.3818 -0.5548 -0.1106
 8635TIP3    H150100   0.840   0.121   7.612  1.6547 -0.0966 -0.0622
 8635TIP3    H250101   0.747   0.114   7.492  0.2098 -1.1625  1.0872
 8636TIP3   OH250102   5.698   3.314   7.380 -0.1297 -0.2513  0.0231
 8636TIP3    H150103   5.729   3.318   7.471 -1.1706 -0.4917  0.4069
 8636TIP3    H250104   5.777   3.324   7.327  0.1169  5.9017  0.7656
 8637TIP3   OH250105   6.074   3.394   7.728 -0.0669  0.2469  0.3681
 8637TIP3    H150106   5.996   3.368   7.679 -0.8084  2.4275  0.2439
 8637TIP3    H250107   6.141   3.406   7.662 -0.1388  0.0426  0.2592
 8638TIP3   OH250108   0.902   0.177   5.654  0.1899 -0.1455 -0.5858
 8638TIP3    H150109   0.909   0.087   5.686  0.9170 -0.2473 -1.0088
 8638TIP3    H250110   0.809   0.198   5.660  0.1956 -0.4277  0.8567
 8639TIP3   OH250111   3.375   0.262   8.253  0.6149 -0.3357 -0.5069
 8639TIP3    H150112   3.298   0.249   8.309 -0.0243  2.9004 -0.4619
 8639TIP3    H250113   3.435   0.192   8.279  0.1099  0.5757  3.8491
 8640TIP3   OH250114   2.905   1.897   9.130  0.0040 -0.1235  0.0046
 8640TIP3    H150115   2.963   1.969   9.154  1.5641  0.0264 -3.5466
 8640TIP3    H250116   2.816   1.933   9.140  0.7113  1.8524 -0.3294
 8641TIP3   OH250117   3.846   1.879   6.638  0.0725  0.7545 -0.4098
 8641TIP3    H150118   3.806   1.792   6.629  1.4793  0.0494 -0.1186
 8641TIP3    H250119   3.772   1.940   6.638 -1.0238 -0.5238  0.3742
 8642TIP3   OH250120   1.961   3.112   9.197  0.2742 -0.0470  0.4851
 8642TIP3    H150121   1.953   3.022   9.229 -1.4347 -0.3472 -0.6119
 8642TIP3    H250122   1.993   3.102   9.107  1.4609  0.5554  0.8178
 8643TIP3   OH250123   0.387   1.551   6.612 -0.4203 -0.2371  0.1508
 8643TIP3    H150124   0.298   1.548   6.578 -0.9895 -1.2443  1.6081
 8643TIP3    H250125   0.395   1.638   6.651 -1.0486 -0.3798  0.6345
 8644TIP3   OH250126   5.682   5.090   6.889 -0.4151  0.2239 -0.2564
 8644TIP3    H150127   5.649   5.033   6.819 -0.5396 -3.2079  2.3441
 8644TIP3    H250128   5.604   5.131   6.925 -0.6971 -0.2027 -0.3661
 8645TIP3   OH250129   0.704   1.223   6.446  0.4470  0.3952  0.0600
 8645TIP3    H150130   0.696   1.173   6.364  0.6155  2.2082 -1.1162
 8645TIP3    H250131   0.783   1.275   6.434  2.1298 -1.3271  2.5845
 8646TIP3   OH250132   4.290   6.138   6.399 -0.2359 -0.6779  0.1232
 8646TIP3    H150133   4.248   6.221   6.376  0.1994 -0.8004 -1.1747
 8646TIP3    H250134   4.217   6.077   6.413 -0.5513 -0.1255  0.9582
 8647TIP3   OH250135   6.002   4.408   7.090 -0.4421 -0.0658  0.1846
 8647TIP3    H150136   6.000   4.503   7.102 -0.5454  0.0390 -0.6144
 8647TIP3    H250137   6.071   4.393   7.025 -1.4672 -0.3900 -0.8646
 8648TIP3   OH250138   2.799   0.007   7.814  0.1961  0.1388  0.0883
 8648TIP3    H150139   2.865  -0.031   7.756  2.2960  1.1182  1.7102
 8648TIP3    H250140   2.729  -0.059   7.816  0.5433 -0.4417 -2.5486
 8649TIP3   OH250141   4.940   2.194   8.043 -0.7370 -0.8101  0.0467
 8649TIP3    H150142   4.902   2.223   7.960  0.2495 -1.5533 -0.6893
 8649TIP3    H250143   4.996   2.267   8.070  0.4062 -1.2998 -0.9243
 8650TIP3   OH250144   0.877   3.372   7.632  0.2292  0.4593  0.8990
 8650TIP3    H150145   0.872   3.466   7.614 -0.3306  0.2603 -0.0120
 8650TIP3    H250146   0.971   3.356   7.645  0.3606  1.0914  0.8031
 8651TIP3   OH250147   1.716   5.096   9.272 -0.0595  0.3206  0.1992
 8651TIP3    H150148   1.745   5.123   9.359 -0.5161  2.2290 -0.1884
 8651TIP3    H250149   1.736   5.003   9.267  3.0512  0.8096  1.1267
 8652TIP3   OH250150   6.438   2.372   7.921  0.1432  0.3829 -0.5659
 8652TIP3    H150151   6.465   2.301   7.863 -0.0117 -0.1028 -0.0517
 8652TIP3    H250152   6.511   2.382   7.981 -0.8719 -1.1449  1.0269
 8653TIP3   OH250153   0.388   4.737   8.652 -0.2704 -0.1362  0.3761
 8653TIP3    H150154   0.430   4.803   8.596 -3.4729  1.4661 -0.3562
 8653TIP3    H250155   0.358   4.785   8.728  1.8785 -1.8540  2.4457
 8654TIP3   OH250156   1.421   4.790   7.552 -0.1733  0.0259  0.2225
 8654TIP3    H150157   1.459   4.703   7.536 -0.4620 -0.1691  0.5787
 8654TIP3    H250158   1.442   4.840   7.473  0.3388 -0.2468  0.1806
 8655TIP3   OH250159   6.009   6.703   7.250 -0.2457  0.1780 -0.1392
 8655TIP3    H150160   6.092   6.688   7.294  0.0200 -0.8396 -0.9258
 8655TIP3    H250161   6.026   6.680   7.158 -1.7733 -1.6773 -0.0394
 8656TIP3   OH250162   0.904   4.354   8.357  0.1627 -0.7866  0.2322
 8656TIP3    H150163   0.921   4.448   8.349  0.0803 -0.7538  0.4501
 8656TIP3    H250164   0.932   4.318   8.273  0.1614 -0.5625  0.1345
 8657TIP3   OH250165   5.158   5.688   5.497  0.2010  0.2283  0.8983
 8657TIP3    H150166   5.063   5.681   5.486  0.1681 -0.5727  1.6321
 8657TIP3    H250167   5.174   5.659   5.587  1.2014 -0.1905  0.5947
 8658TIP3   OH250168   5.858   1.353   6.802 -0.1625  0.7382 -0.3535
 8658TIP3    H150169   5.847   1.351   6.707  0.1812 -0.3842 -0.3810
 8658TIP3    H250170   5.894   1.440   6.820 -0.0540  0.8932 -1.2676
 8659TIP3   OH250171   5.325   0.601   8.546  0.1263  0.2811 -0.2531
 8659TIP3    H150172   5.369   0.541   8.485 -0.7699 -0.5288 -0.1383
 8659TIP3    H250173   5.377   0.597   8.626 -0.8697 -1.7724  0.3718
 8660TIP3   OH250174   2.980   2.361   7.973  0.5099 -0.4535 -0.7710
 8660TIP3    H150175   3.033   2.310   7.912 -0.9878 -2.3215 -0.6025
 8660TIP3    H250176   2.927   2.418   7.918  1.0735 -0.1984 -1.0529
 8661TIP3   OH250177   6.268   3.891   5.425 -0.3845  0.3757  0.1795
 8661TIP3    H150178   6.358   3.884   5.392 -0.6671 -1.3841 -0.3498
 8661TIP3    H250179   6.276   3.945   5.504  0.8752  1.5794 -0.7161
 8662TIP3   OH250180   6.708   1.503   6.837 -0.1277 -0.0378  0.4131
 8662TIP3    H150181   6.707   1.531   6.745  1.5103 -0.0694  0.3541
 8662TIP3    H250182   6.759   1.570   6.882  1.2295 -1.2699  0.8139
 8663TIP3   OH250183   5.468   3.506   5.853 -0.0583  0.2092  0.1885
 8663TIP3    H150184   5.471   3.602   5.858 -1.6971  0.2468  1.4351
 8663TIP3    H250185   5.544   3.477   5.904 -0.2741  0.8577  0.9069
 8664TIP3   OH250186   3.974   6.050   7.920  0.0971  0.3803  0.1833
 8664TIP3    H150187   3.942   6.139   7.934  0.9179  0.3008  3.2845
 8664TIP3    H250188   4.013   6.025   8.004  0.4606 -2.6957 -0.7814
 8665TIP3   OH250189   6.618   5.502   5.457 -0.2057 -0.2336  0.1796
 8665TIP3    H150190   6.559   5.565   5.416 -1.3486 -0.3456  1.5613
 8665TIP3    H250191   6.595   5.504   5.550  2.9753  0.8138  1.0908
 8666TIP3   OH250192   4.092   5.851   6.895 -0.0926  0.2097  0.0764
 8666TIP3    H150193   4.039   5.825   6.820 -0.2505 -2.1857  0.9355
 8666TIP3    H250194   4.182   5.835   6.868 -0.1766 -1.1217  0.5255
 8667TIP3   OH250195   6.606   5.284   6.999  0.5973 -0.7153  0.1518
 8667TIP3    H150196   6.555   5.277   6.918  0.3853  0.8515  0.1130
 8667TIP3    H250197   6.566   5.357   7.046  2.1450 -0.1302  0.6221
 8668TIP3   OH250198   1.633   4.823   7.317  0.3329  0.2615 -0.4928
 8668TIP3    H150199   1.692   4.818   7.241  0.4930 -1.1066 -0.2932
 8668TIP3    H250200   1.600   4.734   7.328  0.2211  0.4595  0.9781
 8669TIP3   OH250201   3.829   5.547   5.148 -0.1792 -0.1083 -0.1049
 8669TIP3    H150202   3.838   5.505   5.234 -1.7923  0.4040  0.3393
 8669TIP3    H250203   3.919   5.560   5.118  0.4108 -2.3840  0.4655
 8670TIP3   OH250204   5.031   0.376   6.726 -0.0104 -0.2873  0.4497
 8670TIP3    H150205   4.985   0.376   6.642  1.6096 -2.6111 -0.5622
 8670TIP3    H250206   4.968   0.340   6.788 -0.6078 -0.4000 -0.2116
 8671TIP3   OH250207   2.451   0.485   8.459 -0.3014  0.1983  0.1029
 8671TIP3    H150208   2.508   0.527   8.394  1.1905  1.7753  2.2751
 8671TIP3    H250209   2.505   0.416   8.496 -0.2914  0.7731  1.1895
 8672TIP3   OH250210   0.827   6.300   9.140  0.0611 -0.5652  0.1447
 8672TIP3    H150211   0.772   6.378   9.137  0.2160 -0.4855 -0.8635
 8672TIP3    H250212   0.909   6.330   9.179  0.7723  0.2153 -1.8141
 8673TIP3   OH250213   3.489   3.041   7.651  0.6726  0.6306 -0.4728
 8673TIP3    H150214   3.553   2.973   7.672 -0.5351 -0.8087 -1.3120
 8673TIP3    H250215   3.406   2.995   7.641 -0.9436  2.6099  2.2960
 8674TIP3   OH250216   0.832   2.325   7.808 -0.0296 -0.3410  0.3095
 8674TIP3    H150217   0.776   2.402   7.795  0.5094  0.0356  0.2066
 8674TIP3    H250218   0.920   2.360   7.820  0.0642 -0.8871  1.3001
 8675TIP3   OH250219   1.292   1.837   7.198 -0.2660  0.7116 -0.5498
 8675TIP3    H150220   1.342   1.763   7.234 -2.1336 -0.3011  0.0569
 8675TIP3    H250221   1.359   1.903   7.178  1.4281 -0.9857 -0.7950
 8676TIP3   OH250222   3.587   1.663   8.835  0.2510  0.3854 -0.0556
 8676TIP3    H150223   3.664   1.718   8.822 -0.8485  2.2682  0.8624
 8676TIP3    H250224   3.547   1.697   8.916 -0.3460 -1.9917  0.7243
 8677TIP3   OH250225   3.804   6.091   6.800 -0.1039  0.2913  0.1550
 8677TIP3    H150226   3.844   6.008   6.772  1.8936  1.1169  0.3652
 8677TIP3    H250227   3.840   6.156   6.739 -2.4280  0.9227 -0.6584
 8678TIP3   OH250228   5.061   1.231   7.820 -0.6197 -0.3614 -0.8320
 8678TIP3    H150229   5.021   1.240   7.734 -0.9916  0.6011 -0.5705
 8678TIP3    H250230   4.993   1.259   7.881  0.8301  2.6416 -0.4428
 8679TIP3   OH250231   2.644   3.236   6.197  0.1648 -0.9369 -0.2138
 8679TIP3    H150232   2.678   3.267   6.113 -1.1999 -0.2643 -0.5531
 8679TIP3    H250233   2.582   3.168   6.174 -0.4883 -0.4990  0.2198
 8680TIP3   OH250234   1.677   5.897   9.161  0.4896  0.5899  0.0947
 8680TIP3    H150235   1.773   5.889   9.159  0.3806 -0.9255 -2.0844
 8680TIP3    H250236   1.646   5.807   9.167 -0.7819  0.8650 -1.6126
 8681TIP3   OH250237   4.851   0.209   6.951  0.1375 -0.1171 -0.1799
 8681TIP3    H150238   4.897   0.257   7.020  0.8071 -0.4031 -0.4210
 8681TIP3    H250239   4.760   0.237   6.959  0.4030  0.6807  0.1142
 8682TIP3   OH250240   1.663   4.233   6.471 -0.0724  0.2052  0.3764
 8682TIP3    H150241   1.643   4.153   6.422  0.5484  0.0125  0.4261
 8682TIP3    H250242   1.635   4.304   6.414  0.4598 -0.0233 -0.1882
 8683TIP3   OH250243   1.001   0.596   6.427 -0.2611 -0.4168  0.6557
 8683TIP3    H150244   0.927   0.556   6.474 -0.0346 -0.4815  0.9578
 8683TIP3    H250245   1.022   0.533   6.358 -0.6615 -0.2740  0.4014
 8684TIP3   OH250246   3.941   5.364   8.192 -0.1016  0.0625 -0.6316
 8684TIP3    H150247   3.939   5.298   8.262  4.3088 -0.5961 -0.8390
 8684TIP3    H250248   3.911   5.317   8.114  0.4214 -0.9337 -0.2495
 8685TIP3   OH250249   0.902   3.750   8.913  0.0870 -0.2395 -0.7251
 8685TIP3    H150250   0.935   3.664   8.938  1.2281  0.4997  0.4896
 8685TIP3    H250251   0.931   3.761   8.822  1.6519 -0.3735 -0.2697
 8686TIP3   OH250252   2.078   1.340   8.628  0.0718 -0.3312  0.1534
 8686TIP3    H150253   1.988   1.372   8.637 -0.3816 -0.5256 -2.7142
 8686TIP3    H250254   2.128   1.417   8.602  0.2204 -0.6866 -0.6429
 8687TIP3   OH250255   2.184   0.108   5.666 -0.2230  0.2236 -0.6679
 8687TIP3    H150256   2.215   0.066   5.747  0.7700 -0.1806 -1.2491
 8687TIP3    H250257   2.246   0.178   5.650  0.3380 -0.4946 -1.7564
 8688TIP3   OH250258   3.822   2.239   6.813  0.3583  0.3802  0.2700
 8688TIP3    H150259   3.745   2.267   6.861  0.2482  1.4460 -0.4918
 8688TIP3    H250260   3.890   2.302   6.837  0.7634 -0.0646  0.3066
 8689TIP3   OH250261   1.304   5.936   7.182 -0.2420  0.0781  0.2486
 8689TIP3    H150262   1.229   5.958   7.127  0.2124 -1.5872 -1.1204
 8689TIP3    H250263   1.342   5.859   7.141  2.0702  0.6984  1.0623
 8690TIP3   OH250264   2.016   1.032   6.295 -0.1926  0.3368 -0.5159
 8690TIP3    H150265   2.019   1.126   6.278  0.2957  0.1435 -1.6101
 8690TIP3    H250266   1.962   0.996   6.225  1.0769 -0.3909 -1.1823
 8691TIP3   OH250267   0.374   5.775   5.588 -0.1860 -0.0884  0.0835
 8691TIP3    H150268   0.327   5.703   5.630  0.1917 -1.7982 -2.2336
 8691TIP3    H250269   0.315   5.807   5.521  1.3002 -1.3144 -1.9135
 8692TIP3   OH250270   5.790   1.354   8.286  0.1791  0.0874 -0.7353
 8692TIP3    H150271   5.757   1.434   8.328  2.0093  0.6394 -0.2325
 8692TIP3    H250272   5.712   1.304   8.265 -0.9310  0.9660  1.0319
 8693TIP3   OH250273   1.507   4.330   5.991  0.3837  0.0778 -0.7558
 8693TIP3    H150274   1.543   4.379   5.917 -0.5994 -0.8171 -1.8675
 8693TIP3    H250275   1.414   4.319   5.970  0.4673 -1.8199 -0.3149
 8694TIP3   OH250276   5.012   5.032   7.457  0.5550  0.1136  0.3796
 8694TIP3    H150277   5.059   4.953   7.434  1.5554  0.7054  0.3387
 8694TIP3    H250278   4.946   5.004   7.521  0.9100 -0.7299  0.3834
 8695TIP3   OH250279   2.607   5.843   6.095  0.2403  0.2947 -0.0005
 8695TIP3    H150280   2.676   5.909   6.086  0.0048  0.4679 -0.5843
 8695TIP3    H250281   2.654   5.760   6.104  0.5355  0.2936 -1.2947
 8696TIP3   OH250282   1.166   0.281   8.544  0.3636  0.2316  0.1105
 8696TIP3    H150283   1.105   0.254   8.475  0.9968 -0.1484 -0.3043
 8696TIP3    H250284   1.116   0.270   8.625 -0.2643  0.3373 -0.2529
 8697TIP3   OH250285   0.191   5.914   5.769  0.4955 -0.6826  0.0461
 8697TIP3    H150286   0.235   5.869   5.696 -0.3715  0.5478 -1.2745
 8697TIP3    H250287   0.101   5.881   5.766 -0.4006  1.6267 -1.4879
 8698TIP3   OH250288   4.681   6.577   7.853 -0.8506 -0.3708 -0.4627
 8698TIP3    H150289   4.597   6.532   7.856 -0.4463 -1.1421 -0.4546
 8698TIP3    H250290   4.732   6.530   7.787 -0.1056 -0.5024  0.1848
 8699TIP3   OH250291   5.294   1.517   7.315  0.0237 -0.1975 -0.0635
 8699TIP3    H150292   5.360   1.503   7.247 -0.1890 -0.2093 -0.2703
 8699TIP3    H250293   5.270   1.429   7.343 -0.3413 -0.2167 -0.4173
 8700TIP3   OH250294   4.890   2.441   6.193  0.4071  0.0599 -0.1600
 8700TIP3    H150295   4.888   2.373   6.126  1.4677  0.2242 -0.3725
 8700TIP3    H250296   4.925   2.398   6.271  1.3935  0.4149 -0.3861
 8701TIP3   OH250297   1.197   3.675   7.099  0.7745  0.0100  0.1603
 8701TIP3    H150298   1.217   3.726   7.020  0.2467  0.5097  0.3439
 8701TIP3    H250299   1.120   3.718   7.137  0.7180 -0.5314  0.6759
 8702TIP3   OH250300   1.169   0.900   8.554 -0.6013  0.3842  0.1289
 8702TIP3    H150301   1.166   0.809   8.524 -0.3182  0.3883  0.0789
 8702TIP3    H250302   1.131   0.951   8.483 -0.5228  0.3288  0.0469
 8703TIP3   OH250303   4.746   3.770   7.710  0.1183 -0.6450  0.4857
 8703TIP3    H150304   4.833   3.749   7.677  0.0097 -2.3670  1.2063
 8703TIP3    H250305   4.734   3.863   7.688  0.9398 -1.0885 -2.2153
 8704TIP3   OH250306   0.232   1.233   5.502  0.4454  0.2319 -0.1525
 8704TIP3    H150307   0.290   1.290   5.552 -0.9754 -0.8949  3.0699
 8704TIP3    H250308   0.281   1.151   5.494 -0.4670 -0.6824  2.4732
 8705TIP3   OH250309   2.125   5.975   5.594 -0.4873 -0.2973  0.4279
 8705TIP3    H150310   2.068   6.035   5.545 -0.3056 -0.1991  0.3359
 8705TIP3    H250311   2.210   6.018   5.596 -0.8174  0.3272  2.0057
 8706TIP3   OH250312   1.061   3.793   5.684  0.2872  0.0716  0.2085
 8706TIP3    H150313   1.146   3.753   5.669  0.3181 -0.5364  1.7739
 8706TIP3    H250314   1.004   3.720   5.708 -0.8150  0.4022 -1.2513
 8707TIP3   OH250315   2.034   2.639   7.097  0.4707 -0.4427  0.4601
 8707TIP3    H150316   2.068   2.726   7.078 -1.0571  0.1929  0.5271
 8707TIP3    H250317   2.110   2.590   7.129  1.7395  0.3262 -1.2120
 8708TIP3   OH250318   4.689   1.072   8.173  0.3548 -0.5108  0.4318
 8708TIP3    H150319   4.622   1.030   8.227 -0.2686 -0.3534 -0.1988
 8708TIP3    H250320   4.650   1.076   8.086  0.3383  1.5137  0.5013
 8709TIP3   OH250321   3.381   6.497   7.469 -0.3018  0.1308 -0.2000
 8709TIP3    H150322   3.400   6.490   7.376  1.4074  0.1734  0.1202
 8709TIP3    H250323   3.452   6.550   7.504  0.2305 -1.5689  1.4629
 8710TIP3   OH250324   6.537   1.751   7.510 -0.4689  0.2948 -0.2157
 8710TIP3    H150325   6.579   1.667   7.530 -1.9331  0.0392  2.2364
 8710TIP3    H250326   6.589   1.816   7.556 -0.3569  0.5214 -0.6570
 8711TIP3   OH250327   0.158   6.551   9.059  0.0988 -0.6174  0.0666
 8711TIP3    H150328   0.236   6.509   9.094 -1.4058 -2.8046  1.0652
 8711TIP3    H250329   0.085   6.498   9.093 -1.7880  0.8824 -1.3863
 8712TIP3   OH250330   1.087   5.969   9.610  0.0931  0.2291  0.0919
 8712TIP3    H150331   1.015   5.980   9.549 -0.3736  0.6357  0.7073
 8712TIP3    H250332   1.154   5.922   9.560 -1.4221 -2.1607  0.1453
 8713TIP3   OH250333   4.659   6.165   6.879 -0.0824  0.3380 -0.0819
 8713TIP3    H150334   4.705   6.247   6.860  0.4653 -0.2085 -1.2340
 8713TIP3    H250335   4.604   6.151   6.802 -0.7650  0.0261  0.4615
 8714TIP3   OH250336   1.261   3.229   6.267  0.2868 -0.3949 -0.7196
 8714TIP3    H150337   1.291   3.282   6.340  2.7896 -1.9670 -0.4905
 8714TIP3    H250338   1.217   3.154   6.308  1.6273 -1.2403 -0.7818
 8715TIP3   OH250339   3.944   3.026   7.200  0.1516 -0.0920 -0.0397
 8715TIP3    H150340   3.954   2.931   7.193 -1.2415 -0.2447 -0.2276
 8715TIP3    H250341   3.896   3.040   7.282  2.5178  0.6497  1.3064
 8716TIP3   OH250342   1.168   5.256   8.133 -0.2090 -0.7618  0.3637
 8716TIP3    H150343   1.177   5.220   8.222 -0.2385  0.2787  0.8033
 8716TIP3    H250344   1.239   5.216   8.084  0.0507 -1.0532  0.9623
 8717TIP3   OH250345   2.729   1.704   7.851 -0.2558  0.3542 -0.4320
 8717TIP3    H150346   2.641   1.668   7.868 -0.3529  1.2042  1.1150
 8717TIP3    H250347   2.713   1.796   7.832  0.3072  0.5471  0.0138
 8718TIP3   OH250348   2.533   4.799   6.262  0.2903  0.1522 -0.4145
 8718TIP3    H150349   2.584   4.880   6.264  1.7501 -0.7029  2.5704
 8718TIP3    H250350   2.593   4.735   6.224  1.0577 -0.5662  1.8799
 8719TIP3   OH250351   3.150   5.837   7.833 -0.2408  0.0261  0.0089
 8719TIP3    H150352   3.223   5.795   7.786 -1.0428 -2.2400  0.6459
 8719TIP3    H250353   3.187   5.859   7.918  0.3338  1.1307 -0.5121
 8720TIP3   OH250354   4.481   4.969   6.535  0.4619 -0.3889  0.6298
 8720TIP3    H150355   4.451   4.898   6.592 -0.9374 -0.3642 -0.0365
 8720TIP3    H250356   4.552   4.931   6.484  0.5147 -0.9550  1.1189
 8721TIP3   OH250357   2.273   4.629   7.328 -0.0469  0.5784 -0.2542
 8721TIP3    H150358   2.347   4.569   7.323  0.5699  1.2461  0.5976
 8721TIP3    H250359   2.310   4.710   7.362 -0.9622  1.2920 -0.9039
 8722TIP3   OH250360   1.075   2.809   5.594 -0.6408 -0.2544 -0.3778
 8722TIP3    H150361   1.005   2.794   5.531  0.5156  0.6453 -1.9407
 8722TIP3    H250362   1.094   2.721   5.629 -1.0575 -0.8343 -1.5582
 8723TIP3   OH250363   5.823   2.049   7.977 -0.4663  0.5695  0.5686
 8723TIP3    H150364   5.849   2.082   8.063 -1.9463  1.3761  0.7458
 8723TIP3    H250365   5.765   1.975   7.996 -0.5609  0.5630  0.2686
 8724TIP3   OH250366   1.308   3.618   6.154 -0.4170 -0.4544 -0.0221
 8724TIP3    H150367   1.385   3.601   6.209  1.2457  2.3808 -1.2374
 8724TIP3    H250368   1.334   3.588   6.066 -1.1101 -0.3919 -0.2545
 8725TIP3   OH250369   0.796   2.584   6.343 -0.5255  0.8102 -0.7082
 8725TIP3    H150370   0.701   2.595   6.345 -0.5189  0.8995  1.2202
 8725TIP3    H250371   0.825   2.616   6.429  0.9818 -1.5367 -0.2574
 8726TIP3   OH250372   0.180   1.734   6.950 -0.0801 -0.4495  0.3219
 8726TIP3    H150373   0.218   1.736   6.863  2.0827 -3.1526  1.0406
 8726TIP3    H250374   0.165   1.826   6.973  1.9300  0.4861 -1.7899
 8727TIP3   OH250375   0.150   4.339   7.522 -0.1769 -0.3401 -0.0630
 8727TIP3    H150376   0.102   4.389   7.588  1.1372  0.2163  0.5121
 8727TIP3    H250377   0.152   4.396   7.445  0.7055  0.2172  0.3588
 8728TIP3   OH250378   4.928   0.576   5.804  0.4234  0.7708  0.3045
 8728TIP3    H150379   4.961   0.663   5.779 -0.1881  1.0830  0.5593
 8728TIP3    H250380   4.934   0.575   5.899 -0.0899  0.7479  0.3376
 8729TIP3   OH250381   1.306   3.246   7.220 -0.1373  0.1260 -0.0318
 8729TIP3    H150382   1.235   3.184   7.203  1.3369 -1.5306 -0.4664
 8729TIP3    H250383   1.301   3.308   7.147 -0.2445 -0.8620 -0.8961
 8730TIP3   OH250384   4.675   3.170   8.688 -0.0662 -0.1697 -0.2541
 8730TIP3    H150385   4.583   3.164   8.714 -0.2516  2.1254 -0.2287
 8730TIP3    H250386   4.692   3.264   8.679  2.0029 -0.5815 -1.2738
 8731TIP3   OH250387   2.590   1.946   6.350 -0.1242 -0.6674 -0.0697
 8731TIP3    H150388   2.664   1.899   6.387  0.7651  0.8757  0.1882
 8731TIP3    H250389   2.533   1.965   6.425  0.1014 -0.3124  0.0131
 8732TIP3   OH250390   2.114   3.985   6.114  0.3837 -0.1094 -0.4052
 8732TIP3    H150391   2.069   3.953   6.192 -0.4599 -0.6319 -1.0986
 8732TIP3    H250392   2.055   3.965   6.042  1.8080 -1.0119 -1.3695
 8733TIP3   OH250393   3.870   5.957   6.059  0.2424  0.0435 -0.2539
 8733TIP3    H150394   3.865   5.866   6.089  1.3112 -0.1990 -0.7614
 8733TIP3    H250395   3.962   5.981   6.071 -0.1952  1.3439  0.6730
 8734TIP3   OH250396   2.964   6.090   7.031 -0.2482  0.6808 -0.4236
 8734TIP3    H150397   2.968   6.180   7.000  0.2573  1.2139  1.1229
 8734TIP3    H250398   2.898   6.091   7.101  2.3820  0.7343  2.2254
 8735TIP3   OH250399   1.659   3.890   9.023  0.5045 -0.2655 -0.8155
 8735TIP3    H150400   1.735   3.945   9.002  0.2779 -0.3345 -1.8891
 8735TIP3    H250401   1.641   3.908   9.115  0.6637  1.1958 -1.0406
 8736TIP3   OH250402   0.910   0.245   7.077 -0.2282  0.2207 -0.2417
 8736TIP3    H150403   0.925   0.194   6.998 -0.0325 -0.3631  0.1604
 8736TIP3    H250404   0.938   0.334   7.055  0.2973 -0.0473 -0.6710
 8737TIP3   OH250405   1.628   0.599   8.769 -0.1311  0.2664  0.4394
 8737TIP3    H150406   1.598   0.681   8.809  2.1331  0.9814  0.8371
 8737TIP3    H250407   1.700   0.570   8.825 -0.2754 -1.5188 -0.2298
 8738TIP3   OH250408   0.611   3.836   8.018  0.4121  0.1227  0.8251
 8738TIP3    H150409   0.635   3.920   8.057  0.5616  1.5829 -2.1623
 8738TIP3    H250410   0.694   3.788   8.012  0.7069  0.6589  0.5600
 8739TIP3   OH250411   1.272   1.799   8.046 -0.2438 -0.4851  0.3447
 8739TIP3    H150412   1.331   1.727   8.065  0.3265 -0.2933 -0.6580
 8739TIP3    H250413   1.262   1.844   8.130 -0.0315 -1.3004  0.8149
 8740TIP3   OH250414   1.874   2.355   5.643 -0.2614 -0.1013 -0.1234
 8740TIP3    H150415   1.899   2.290   5.577 -0.5512  0.5709 -0.9103
 8740TIP3    H250416   1.806   2.408   5.601  0.4743  1.1717  0.2215
 8741TIP3   OH250417   0.876   6.692   7.201 -0.2187 -0.2675  0.1233
 8741TIP3    H150418   0.864   6.775   7.155 -0.7138 -0.8881 -0.9006
 8741TIP3    H250419   0.941   6.711   7.268 -0.1512  0.8880 -0.2514
 8742TIP3   OH250420   0.114   0.929   6.310  0.2386  0.1301  0.2795
 8742TIP3    H150421   0.022   0.916   6.335  0.4744 -0.8037  0.7121
 8742TIP3    H250422   0.114   1.011   6.260 -0.5007  1.2527  2.0204
 8743TIP3   OH250423   6.579   1.264   8.629  0.0371  0.7117 -0.1613
 8743TIP3    H150424   6.516   1.336   8.622 -0.0772  0.5537 -0.7854
 8743TIP3    H250425   6.578   1.241   8.722 -1.0535  0.5121 -0.2091
 8744TIP3   OH250426   5.415   5.139   7.715 -0.4090  0.2954  0.1007
 8744TIP3    H150427   5.481   5.078   7.680  0.0782  1.0919 -0.4024
 8744TIP3    H250428   5.332   5.092   7.706 -0.4063  0.6394 -2.7221
 8745TIP3   OH250429   5.092   0.051   7.839  0.4343 -0.5918  0.5648
 8745TIP3    H150430   5.098   0.079   7.931  0.0755  0.5287  0.2648
 8745TIP3    H250431   5.129   0.124   7.790 -0.9141 -0.4394 -0.2786
 8746TIP3   OH250432   4.616   5.111   5.741  0.3948 -0.1695 -0.1237
 8746TIP3    H150433   4.540   5.067   5.779  0.6475 -0.7020 -0.2330
 8746TIP3    H250434   4.581   5.195   5.710 -0.2220 -0.5466 -0.4850
 8747TIP3   OH250435   6.590   0.674   7.395 -0.3041 -0.2027 -0.3246
 8747TIP3    H150436   6.651   0.608   7.426  1.6398  0.6850 -2.0592
 8747TIP3    H250437   6.609   0.751   7.449 -0.1000 -0.0128 -0.6663
 8748TIP3   OH250438   0.428   4.501   5.957 -0.0327 -0.2210 -0.3053
 8748TIP3    H150439   0.523   4.508   5.971 -0.0135  0.3827 -0.7237
 8748TIP3    H250440   0.394   4.470   6.041  0.3337  1.1704  0.3836
 8749TIP3   OH250441   4.055   2.835   6.360 -0.1850 -0.0304  0.3186
 8749TIP3    H150442   4.055   2.746   6.326  0.7405  0.2246 -0.3935
 8749TIP3    H250443   3.978   2.876   6.321 -1.2900 -0.8370  1.5759
 8750TIP3   OH250444   1.837   3.648   7.425 -0.4262 -0.0058  0.3993
 8750TIP3    H150445   1.791   3.651   7.341 -1.1476 -1.8063  0.6971
 8750TIP3    H250446   1.929   3.653   7.402 -0.6327  2.8842 -0.2581
 8751TIP3   OH250447   4.805   5.663   6.412  0.5933  0.5507  0.1054
 8751TIP3    H150448   4.821   5.744   6.363  1.3171  0.3395 -0.0180
 8751TIP3    H250449   4.728   5.625   6.371 -0.1344  1.4837  0.5595
 8752TIP3   OH250450   4.272   5.282   7.409 -0.1527 -0.0767  0.0979
 8752TIP3    H150451   4.279   5.356   7.348 -0.2465  0.4377  0.6938
 8752TIP3    H250452   4.223   5.317   7.483 -1.1266 -1.0483 -0.0625
 8753TIP3   OH250453   5.394   4.054   5.684  0.5757  1.1539  0.0227
 8753TIP3    H150454   5.431   4.056   5.772 -0.1191  1.2109  0.3225
 8753TIP3    H250455   5.321   3.992   5.691  3.2318 -2.4763 -1.6156
 8754TIP3   OH250456   6.263   1.214   7.820  0.1788 -0.4592 -0.0066
 8754TIP3    H150457   6.231   1.132   7.783  1.9181 -1.3234  0.2877
 8754TIP3    H250458   6.358   1.205   7.819  0.3847  1.2411  0.7669
 8755TIP3   OH250459   5.197   2.986   8.095 -0.0981  0.1678  0.1966
 8755TIP3    H150460   5.113   3.003   8.139 -0.4139  1.5231 -0.8657
 8755TIP3    H250461   5.235   3.073   8.083  0.8255 -0.3322 -0.5710
 8756TIP3   OH250462   2.316   4.202   6.372  0.0082 -0.1570  0.4284
 8756TIP3    H150463   2.367   4.144   6.315 -0.5663 -0.0695 -0.1735
 8756TIP3    H250464   2.380   4.234   6.436  0.5096 -0.7930  0.2551
 8757TIP3   OH250465   5.707   5.929   6.338 -0.2366 -0.0717 -0.0759
 8757TIP3    H150466   5.726   5.963   6.251  0.8604  0.3038  0.2926
 8757TIP3    H250467   5.616   5.900   6.333  0.1912 -1.2547 -1.7055
 8758TIP3   OH250468   4.734   0.217   8.761 -0.4913  0.3632  0.0356
 8758TIP3    H150469   4.686   0.135   8.757 -0.2032  0.2437 -1.5990
 8758TIP3    H250470   4.803   0.208   8.696  0.8002  1.1345  1.2354
 8759TIP3   OH250471   2.818   2.048   8.834 -0.2749  0.1000 -0.1997
 8759TIP3    H150472   2.766   1.981   8.878  0.1701  0.6783  1.2676
 8759TIP3    H250473   2.839   2.112   8.903  0.5063  1.0146 -1.2390
 8760TIP3   OH250474   5.817   0.912   6.777 -0.8000 -0.0239  0.2520
 8760TIP3    H150475   5.821   0.918   6.682 -1.2995  1.6067  0.3014
 8760TIP3    H250476   5.730   0.947   6.800 -0.4132  0.2825  1.3447
 8761TIP3   OH250477   6.115   0.612   7.201 -0.1710 -0.0281 -0.6207
 8761TIP3    H150478   6.086   0.672   7.132 -2.5212  1.1802  1.2480
 8761TIP3    H250479   6.168   0.667   7.260  0.0600 -0.5080 -0.3776
 8762TIP3   OH250480   6.515   4.185   5.779  0.0210 -0.3779 -0.5351
 8762TIP3    H150481   6.584   4.234   5.733  0.5633 -1.5061 -0.9752
 8762TIP3    H250482   6.469   4.251   5.830 -1.1678  1.1672 -3.3259
 8763TIP3   OH250483   4.911   1.373   8.001  0.2784  0.2242  0.4191
 8763TIP3    H150484   4.840   1.370   7.938  1.0255 -0.1155 -0.4242
 8763TIP3    H250485   4.882   1.437   8.066  0.4764  2.4232 -1.5039
 8764TIP3   OH250486   5.802   4.484  13.657  0.4267 -0.3159 -0.1136
 8764TIP3    H150487   5.751   4.509  13.580 -1.3154 -0.5628  0.8814
 8764TIP3    H250488   5.859   4.413  13.628  0.1701 -0.0548 -1.2800
 8765TIP3   OH250489   3.333   5.690   7.653  0.5260  0.2011  0.3762
 8765TIP3    H150490   3.411   5.642   7.627  0.4400  0.5044 -0.4942
 8765TIP3    H250491   3.267   5.623   7.667  1.0158 -0.0817  1.4397
 8766TIP3   OH250492   1.809   3.505   8.197 -0.0976 -0.3133  0.1521
 8766TIP3    H150493   1.777   3.463   8.277 -0.2802  1.4387  1.0632
 8766TIP3    H250494   1.881   3.561   8.227 -1.1162  1.5000 -0.6299
 8767TIP3   OH250495   3.470   4.073   6.890  0.0155 -0.6190 -0.3166
 8767TIP3    H150496   3.414   4.016   6.836  0.0262 -0.2381 -0.7367
 8767TIP3    H250497   3.542   4.017   6.917  0.9775 -0.3670 -2.2133
 8768TIP3   OH250498   4.006   6.407   7.286 -0.4164  0.0695  0.1657
 8768TIP3    H150499   3.922   6.369   7.311 -1.7065  2.4430 -0.3298
 8768TIP3    H250500   4.067   6.378   7.354 -1.7768 -1.0778  0.9480
 8769TIP3   OH250501   1.876   3.230   6.004 -0.1745  0.1334 -1.2074
 8769TIP3    H150502   1.972   3.228   5.997 -0.2174  0.4159 -2.0470
 8769TIP3    H250503   1.852   3.139   6.024  0.3626  0.3913  0.7507
 8770TIP3   OH250504   1.841   0.225   7.826 -0.1646  0.2519  0.4594
 8770TIP3    H150505   1.912   0.245   7.765 -0.7040 -1.0197 -0.6321
 8770TIP3    H250506   1.877   0.247   7.912  1.3379  0.2307 -0.1267
 8771TIP3   OH250507   4.850   2.526   7.457 -0.8561 -0.3845 -0.3645
 8771TIP3    H150508   4.934   2.552   7.496 -1.4262 -1.6883  1.9248
 8771TIP3    H250509   4.852   2.430   7.460 -2.3652 -0.4316 -0.4231
 8772TIP3   OH250510   4.375   4.872   5.483 -0.1188  0.4519  0.1838
 8772TIP3    H150511   4.358   4.861   5.577 -2.6475  0.2268 -0.2164
 8772TIP3    H250512   4.304   4.928   5.453  1.8135  2.2733 -1.2850
 8773TIP3   OH250513   6.676   0.118   7.155  0.0730 -0.1976 -0.1490
 8773TIP3    H150514   6.661   0.179   7.083 -1.0737 -0.9454 -0.5751
 8773TIP3    H250515   6.597   0.126   7.209  0.4010 -0.5041  0.3815
 8774TIP3   OH250516   4.482   6.171   8.519 -0.3438  0.3434 -0.3193
 8774TIP3    H150517   4.502   6.126   8.437 -0.2066  2.1727 -1.3410
 8774TIP3    H250518   4.557   6.228   8.534  0.8592 -1.7401  2.4859
 8775TIP3   OH250519   0.636   2.124   6.045 -0.3734 -1.0131 -0.0500
 8775TIP3    H150520   0.599   2.094   6.128 -1.5019  0.5796  0.0844
 8775TIP3    H250521   0.614   2.218   6.041  1.9984 -0.4173 -0.9158
 8776TIP3   OH250522   3.362   1.316  16.525  0.3024  0.2037 -0.2240
 8776TIP3    H150523   3.418   1.389  16.497 -0.0768  0.1581 -1.1340
 8776TIP3    H250524   3.377   1.248  16.460 -0.4200  0.0009 -0.1909
 8777TIP3   OH250525   0.390   0.826   6.553 -0.3370 -0.2574  0.3868
 8777TIP3    H150526   0.421   0.755   6.610 -0.5319 -1.5306 -1.0378
 8777TIP3    H250527   0.461   0.890   6.554 -0.8816  0.4688  3.1304
 8778TIP3   OH250528   5.895   1.815   8.380  0.7196  0.1826 -0.5229
 8778TIP3    H150529   5.952   1.776   8.446 -0.8390 -1.1736  0.0906
 8778TIP3    H250530   5.904   1.909   8.393  1.2848 -0.0408  0.8869
 8779TIP3   OH250531   0.932   1.541   6.960  0.3980 -0.0832 -0.3697
 8779TIP3    H150532   0.894   1.454   6.969  1.2217 -0.5338 -1.0907
 8779TIP3    H250533   0.911   1.586   7.042  0.5444 -1.1879  0.2843
 8780TIP3   OH250534   6.029   0.964   5.972 -0.4068 -0.0177 -0.3284
 8780TIP3    H150535   5.967   0.892   5.977  0.1039 -0.4635 -0.4065
 8780TIP3    H250536   6.089   0.950   6.045 -1.2464  1.2303  0.6725
 8781TIP3   OH250537   6.031   3.312   5.921 -0.3378 -0.1212 -0.1485
 8781TIP3    H150538   6.082   3.367   5.860  1.0986 -1.4209 -0.1772
 8781TIP3    H250539   6.067   3.332   6.007 -0.3290 -0.4701 -0.0708
 8782TIP3   OH250540   4.077   1.807   7.230  0.2335  0.2595  0.0628
 8782TIP3    H150541   4.067   1.861   7.308  0.4403 -0.5428  0.6583
 8782TIP3    H250542   4.105   1.868   7.162 -0.2021  1.0125  0.5428
 8783TIP3   OH250543   5.809   1.178   7.795  0.7065  0.2459 -0.0407
 8783TIP3    H150544   5.747   1.234   7.841  1.1743  1.2078 -0.5646
 8783TIP3    H250545   5.808   1.096   7.844 -1.3001  0.0699 -0.2901
 8784TIP3   OH250546   2.447   2.790   5.562  0.3103 -0.3986  0.9336
 8784TIP3    H150547   2.470   2.875   5.601 -0.4110  0.1528  0.2012
 8784TIP3    H250548   2.531   2.751   5.538  0.6068  0.5374  0.4122
 8785TIP3   OH250549   2.419   0.061   6.292  0.0882  0.6717  0.0668
 8785TIP3    H150550   2.411   0.001   6.218 -0.6653  1.1222 -0.2371
 8785TIP3    H250551   2.387   0.145   6.258 -0.0690  0.9373  0.8388
 8786TIP3   OH250552   0.435   2.227   6.826  0.0648 -0.5437 -0.2958
 8786TIP3    H150553   0.470   2.159   6.884  0.3730 -1.5647 -1.6485
 8786TIP3    H250554   0.501   2.297   6.829  0.0535 -0.5549  0.5965
 8787TIP3   OH250555   1.484   0.571   5.735  0.0585 -0.0947  0.2238
 8787TIP3    H150556   1.529   0.602   5.813 -0.4865  1.9773 -0.2228
 8787TIP3    H250557   1.553   0.539   5.678  0.9521  2.2131 -0.0864
 8788TIP3   OH250558   5.286   5.436   7.002 -0.2634 -0.2061  0.0170
 8788TIP3    H150559   5.269   5.368   6.936 -0.2451 -0.6828  0.5023
 8788TIP3    H250560   5.215   5.425   7.066  0.9528 -1.2092  1.2500
 8789TIP3   OH250561   0.057   2.278   6.014  0.2438  0.3498 -0.0827
 8789TIP3    H150562  -0.024   2.245   5.976  0.2599  0.3336 -0.1025
 8789TIP3    H250563   0.125   2.221   5.979  0.1789 -0.1237  0.5573
 8790TIP3   OH250564   0.358   6.142   6.400  0.2384  0.1717 -0.2593
 8790TIP3    H150565   0.404   6.110   6.477  1.8548 -0.3589 -1.3727
 8790TIP3    H250566   0.333   6.063   6.352 -1.1596  0.4832 -0.0773
 8791TIP3   OH250567   0.047   2.548   5.736  0.4029  0.0503 -0.2164
 8791TIP3    H150568   0.054   2.623   5.676  2.9832 -0.8499 -1.2154
 8791TIP3    H250569   0.108   2.570   5.807  0.2292 -0.5427  0.1133
 8792TIP3   OH250570   5.705   2.809   6.092 -0.5258  0.4855 -0.5446
 8792TIP3    H150571   5.722   2.903   6.088 -0.0309  0.4443  0.2740
 8792TIP3    H250572   5.647   2.798   6.168  0.1156  0.0480 -0.1066
 8793TIP3   OH250573   0.920   4.039   6.566 -0.5376  0.2890 -0.3580
 8793TIP3    H150574   0.848   4.102   6.562 -1.0212 -0.3122 -1.5871
 8793TIP3    H250575   0.993   4.083   6.522 -0.1698  0.8331  0.7434
 8794TIP3   OH250576   4.756   3.691   5.248 -0.1881 -0.0339  0.6351
 8794TIP3    H150577   4.799   3.665   5.166 -1.1508 -1.5862  0.5891
 8794TIP3    H250578   4.747   3.786   5.241  0.7941  0.0037 -0.5281
 8795TIP3   OH250579   4.078   6.625   6.216  0.1757  0.3234  0.4582
 8795TIP3    H150580   4.049   6.590   6.132  0.5887 -0.7169  0.7349
 8795TIP3    H250581   4.044   6.714   6.218 -2.0924 -0.4626  0.3052
 8796TIP3   OH250582   4.976   6.102   6.635  0.1437  0.3039  0.2457
 8796TIP3    H150583   4.894   6.088   6.682  0.6569 -0.4307  0.9669
 8796TIP3    H250584   4.957   6.170   6.571 -0.6938  1.0127  1.2293
 8797TIP3   OH250585   1.634   2.595   7.658 -0.5824 -0.1721 -0.3110
 8797TIP3    H150586   1.651   2.605   7.565  0.4280  0.0742 -0.1155
 8797TIP3    H250587   1.605   2.682   7.686  0.9050  0.2638 -0.0553
 8798TIP3   OH250588   1.164   5.095   5.555 -0.2556  0.5323  0.6093
 8798TIP3    H150589   1.197   5.162   5.616 -0.6256  0.1924  1.1894
 8798TIP3    H250590   1.134   5.145   5.479  1.1440  0.8962  0.2551
 8799TIP3   OH250591   2.312   3.765   8.191  0.6293 -0.3688 -0.3468
 8799TIP3    H150592   2.282   3.847   8.230 -0.0251  0.0973 -1.7690
 8799TIP3    H250593   2.407   3.772   8.189  0.9292 -1.3761  3.1719
 8800TIP3   OH250594   3.206   5.593   8.247  0.1539  0.4487 -0.2616
 8800TIP3    H150595   3.111   5.602   8.254  0.1281  1.1565 -1.2977
 8800TIP3    H250596   3.242   5.663   8.302  0.0667  0.5651 -0.3536
 8801TIP3   OH250597   5.941   5.168   7.889  0.2927  0.3774 -0.9104
 8801TIP3    H150598   5.994   5.100   7.932  0.6726  0.1488 -1.7149
 8801TIP3    H250599   6.003   5.240   7.875  0.1814  0.4374 -1.0922
 8802TIP3   OH250600   4.447   3.892   6.086 -0.1005  0.0239  0.1839
 8802TIP3    H150601   4.396   3.908   6.166  0.8308 -1.9502  1.2673
 8802TIP3    H250602   4.538   3.891   6.117  0.3214 -0.1506 -1.0301
 8803TIP3   OH250603   2.534   6.227   7.786 -0.5495  0.0188  0.2567
 8803TIP3    H150604   2.482   6.220   7.706  0.6465  2.5902 -0.8499
 8803TIP3    H250605   2.621   6.194   7.762  0.0490  1.5592  0.2037
 8804TIP3   OH250606   2.183   1.216   5.541 -0.6367  0.2436 -0.7513
 8804TIP3    H150607   2.111   1.153   5.548 -0.0634 -0.3780 -0.3337
 8804TIP3    H250608   2.144   1.299   5.568 -0.9557 -0.2851  0.5110
 8805TIP3   OH250609   4.534   6.392   5.760 -0.6279 -0.3565  0.0400
 8805TIP3    H150610   4.598   6.381   5.690  0.1195  0.3531  0.5980
 8805TIP3    H250611   4.566   6.467   5.810 -1.0276 -0.9836  1.2684
 8806TIP3   OH250612   6.448   5.173   8.045  0.3550  0.0847  0.2488
 8806TIP3    H150613   6.355   5.184   8.026  0.4832  0.2761 -0.2808
 8806TIP3    H250614   6.472   5.092   8.000  0.8415  0.9495 -1.0910
 8807TIP3   OH250615   0.306   4.447   5.725  0.1509 -0.0541 -0.0456
 8807TIP3    H150616   0.356   4.466   5.804  0.2633 -1.1095  0.1495
 8807TIP3    H250617   0.244   4.379   5.751 -0.8949  0.7031 -0.4716
 8808TIP3   OH250618   2.678   4.646   7.997  0.0872  0.2477 -0.6551
 8808TIP3    H150619   2.620   4.615   7.927 -2.2246  1.2112  0.7146
 8808TIP3    H250620   2.701   4.568   8.047 -0.9602 -0.0222 -0.5829
 8809TIP3   OH250621   0.388   5.039   6.420  0.3465  0.0818  0.4956
 8809TIP3    H150622   0.313   4.986   6.396  0.1327  0.1304  1.0409
 8809TIP3    H250623   0.352   5.127   6.433  0.6703  0.3344 -0.2391
 8810TIP3   OH250624   0.137   6.342   8.587 -0.5479 -0.3864 -0.3339
 8810TIP3    H150625   0.145   6.247   8.580  2.0520 -0.3094  0.6272
 8810TIP3    H250626   0.145   6.361   8.680 -0.4986  0.8328 -0.5635
 8811TIP3   OH250627   1.474   6.574   6.387 -0.7737 -0.2315  0.1778
 8811TIP3    H150628   1.411   6.546   6.455 -1.6893  0.7750 -0.2370
 8811TIP3    H250629   1.458   6.667   6.376  0.2748 -0.1192 -0.5047
 8812TIP3   OH250630   3.343   0.723   8.068 -0.1301  0.1234 -0.5443
 8812TIP3    H150631   3.404   0.765   8.128 -0.0039  1.6953 -1.6954
 8812TIP3    H250632   3.387   0.726   7.983  0.4068 -3.4974 -0.5554
 8813TIP3   OH250633   2.093   0.098   5.993 -0.5023 -0.2103  0.6655
 8813TIP3    H150634   2.075   0.011   5.958 -2.7410 -0.8646  3.0957
 8813TIP3    H250635   2.186   0.097   6.014 -0.1431 -1.4097 -0.7674
 8814TIP3   OH250636   2.803   0.828   6.870  0.0096  0.0309 -0.0096
 8814TIP3    H150637   2.745   0.886   6.919  0.7307  1.5613 -0.9037
 8814TIP3    H250638   2.890   0.843   6.907  0.4591  0.7405 -1.2951
 8815TIP3   OH250639   2.945   5.168   8.505 -0.1138  0.2368 -0.4141
 8815TIP3    H150640   2.851   5.168   8.521 -0.2047 -0.0535 -0.9423
 8815TIP3    H250641   2.974   5.081   8.531 -0.6048 -1.0445 -3.6758
 8816TIP3   OH250642   0.888   3.850   7.725 -0.1269  0.2137  0.1241
 8816TIP3    H150643   0.907   3.875   7.816  2.4694 -0.5654 -0.1161
 8816TIP3    H250644   0.865   3.933   7.682 -1.0461  0.6459  1.3827
 8817TIP3   OH250645   0.117   2.065   7.871 -0.1237  0.4207 -0.1371
 8817TIP3    H150646   0.095   2.110   7.953  0.2843 -0.8588  0.6972
 8817TIP3    H250647   0.203   2.027   7.887 -1.7506 -3.4878  0.4857
 8818TIP3   OH250648   5.945   3.826   7.325 -0.4547  0.7253  0.4170
 8818TIP3    H150649   5.940   3.919   7.346  1.4376  0.5243  2.0764
 8818TIP3    H250650   6.004   3.820   7.251 -0.9894  0.8578 -0.0288
 8819TIP3   OH250651   1.129   4.338   7.902  0.0902 -0.2751  0.4329
 8819TIP3    H150652   1.222   4.330   7.882  0.2087 -1.4059  1.3283
 8819TIP3    H250653   1.105   4.425   7.872  1.1586 -0.4050 -0.8840
 8820TIP3   OH250654   6.445   4.806   7.101  0.0792  0.3828  0.3183
 8820TIP3    H150655   6.529   4.850   7.110  0.9362 -1.1121 -0.0968
 8820TIP3    H250656   6.457   4.723   7.147 -1.8168  0.9443  1.9827
 8821TIP3   OH250657   2.052   6.012   7.110 -0.0280  0.0314  0.4549
 8821TIP3    H150658   2.064   5.982   7.200  1.0895  0.8393  0.5894
 8821TIP3    H250659   2.019   6.102   7.119 -0.2526 -0.0089  0.0519
 8822TIP3   OH250660   0.940   4.722   9.431 -0.3555  0.1822  0.5351
 8822TIP3    H150661   0.884   4.799   9.419 -1.1143 -0.3415  0.6386
 8822TIP3    H250662   0.959   4.721   9.525 -0.3449  0.2440  0.5337
 8823TIP3   OH250663   4.107   5.188   5.124 -0.0629 -0.4794  0.1205
 8823TIP3    H150664   4.044   5.198   5.053 -0.0366  0.7043  0.2423
 8823TIP3    H250665   4.069   5.237   5.197  1.1320  0.5584  0.0871
 8824TIP3   OH250666   0.881   5.583   7.539 -0.2473 -0.1922  0.5504
 8824TIP3    H150667   0.962   5.534   7.556  1.3269  1.8514 -0.7053
 8824TIP3    H250668   0.838   5.533   7.469 -0.2906 -1.4792  1.4519
 8825TIP3   OH250669   5.777   0.304   8.237 -0.3023  0.1684  0.3317
 8825TIP3    H150670   5.720   0.318   8.312 -0.9010  0.1664 -0.1159
 8825TIP3    H250671   5.809   0.392   8.214 -1.4467  0.3994 -0.4386
 8826TIP3   OH250672   5.898   1.302   5.831  0.0133 -0.3094  0.2043
 8826TIP3    H150673   5.911   1.343   5.916  1.3837 -0.3181  0.0170
 8826TIP3    H250674   5.987   1.290   5.796 -0.4524 -1.6725 -0.5745
 8827TIP3   OH250675   1.043   2.196   7.268  0.0836 -0.6954 -0.5930
 8827TIP3    H150676   1.108   2.243   7.322 -1.6225  0.1104  0.8979
 8827TIP3    H250677   1.095   2.148   7.204  2.0593  1.5946 -0.8647
 8828TIP3   OH250678   4.702   0.064   6.727  0.5343 -0.1516 -0.1135
 8828TIP3    H150679   4.626   0.032   6.777  1.7591 -0.5391  1.5835
 8828TIP3    H250680   4.723   0.147   6.767  1.0409 -0.0622 -0.5604
 8829TIP3   OH250681   3.477   1.418   8.107 -0.3345 -0.3188 -0.2661
 8829TIP3    H150682   3.478   1.418   8.203  1.5921  1.2592 -0.2213
 8829TIP3    H250683   3.441   1.504   8.084  2.7522  0.9637 -0.8103
 8830TIP3   OH250684   3.165   5.882   8.134  1.0728 -0.0807  0.5269
 8830TIP3    H150685   3.073   5.863   8.156  1.4622 -2.1474  0.6398
 8830TIP3    H250686   3.215   5.846   8.207  1.9827  1.1032  0.5070
 8831TIP3   OH250687   0.421   2.364   5.844 -0.2176 -0.0137 -0.1874
 8831TIP3    H150688   0.369   2.307   5.787 -0.9096 -0.6410  1.0291
 8831TIP3    H250689   0.511   2.332   5.833 -0.4044 -0.4369 -0.5544
 8832TIP3   OH250690   4.704   4.161   5.501  0.2034 -0.5704  0.5815
 8832TIP3    H150691   4.753   4.240   5.481  0.6353 -0.5936  1.5405
 8832TIP3    H250692   4.626   4.192   5.548 -0.1758 -0.6300  0.0068
 8833TIP3   OH250693   0.328   4.204   8.317 -0.5023 -0.6384 -0.2672
 8833TIP3    H150694   0.397   4.270   8.330 -0.8058 -0.5089  0.8406
 8833TIP3    H250695   0.319   4.198   8.222  0.1810  0.2406 -0.4135
 8834TIP3   OH250696   2.016   3.997   7.381 -0.2288 -0.1706 -0.3015
 8834TIP3    H150697   1.991   4.015   7.290 -0.0778  1.1309 -0.1132
 8834TIP3    H250698   2.077   4.068   7.403 -0.0504 -0.6269  0.7309
 8835TIP3   OH250699   5.378   6.264   7.368  0.8080  0.2412 -0.1467
 8835TIP3    H150700   5.304   6.263   7.428  0.5108  0.1140 -0.5081
 8835TIP3    H250701   5.440   6.202   7.405  0.9694  0.7519  0.4479
 8836TIP3   OH250702   4.044   4.075   6.297 -0.3621 -0.0183  0.0626
 8836TIP3    H150703   3.974   4.071   6.363  0.5365 -2.9275  0.9764
 8836TIP3    H250704   3.998   4.067   6.213 -1.2022 -3.2637  0.6838
 8837TIP3   OH250705   2.881   6.480   8.686 -0.0344 -0.0167  0.2571
 8837TIP3    H150706   2.809   6.460   8.625 -0.4404  2.7964 -0.3371
 8837TIP3    H250707   2.959   6.447   8.642 -0.6187 -0.2691 -0.6198
 8838TIP3   OH250708   6.297   0.902   9.056  0.2383  0.0354  0.3501
 8838TIP3    H150709   6.224   0.839   9.053 -1.0060  1.4472 -0.1099
 8838TIP3    H250710   6.273   0.969   8.993  2.0763  0.4409  0.0260
 8839TIP3   OH250711   2.307   0.965   7.755  0.3369  0.3131  0.0524
 8839TIP3    H150712   2.391   1.009   7.745  0.8199 -0.9768 -2.3335
 8839TIP3    H250713   2.327   0.885   7.804  0.6866 -0.3497 -1.1310
 8840TIP3   OH250714   3.813   3.008   7.461 -0.0292 -0.2761  0.6115
 8840TIP3    H150715   3.868   2.936   7.490  1.1748 -0.6625 -2.2655
 8840TIP3    H250716   3.733   2.967   7.430  0.9006 -0.5763 -1.6108
 8841TIP3   OH250717   1.556   6.041   5.879 -0.3929  0.4251  0.5078
 8841TIP3    H150718   1.532   5.949   5.890 -0.4748  0.5641  1.5759
 8841TIP3    H250719   1.641   6.049   5.921 -0.1345  0.7316 -0.0617
 8842TIP3   OH250720   3.720   3.556   7.860 -0.2959  0.3459  0.2570
 8842TIP3    H150721   3.792   3.512   7.815 -1.8116 -2.3781  0.2159
 8842TIP3    H250722   3.739   3.544   7.953  0.2306  1.2989  0.2736
 8843TIP3   OH250723   3.378   1.678   8.157  0.8713 -0.1484  0.0258
 8843TIP3    H150724   3.443   1.743   8.130  0.2665  0.2998 -0.3769
 8843TIP3    H250725   3.295   1.714   8.129  0.5639 -1.3353 -0.6562
 8844TIP3   OH250726   3.718   0.633   6.236  0.5173 -0.0710  0.4558
 8844TIP3    H150727   3.787   0.660   6.175  1.1379 -1.4532  0.5029
 8844TIP3    H250728   3.753   0.655   6.322  0.0944  0.9156  0.3828
 8845TIP3   OH250729   1.502   5.886   8.043  0.4726  0.3868  0.2313
 8845TIP3    H150730   1.473   5.877   7.952  2.1793  2.5142 -0.6160
 8845TIP3    H250731   1.424   5.919   8.089  0.5132  2.9998 -1.3308
 8846TIP3   OH250732   1.164   4.941   7.994  0.1197  0.1446 -0.4445
 8846TIP3    H150733   1.229   5.003   8.027 -0.7464  1.0525 -0.4007
 8846TIP3    H250734   1.160   4.959   7.900 -0.0738  0.1053 -0.4443
 8847TIP3   OH250735   0.718   6.675   6.662  0.1171  0.3525  0.2197
 8847TIP3    H150736   0.657   6.726   6.608 -0.4294  0.1968  0.6784
 8847TIP3    H250737   0.661   6.620   6.716  0.6862 -0.2052  0.2530
 8848TIP3   OH250738   0.237   3.529   6.340 -0.3181  0.6734  0.1997
 8848TIP3    H150739   0.257   3.458   6.400 -1.6321  0.1225  0.0149
 8848TIP3    H250740   0.302   3.597   6.360  0.7387 -0.4346  0.5946
 8849TIP3   OH250741   4.651   5.521   5.493 -0.2388 -0.6274  0.1095
 8849TIP3    H150742   4.581   5.479   5.543 -1.9887 -0.0271 -1.7015
 8849TIP3    H250743   4.718   5.453   5.484 -1.9285 -2.3045 -0.6821
 8850TIP3   OH250744   3.515   1.992   6.611 -0.0450  0.5330  0.3891
 8850TIP3    H150745   3.440   2.043   6.642 -0.5410 -0.4718  0.8846
 8850TIP3    H250746   3.476   1.923   6.557  0.3865 -0.8428  1.7864
 8851TIP3   OH250747   5.769   6.500   8.659  0.1736 -0.0319 -0.1304
 8851TIP3    H150748   5.753   6.422   8.606 -0.0692  0.2558 -0.4897
 8851TIP3    H250749   5.854   6.532   8.629 -0.0206  0.2008 -0.4354
 8852TIP3   OH250750   4.624   5.355   8.102  0.2837  0.0203  0.2210
 8852TIP3    H150751   4.590   5.393   8.021 -1.3738 -1.2698  0.2537
 8852TIP3    H250752   4.555   5.372   8.166  1.0515 -0.0360  1.0720
 8853TIP3   OH250753   4.477   3.219   5.859 -0.0430  0.2302 -0.2523
 8853TIP3    H150754   4.551   3.172   5.897 -0.6117 -0.7064 -0.2800
 8853TIP3    H250755   4.509   3.309   5.846  0.9975 -0.1021 -0.0293
 8854TIP3   OH250756   5.934   2.316   9.260 -0.1210 -0.1433 -0.2435
 8854TIP3    H150757   5.876   2.354   9.327  0.3975 -0.3560  0.3354
 8854TIP3    H250758   6.017   2.302   9.306  1.0519  2.0100 -1.5583
 8855TIP3   OH250759   4.129   6.603   7.550 -0.5144 -0.5887  1.0647
 8855TIP3    H150760   4.190   6.530   7.562 -0.5069 -1.1288 -1.7443
 8855TIP3    H250761   4.043   6.563   7.564 -0.6501 -1.7160 -2.1133
 8856TIP3   OH250762   0.683   6.190   8.281  0.0035 -0.1106  0.0782
 8856TIP3    H150763   0.668   6.144   8.198 -0.0673  0.4342 -0.2203
 8856TIP3    H250764   0.644   6.134   8.348  0.2375 -0.6513 -0.2375
 8857TIP3   OH250765   3.305   4.066   5.079  0.4249  0.1696  0.5560
 8857TIP3    H150766   3.373   4.118   5.122  0.1672  0.2063  0.9262
 8857TIP3    H250767   3.313   4.087   4.986  1.9915 -1.0742  0.3750
 8858TIP3   OH250768   0.216   6.541   6.542 -0.2046 -0.5327 -0.1413
 8858TIP3    H150769   0.219   6.601   6.467  1.2830 -0.8009 -0.3330
 8858TIP3    H250770   0.285   6.573   6.601 -1.1878 -0.4798  1.0182
 8859TIP3   OH250771   6.233   6.108   6.964 -0.3693 -0.3304  0.1160
 8859TIP3    H150772   6.327   6.104   6.980 -0.0019  0.5878 -1.5315
 8859TIP3    H250773   6.203   6.184   7.012  0.3749  1.3116 -1.8790
 8860TIP3   OH250774   3.276   0.285   6.155 -0.0932  0.3390 -0.2677
 8860TIP3    H150775   3.315   0.216   6.210  1.7493  1.1569 -0.4569
 8860TIP3    H250776   3.217   0.238   6.096  1.2300 -1.1401 -0.4965
 8861TIP3   OH250777   3.412   0.285   8.630  0.6443  0.8673  0.2466
 8861TIP3    H150778   3.416   0.192   8.608  1.2707  1.1310 -0.7919
 8861TIP3    H250779   3.319   0.305   8.632  0.4935  0.1541  0.7752
 8862TIP3   OH250780   4.849   5.355   5.474  0.3784 -0.1821  0.8448
 8862TIP3    H150781   4.829   5.273   5.428 -0.6861  1.8106 -2.6050
 8862TIP3    H250782   4.943   5.368   5.459  0.4927 -0.5908  1.1700
 8863TIP3   OH250783   3.755   4.829   8.025 -0.5433  0.6567 -0.1862
 8863TIP3    H150784   3.833   4.797   8.070 -0.4598  1.7137  0.4420
 8863TIP3    H250785   3.707   4.879   8.092 -0.3945  2.3087 -1.2692
 8864TIP3   OH250786   6.560   4.805   6.019  0.5786 -0.2127  0.0315
 8864TIP3    H150787   6.491   4.738   6.022  0.3689  0.0154  0.4309
 8864TIP3    H250788   6.521   4.881   6.062 -0.2525  1.1991 -2.9991
 8865TIP3   OH250789   3.744   0.940   7.348 -0.3142 -0.1478  0.5118
 8865TIP3    H150790   3.733   0.859   7.397 -4.3489  0.2404  0.5954
 8865TIP3    H250791   3.662   0.987   7.361  1.1644  3.1758 -0.9996
 8866TIP3   OH250792   3.884   6.301   7.965  0.4219 -0.5539  0.0812
 8866TIP3    H150793   3.826   6.348   7.904  1.2973  1.4908  0.7387
 8866TIP3    H250794   3.870   6.344   8.049  0.3795 -2.3188  1.0205
 8867TIP3   OH250795   4.692   0.555   6.683 -0.4570  0.3025  0.1319
 8867TIP3    H150796   4.716   0.499   6.756  0.0473  0.2011 -0.1127
 8867TIP3    H250797   4.663   0.495   6.615 -0.6510  0.3818  0.1432
 8868TIP3   OH250798   0.507   1.275   6.629 -0.0521 -0.3592 -0.1880
 8868TIP3    H150799   0.581   1.251   6.574  1.1403 -2.1299  2.0071
 8868TIP3    H250800   0.545   1.327   6.699 -1.1285 -0.1163  0.2401
 8869TIP3   OH250801   5.027   6.214   5.674  0.2757  0.1780 -0.2870
 8869TIP3    H150802   5.093   6.177   5.615  1.3295  0.0593  0.9421
 8869TIP3    H250803   5.030   6.158   5.751 -2.4687 -0.8662 -0.8356
 8870TIP3   OH250804   4.193   4.086   8.110 -0.2201  0.1516 -0.4735
 8870TIP3    H150805   4.130   4.141   8.063 -0.2657  1.4736  1.0458
 8870TIP3    H250806   4.250   4.148   8.154 -0.9175 -0.9550  2.2014
 8871TIP3   OH250807   4.367   1.601   6.921 -0.1965 -0.7556 -0.5100
 8871TIP3    H150808   4.412   1.685   6.928  0.8502 -1.2406 -1.1196
 8871TIP3    H250809   4.291   1.619   6.866 -0.5488 -0.0063  0.2006
 8872TIP3   OH250810   0.248   3.778   6.626  0.1366  0.5436  0.1261
 8872TIP3    H150811   0.320   3.722   6.595 -0.8269  0.3979 -2.0436
 8872TIP3    H250812   0.218   3.736   6.707  2.3453  0.5211  1.0026
 8873TIP3   OH250813   5.664   3.644   6.353 -0.5896  0.0730  0.1318
 8873TIP3    H150814   5.695   3.625   6.442 -2.4100 -0.1984  0.7526
 8873TIP3    H250815   5.677   3.562   6.305 -2.1986 -0.6918  0.9481
 8874TIP3   OH250816   4.697   3.650   5.517  0.3213 -0.3714  0.9328
 8874TIP3    H150817   4.778   3.652   5.568  1.1458 -0.4204 -0.3430
 8874TIP3    H250818   4.726   3.645   5.426 -1.1182  0.3022  0.4127
 8875TIP3   OH250819   3.250   6.264   5.685  0.3084 -0.1101 -0.8471
 8875TIP3    H150820   3.301   6.311   5.620 -0.8644  0.6399 -1.2664
 8875TIP3    H250821   3.298   6.275   5.767  0.4950  1.0912 -1.1112
 8876TIP3   OH250822   5.639   4.485   5.789  0.0864  0.0653  0.4902
 8876TIP3    H150823   5.581   4.440   5.728  0.1487  1.3583 -0.5542
 8876TIP3    H250824   5.592   4.564   5.814  0.9643  0.6321  0.4009
 8877TIP3   OH250825   4.081   4.234   5.954  0.3973 -0.5122  0.2277
 8877TIP3    H150826   4.009   4.177   5.983 -0.8660  1.7558  1.9134
 8877TIP3    H250827   4.050   4.322   5.973  3.0407  0.6596 -0.4733
 8878TIP3   OH250828   6.162   5.236   6.848 -0.0512  0.1467  0.0172
 8878TIP3    H150829   6.116   5.319   6.832 -0.6115 -0.4305 -1.5017
 8878TIP3    H250830   6.252   5.262   6.866 -0.2568  1.0931 -0.2487
 8879TIP3   OH250831   0.047   5.929   6.354  0.1014 -0.5907  0.4004
 8879TIP3    H150832  -0.011   5.855   6.373  1.4842 -1.9356 -0.3542
 8879TIP3    H250833   0.084   5.953   6.439  1.5689 -2.5057  0.3766
 8880TIP3   OH250834   5.681   4.470   5.353  0.2503  0.0504  0.2291
 8880TIP3    H150835   5.756   4.515   5.315 -0.0884 -0.8016 -1.5048
 8880TIP3    H250836   5.720   4.406   5.413  0.7988  1.1444  1.0847
 8881TIP3   OH250837   4.323   1.658   5.212 -0.2230 -0.5964 -0.2215
 8881TIP3    H150838   4.296   1.613   5.292 -1.0814  2.2122  1.1807
 8881TIP3    H250839   4.246   1.653   5.155 -0.6245 -0.1580  0.2780
 8882TIP3   OH250840   6.682   3.829   9.240  0.3074  0.1394  0.1955
 8882TIP3    H150841   6.717   3.914   9.265  0.3743 -0.1863  1.2443
 8882TIP3    H250842   6.711   3.817   9.149  0.8961  0.9131  0.2690
 8883TIP3   OH250843   3.741   5.364   6.014  0.2507 -0.0048  0.0026
 8883TIP3    H150844   3.798   5.382   6.089 -1.0159  0.4079  0.9058
 8883TIP3    H250845   3.653   5.366   6.051 -0.3357 -1.0159 -1.2807
 8884TIP3   OH250846   0.898   3.496   9.490  0.3887  0.4253 -0.1448
 8884TIP3    H150847   0.958   3.546   9.435  0.6375 -0.1861 -0.4315
 8884TIP3    H250848   0.815   3.499   9.443 -0.3939  2.9737  1.2026
 8885TIP3   OH250849   2.577   3.126   6.531 -0.3876  0.1454 -0.4544
 8885TIP3    H150850   2.617   3.112   6.617  0.7156 -0.3900 -1.0254
 8885TIP3    H250851   2.632   3.076   6.471 -2.3668 -1.2392 -1.2188
 8886TIP3   OH250852   5.488   4.369   7.748 -0.5903  0.3623  0.0336
 8886TIP3    H150853   5.558   4.435   7.746 -0.5033  0.3022  0.7507
 8886TIP3    H250854   5.497   4.322   7.665  0.0091  0.5722 -0.0299
 8887TIP3   OH250855   3.097   4.458   7.041 -0.9272  0.2862 -0.3720
 8887TIP3    H150856   3.109   4.546   7.078 -1.8701  0.0070  0.6355
 8887TIP3    H250857   3.181   4.439   6.998  0.4070  0.4515  2.0085
 8888TIP3   OH250858   5.446   2.663   9.018  0.3167  0.1989 -0.0938
 8888TIP3    H150859   5.515   2.711   8.972  0.4180  0.5192  0.3879
 8888TIP3    H250860   5.378   2.651   8.952  0.6570  0.2408 -0.4593
 8889TIP3   OH250861   0.639   5.378   6.255 -0.0914  0.2950 -0.3017
 8889TIP3    H150862   0.551   5.343   6.265 -0.2514  1.3471  3.8650
 8889TIP3    H250863   0.627   5.471   6.240  0.3701  0.2594 -0.9748
 8890TIP3   OH250864   2.999   4.205   6.340  0.4631  0.0168 -0.7733
 8890TIP3    H150865   2.924   4.258   6.367  0.2844 -0.7583  0.3100
 8890TIP3    H250866   2.965   4.150   6.270 -0.2259 -0.8863  0.2375
 8891TIP3   OH250867   6.555   2.588   9.324 -0.5214 -0.1008  0.7709
 8891TIP3    H150868   6.586   2.507   9.364  1.6636 -0.6215 -1.6379
 8891TIP3    H250869   6.491   2.560   9.259 -0.2277  0.1502  0.3677
 8892TIP3   OH250870   2.824   0.192   6.857 -0.1619 -0.3265  0.0082
 8892TIP3    H150871   2.892   0.124   6.854  0.6505  0.4934 -0.6253
 8892TIP3    H250872   2.744   0.144   6.880  0.1537 -1.7081 -1.5778
 8893TIP3   OH250873   5.096   4.332   5.689  0.2727 -0.4428  0.3269
 8893TIP3    H150874   5.037   4.326   5.765 -0.1786 -0.1503  0.0073
 8893TIP3    H250875   5.182   4.309   5.724  0.2538  0.6277  1.1602
 8894TIP3   OH250876   3.613   1.183   8.249 -0.0108 -0.4519  0.4081
 8894TIP3    H150877   3.669   1.132   8.191  2.9735  2.6457  0.2417
 8894TIP3    H250878   3.673   1.228   8.308 -2.4005  2.1182  1.1377
 8895TIP3   OH250879   0.878   2.386   6.656  0.0222 -0.5876 -1.0647
 8895TIP3    H150880   0.860   2.479   6.664  0.9584 -0.3915 -1.0526
 8895TIP3    H250881   0.958   2.382   6.602  0.1254 -1.3648 -0.8626
 8896TIP3   OH250882   6.231   0.937   6.148  0.5810  0.6394  0.5176
 8896TIP3    H150883   6.285   1.013   6.128  0.8960  0.5342  0.9356
 8896TIP3    H250884   6.274   0.897   6.225  0.4413  0.0278  0.2874
 8897TIP3   OH250885   2.796   1.465   7.645 -0.1410  0.0899  0.2752
 8897TIP3    H150886   2.713   1.422   7.627  0.8365 -1.1436 -1.5371
 8897TIP3    H250887   2.792   1.547   7.596 -0.0248 -0.2941 -0.3833
 8898TIP3   OH250888   3.909   2.801   6.961  0.1934 -0.1120 -0.8646
 8898TIP3    H150889   3.979   2.865   6.945 -0.6663  0.3053 -3.4016
 8898TIP3    H250890   3.897   2.757   6.877 -1.3729 -1.4505 -0.0027
 8899TIP3   OH250891   1.013   0.594   9.061 -0.2245  0.1159  0.3630
 8899TIP3    H150892   1.020   0.652   9.137  1.6173  1.1643 -0.5494
 8899TIP3    H250893   0.929   0.617   9.021  0.1180  1.6262  0.4482
 8900TIP3   OH250894   0.190   2.120   6.789  0.4795 -0.1105 -0.0023
 8900TIP3    H150895   0.199   2.068   6.709  0.1424  1.0751 -0.8511
 8900TIP3    H250896   0.275   2.163   6.799  0.3347  0.2033 -0.0819
 8901TIP3   OH250897   0.630   5.671   6.922 -0.1719 -0.0435  0.0252
 8901TIP3    H150898   0.716   5.683   6.963 -0.3705 -0.0457  0.4472
 8901TIP3    H250899   0.614   5.753   6.876  0.5182 -0.4321 -0.9222
 8902TIP3   OH250900   4.459   5.730   8.305  0.4635 -0.0057  0.5116
 8902TIP3    H150901   4.406   5.724   8.225 -2.3355  0.9557  2.1494
 8902TIP3    H250902   4.463   5.640   8.337 -1.7712  0.0763  1.2223
 8903TIP3   OH250903   2.781   1.855   6.526 -0.1915  0.6468  0.7356
 8903TIP3    H150904   2.722   1.849   6.602  0.6853 -1.5391  1.3436
 8903TIP3    H250905   2.868   1.836   6.562  0.4801  1.0863 -0.5883
 8904TIP3   OH250906   2.983   2.754   8.137  0.0974 -0.0538  0.6631
 8904TIP3    H150907   3.030   2.711   8.066  2.4196  2.0958  0.7377
 8904TIP3    H250908   3.039   2.741   8.214  0.5043  2.2466  0.8359
 8905TIP3   OH250909   5.806   5.355   6.678 -0.5193  0.7972 -0.4501
 8905TIP3    H150910   5.717   5.362   6.712 -0.2015 -0.1474  0.6494
 8905TIP3    H250911   5.861   5.391   6.747  0.1210 -0.9011 -0.0312
 8906TIP3   OH250912   4.644   5.914   7.014 -0.0267 -0.4491 -0.2833
 8906TIP3    H150913   4.649   5.940   7.106 -1.2512 -0.8174 -0.0997
 8906TIP3    H250914   4.647   5.997   6.966  0.6132 -0.2556  0.0774
 8907TIP3   OH250915   2.612   0.077   8.257  0.5945 -0.3669  0.1012
 8907TIP3    H150916   2.680   0.011   8.246  0.2118 -0.4340 -2.3078
 8907TIP3    H250917   2.549   0.037   8.316  1.6196 -1.1074  0.7248
 8908TIP3   OH250918   2.567   4.023   5.713 -0.4150 -0.0627  0.1593
 8908TIP3    H150919   2.636   4.047   5.652 -0.8565 -1.4063 -0.9128
 8908TIP3    H250920   2.547   4.104   5.760 -0.2356  1.0833 -1.6531
 8909TIP3   OH250921   5.123   4.497   8.366 -0.0583  0.3638  0.1198
 8909TIP3    H150922   5.155   4.419   8.413 -1.0878 -0.1383  0.0251
 8909TIP3    H250923   5.059   4.535   8.426  1.8810  2.3460  1.0630
 8910TIP3   OH250924   1.313   2.460   6.011  0.1069 -0.2332  0.4542
 8910TIP3    H150925   1.320   2.519   6.086 -1.3513 -0.5490  0.8608
 8910TIP3    H250926   1.245   2.498   5.956 -0.6113 -1.3185  0.5557
 8911TIP3   OH250927   5.577   6.011   6.016 -0.0245  0.0488 -0.1473
 8911TIP3    H150928   5.628   5.935   5.987 -0.7954  0.4763 -2.9271
 8911TIP3    H250929   5.636   6.085   6.005 -0.7115  0.3709 -2.0280
 8912TIP3   OH250930   2.180   4.150   8.769  0.4323 -0.0924  0.1528
 8912TIP3    H150931   2.193   4.164   8.862  2.1544 -0.0967 -0.0492
 8912TIP3    H250932   2.118   4.077   8.763 -0.5484  0.6272  1.2604
 8913TIP3   OH250933   3.351   6.313   5.943  0.0657 -0.2680  0.5397
 8913TIP3    H150934   3.438   6.302   5.983  0.1619  0.2068  0.4745
 8913TIP3    H250935   3.299   6.242   5.979  0.3617 -0.2933  0.9317
 8914TIP3   OH250936   5.243   5.412   7.529  0.1370 -0.0833  0.9726
 8914TIP3    H150937   5.251   5.503   7.502  0.2727  0.3265  2.2884
 8914TIP3    H250938   5.181   5.374   7.468 -0.0129  0.9287  0.4736
 8915TIP3   OH250939   1.443   6.001   6.771  0.1323  0.1993 -0.3864
 8915TIP3    H150940   1.477   6.074   6.719 -1.3561  0.1113 -1.5683
 8915TIP3    H250941   1.513   5.934   6.767  0.2436  0.3620 -1.9512
 8916TIP3   OH250942   0.529   2.961   9.228 -0.0505  0.1062 -0.2004
 8916TIP3    H150943   0.464   2.899   9.196 -1.4221  0.3957  1.8574
 8916TIP3    H250944   0.544   2.936   9.319  1.4276  1.1228 -0.1224
 8917TIP3   OH250945   6.064   6.041   6.649  0.3860 -0.1955 -0.3934
 8917TIP3    H150946   5.983   6.078   6.682  0.8235  0.8664 -0.4659
 8917TIP3    H250947   6.057   6.048   6.554  0.7011  0.2265 -0.3902
 8918TIP3   OH250948   5.612   5.032   7.169 -0.1496 -0.0457 -0.0749
 8918TIP3    H150949   5.641   4.954   7.216 -0.7271  0.0569  0.4719
 8918TIP3    H250950   5.692   5.082   7.155  0.4190 -1.2680 -1.4903
 8919TIP3   OH250951   5.044   3.780   6.225 -0.1929  0.5414  0.1566
 8919TIP3    H150952   5.083   3.786   6.312  1.2708  1.5134 -0.5362
 8919TIP3    H250953   5.115   3.746   6.169 -1.1615 -0.2511 -0.6283
 8920TIP3   OH250954   1.763   3.048   7.840 -0.1902 -0.0869  0.1573
 8920TIP3    H150955   1.856   3.028   7.828 -0.0449  0.5080  0.2367
 8920TIP3    H250956   1.742   3.015   7.927 -0.6880 -2.4288 -0.7814
 8921TIP3   OH250957   6.097   3.666   8.590 -0.0672 -0.1221  0.8943
 8921TIP3    H150958   6.015   3.633   8.552 -0.5341 -0.1901  1.9200
 8921TIP3    H250959   6.112   3.610   8.666  0.3802  0.5523  1.3112
 8922TIP3   OH250960   4.176   3.004   8.132  0.3866  0.7434  0.2280
 8922TIP3    H150961   4.239   3.019   8.202  1.0609  1.7163 -0.5608
 8922TIP3    H250962   4.225   2.952   8.068  0.7271  2.3061 -0.8228
 8923TIP3   OH250963   3.438   6.474   7.190 -0.6998 -0.5410 -0.0756
 8923TIP3    H150964   3.474   6.386   7.202 -1.1918 -0.8378 -0.7271
 8923TIP3    H250965   3.384   6.468   7.112  0.6858  0.7944 -1.2040
 8924TIP3   OH250966   0.333   0.551   9.001  0.4508  0.2194 -0.6397
 8924TIP3    H150967   0.297   0.611   9.066  0.6800  0.5916 -0.8548
 8924TIP3    H250968   0.421   0.584   8.984  0.8296 -0.5687 -0.2601
 8925TIP3   OH250969   1.514   4.751   7.806  0.0196  0.1071  0.3520
 8925TIP3    H150970   1.456   4.787   7.739  0.5242 -0.3132 -0.3247
 8925TIP3    H250971   1.590   4.719   7.757  0.1144 -0.7834  1.0553
 8926TIP3   OH250972   3.950   6.193   8.340 -0.1549  0.4518  0.0699
 8926TIP3    H150973   3.885   6.238   8.287 -0.6437 -0.6031 -0.2429
 8926TIP3    H250974   3.900   6.154   8.412  0.2178  0.1656  0.1770
 8927TIP3   OH250975   1.303   1.468   6.383 -0.4804  0.0143  0.2344
 8927TIP3    H150976   1.274   1.449   6.472 -1.3014 -0.9221 -0.2061
 8927TIP3    H250977   1.248   1.540   6.355 -1.4717 -0.8486 -0.1108
 8928TIP3   OH250978   4.238   0.105   7.421 -0.9113 -0.0890 -0.1193
 8928TIP3    H150979   4.248   0.164   7.496  0.8433 -1.1852  0.5669
 8928TIP3    H250980   4.205   0.024   7.458  1.3056 -1.1151 -0.2468
 8929TIP3   OH250981   2.831   5.971   6.179 -0.0717  0.1677 -0.0939
 8929TIP3    H150982   2.896   6.037   6.154 -1.3746  1.5142 -0.0549
 8929TIP3    H250983   2.829   5.975   6.274  2.1343 -2.2564  0.1521
 8930TIP3   OH250984   1.866   4.092   8.271 -0.3138  0.1607 -0.2251
 8930TIP3    H150985   1.777   4.081   8.304 -0.0487  0.4008  0.6082
 8930TIP3    H250986   1.918   4.114   8.349  0.8395 -1.8751 -0.3389
 8931TIP3   OH250987   3.535   4.806   7.855  0.1814  0.5332 -0.3332
 8931TIP3    H150988   3.545   4.718   7.818 -0.3859  0.3073  0.0311
 8931TIP3    H250989   3.601   4.811   7.924  0.9630  0.8045 -1.0953
 8932TIP3   OH250990   4.688   1.653   8.541  0.0224 -0.0604 -0.5018
 8932TIP3    H150991   4.603   1.666   8.583 -0.2476 -0.3181 -0.9649
 8932TIP3    H250992   4.736   1.734   8.560 -0.2004 -0.0481  0.0405
 8933TIP3   OH250993   2.800   3.094   5.776 -0.0941  0.4206 -0.2230
 8933TIP3    H150994   2.880   3.143   5.797  1.0495 -1.6157  0.5194
 8933TIP3    H250995   2.780   3.046   5.856 -2.5209  1.3790 -0.1633
 8934TIP3   OH250996   2.944   3.534   6.391 -0.0459 -0.0253 -0.1805
 8934TIP3    H150997   2.873   3.477   6.420 -0.8509  1.3428  0.6109
 8934TIP3    H250998   3.018   3.474   6.377 -0.6040 -1.1656  1.4656
 8935TIP3   OH250999   2.788   0.748   5.684  0.5948  0.2677 -0.0027
 8935TIP3    H151000   2.882   0.746   5.702  1.1134  1.5694 -2.2405
 8935TIP3    H251001   2.748   0.767   5.769  2.5814  2.6586  0.4910
 8936TIP3   OH251002   1.109   6.662   8.288  0.5132 -0.0779 -0.0952
 8936TIP3    H151003   1.058   6.634   8.364 -0.0050  2.0029  0.3992
 8936TIP3    H251004   1.045   6.669   8.217  1.1459 -2.9497 -1.0954
 8937TIP3   OH251005   1.671   1.619   7.006 -0.1863 -0.2175  0.4382
 8937TIP3    H151006   1.762   1.590   7.006  0.0719  0.4425  2.4690
 8937TIP3    H251007   1.666   1.682   6.934  1.3191  0.7119  1.1062
 8938TIP3   OH251008   0.716   1.374   6.779 -0.1605 -0.0182  0.5195
 8938TIP3    H151009   0.785   1.318   6.743 -0.4246  1.4968 -2.7226
 8938TIP3    H251010   0.748   1.400   6.865  1.8647 -1.7888  0.3716
 8939TIP3   OH251011   5.812   2.266   6.582 -0.4696 -0.1444  0.0209
 8939TIP3    H151012   5.809   2.361   6.590 -0.4013 -0.1112 -0.3148
 8939TIP3    H251013   5.821   2.234   6.672  0.6042  0.2118  0.0491
 8940TIP3   OH251014   0.340   3.052   6.053 -0.0054  0.0780 -0.0092
 8940TIP3    H151015   0.304   3.011   6.132 -0.2709  0.2619 -0.0348
 8940TIP3    H251016   0.391   2.983   6.011  0.0222 -0.0608  0.2492
 8941TIP3   OH251017   1.376   5.672   8.687  0.4921 -0.1331 -0.0096
 8941TIP3    H151018   1.399   5.673   8.780  0.5524 -1.3258  0.0031
 8941TIP3    H251019   1.364   5.764   8.664 -0.8044  0.1021  1.4918
 8942TIP3   OH251020   2.969   2.088   8.437  0.1478  0.4958 -0.1830
 8942TIP3    H151021   3.003   2.175   8.454 -2.6742  1.2412  2.3855
 8942TIP3    H251022   2.877   2.102   8.415 -0.5251 -1.8442  0.8451
 8943TIP3   OH251023   3.166   3.411   7.931  0.3866 -0.0894  0.0716
 8943TIP3    H151024   3.186   3.347   8.000  2.6758 -0.0467 -0.4704
 8943TIP3    H251025   3.180   3.496   7.972 -0.0979  0.0058  0.0531
 8944TIP3   OH251026   1.836   2.351   6.196 -0.4332  0.0809 -0.1184
 8944TIP3    H151027   1.894   2.401   6.138 -0.0908  0.0403  0.1883
 8944TIP3    H251028   1.778   2.305   6.136 -0.0742  0.0351 -0.4378
 8945TIP3   OH251029   5.851   5.524   6.204 -0.2176 -0.0003  0.1402
 8945TIP3    H151030   5.851   5.616   6.178  0.3497  0.3272  1.2432
 8945TIP3    H251031   5.868   5.525   6.298 -0.8438 -1.2052  0.2951
 8946TIP3   OH251032   4.153   6.476   7.074  0.0351 -0.1142 -0.3147
 8946TIP3    H151033   4.161   6.385   7.046 -4.9797 -0.5583 -1.1714
 8946TIP3    H251034   4.106   6.471   7.157 -0.2973  1.6906 -0.3614
 8947TIP3   OH251035   2.396   2.739   6.219 -0.5323 -0.1133 -0.0446
 8947TIP3    H151036   2.303   2.717   6.222 -0.9880  1.6883 -0.1149
 8947TIP3    H251037   2.421   2.754   6.310 -0.2347 -0.8327 -0.0006
 8948TIP3   OH251038   1.149   6.139   8.596 -0.0838 -0.0299  0.6530
 8948TIP3    H151039   1.191   6.208   8.648 -1.0162 -0.0579  1.4826
 8948TIP3    H251040   1.153   6.061   8.653  0.8095 -0.6354 -0.2039
 8949TIP3   OH251041   2.543   6.549   7.713  0.0429  0.1500 -0.2447
 8949TIP3    H151042   2.451   6.524   7.718 -0.2406  1.0059 -0.9846
 8949TIP3    H251043   2.590   6.466   7.704 -0.4658 -0.4619  2.0456
 8950TIP3   OH251044   6.159   0.849   5.634 -0.3926  0.0242 -0.3548
 8950TIP3    H151045   6.144   0.943   5.622  0.5574  0.0532 -1.5107
 8950TIP3    H251046   6.224   0.844   5.703  3.1105  0.5451 -3.2951
 8951TIP3   OH251047   3.979   1.146   7.707  0.1389 -0.6416 -0.2194
 8951TIP3    H151048   4.013   1.142   7.618  0.8028  0.4286 -0.0358
 8951TIP3    H251049   3.927   1.066   7.717  0.7923 -1.2194 -1.2596
 8952TIP3   OH251050   4.049   3.648   7.868 -0.5411 -0.2590  0.1438
 8952TIP3    H151051   4.083   3.697   7.943 -1.3830  1.5640 -0.6130
 8952TIP3    H251052   4.095   3.684   7.792 -0.6025 -1.2035 -0.3598
 8953TIP3   OH251053   4.868   4.063   7.849 -0.1030 -0.0265 -0.4768
 8953TIP3    H151054   4.958   4.053   7.877 -0.3453  0.9543  0.7593
 8953TIP3    H251055   4.824   4.106   7.923 -1.3968  0.2312 -1.3475
 8954TIP3   OH251056   2.877   3.485   6.752 -0.3714  0.1158 -0.0589
 8954TIP3    H151057   2.915   3.568   6.723 -0.3231 -0.1010 -0.6449
 8954TIP3    H251058   2.804   3.470   6.691 -0.7228 -0.0047  0.3843
 8955TIP3   OH251059   6.022   3.919   7.950 -0.6485  0.1339 -0.2050
 8955TIP3    H151060   5.993   3.829   7.938  0.1534 -0.0144 -1.0673
 8955TIP3    H251061   6.117   3.916   7.937 -0.3146  0.7580  1.7457
 8956TIP3   OH251062   0.253   3.864   8.999  0.3070  0.2518 -0.2706
 8956TIP3    H151063   0.164   3.835   8.980 -0.3272  0.9303  1.5010
 8956TIP3    H251064   0.247   3.959   9.003  0.5868  0.2260  2.0853
 8957TIP3   OH251065   5.330   1.412   5.831  0.1686 -0.4920  0.0785
 8957TIP3    H151066   5.381   1.346   5.785  0.3182 -0.4908  0.2405
 8957TIP3    H251067   5.389   1.487   5.840 -0.2145 -0.0789 -0.6982
 8958TIP3   OH251068   6.517   3.595   7.139 -0.2456  0.1010 -0.2721
 8958TIP3    H151069   6.546   3.684   7.121  0.5252 -0.0754  0.0366
 8958TIP3    H251070   6.421   3.599   7.134 -0.1880  0.7626 -1.0589
 8959TIP3   OH251071   1.804   0.735   7.016 -0.4424 -0.0289 -0.7574
 8959TIP3    H151072   1.725   0.754   7.065  1.4357  0.7607  2.1974
 8959TIP3    H251073   1.824   0.816   6.969 -0.8962  0.0419 -0.8331
 8960TIP3   OH251074   3.974   6.698   8.108 -0.2978  0.1792 -0.1506
 8960TIP3    H151075   3.888   6.656   8.115  0.2065 -0.6562  1.2443
 8960TIP3    H251076   4.022   6.669   8.185  1.2755  0.5925 -0.9335
 8961TIP3   OH251077   5.684   0.926   6.067 -0.1247  0.1906 -0.7331
 8961TIP3    H151078   5.696   0.977   5.987  2.3462  0.7909 -0.0608
 8961TIP3    H251079   5.685   0.835   6.038  1.2847  0.3818 -1.3697
 8962TIP3   OH251080   2.036   1.884   7.824  0.0639  0.0281 -0.2791
 8962TIP3    H151081   2.101   1.911   7.888  0.6784 -1.0976 -0.3918
 8962TIP3    H251082   2.010   1.964   7.779  1.7869  0.4327 -0.6098
 8963TIP3   OH251083   5.504   5.602   6.479 -0.1557 -0.4062  0.1086
 8963TIP3    H151084   5.463   5.540   6.539 -1.9067  1.2372  0.7151
 8963TIP3    H251085   5.549   5.665   6.536 -1.6498  1.0441 -0.2393
 8964TIP3   OH251086   2.137   3.190   6.021  0.0334  0.3612  0.2521
 8964TIP3    H151087   2.167   3.116   6.074  0.2408 -1.7103 -2.5402
 8964TIP3    H251088   2.206   3.256   6.032  0.9761 -0.7043  1.1058
 8965TIP3   OH251089   4.228   3.815   8.796 -0.2438 -0.4844  0.5815
 8965TIP3    H151090   4.304   3.758   8.793 -1.0612 -1.6441  1.1649
 8965TIP3    H251091   4.153   3.756   8.799 -1.3423  0.5999 -2.1229
 8966TIP3   OH251092   2.085   1.475   7.430  0.0320 -0.1695  0.0617
 8966TIP3    H151093   2.074   1.429   7.513 -0.3618  0.3542  0.3056
 8966TIP3    H251094   2.034   1.424   7.367 -0.7502  0.1510  0.4150
 8967TIP3   OH251095   6.054   4.166   8.444  0.0367 -0.4488 -0.3314
 8967TIP3    H151096   6.027   4.198   8.530  2.5067  0.3546  0.2169
 8967TIP3    H251097   6.045   4.071   8.450 -0.7039 -0.3359  0.4683
 8968TIP3   OH251098   2.476   0.786   6.865  0.5975  0.0547  0.0502
 8968TIP3    H151099   2.512   0.847   6.930 -0.4945 -0.2315  0.9615
 8968TIP3    H251100   2.412   0.734   6.915  0.7015 -1.0724 -0.9632
 8969TIP3   OH251101   2.082   4.728   8.326 -0.2550  0.1096 -0.9651
 8969TIP3    H151102   2.162   4.759   8.369 -0.1851  0.6023 -1.4475
 8969TIP3    H251103   2.044   4.806   8.286 -0.4913 -0.2871 -1.5199
 8970TIP3   OH251104   5.427   5.453   7.734 -0.6886  0.1804  1.2407
 8970TIP3    H151105   5.454   5.364   7.758  0.9436  0.4802  0.6291
 8970TIP3    H251106   5.361   5.439   7.666 -0.0992 -0.5749  0.8020
 8971TIP3   OH251107   4.521   3.263   7.388 -0.1592 -0.5410 -0.3433
 8971TIP3    H151108   4.441   3.312   7.368  0.2689 -0.2584 -1.4584
 8971TIP3    H251109   4.588   3.330   7.400 -0.0466 -0.7843  0.4410
 8972TIP3   OH251110   2.189   6.247   8.217 -0.0896 -0.0382  0.4144
 8972TIP3    H151111   2.165   6.210   8.132  2.1539 -3.7020  1.1676
 8972TIP3    H251112   2.223   6.334   8.196 -0.7902 -0.3156 -2.2492
 8973TIP3   OH251113   3.681   4.364   6.254 -0.3519 -0.2249  0.0579
 8973TIP3    H151114   3.636   4.291   6.212 -1.3465  1.3256 -1.7657
 8973TIP3    H251115   3.610   4.419   6.288  0.1917  1.2888 -1.1336
 8974TIP3   OH251116   2.484   2.258   6.326 -0.7049 -0.1339 -0.0313
 8974TIP3    H151117   2.444   2.273   6.240 -0.2218  1.8137  0.0178
 8974TIP3    H251118   2.546   2.187   6.312 -2.2198 -1.3785 -0.7351
 8975TIP3   OH251119   5.963   0.976   7.966  0.2234 -0.3347 -0.0430
 8975TIP3    H151120   6.029   1.027   8.012 -0.6831  0.0939  0.8287
 8975TIP3    H251121   5.999   0.962   7.878  0.7567  1.2751 -0.1073
 8976TIP3   OH251122   3.947   1.075   7.423  0.2303 -0.0315  0.2150
 8976TIP3    H151123   3.873   1.021   7.396 -1.3021  1.0925  1.9471
 8976TIP3    H251124   4.015   1.013   7.449 -1.0811 -1.1182  1.1077
 8977TIP3   OH251125   4.305   6.220   7.730  0.0243 -0.3120  0.5965
 8977TIP3    H151126   4.272   6.225   7.640  0.4088  1.7122  0.5182
 8977TIP3    H251127   4.254   6.286   7.778  1.7823  0.6995  1.1716
 8978TIP3   OH251128   6.217   2.247   6.422  0.1169 -0.3167  0.3240
 8978TIP3    H151129   6.137   2.287   6.388  0.2400 -0.8990 -0.6890
 8978TIP3    H251130   6.192   2.159   6.447  0.3342 -0.3360  0.4814
 8979TIP3   OH251131   0.873   5.721   7.051 -0.0133 -0.1948  0.0122
 8979TIP3    H151132   0.901   5.752   7.138  0.1900 -2.3698  0.7762
 8979TIP3    H251133   0.943   5.748   6.992  0.1592  0.7351  0.6218
 8980TIP3   OH251134   0.041   1.530   6.285 -0.0209 -0.0100 -0.3264
 8980TIP3    H151135  -0.003   1.537   6.200  0.3468 -0.9131 -0.6048
 8980TIP3    H251136   0.000   1.454   6.327  1.0178 -0.6504 -0.4441
 8981TIP3   OH251137   3.681   3.156   8.061  0.1260  0.0482  0.6250
 8981TIP3    H151138   3.752   3.104   8.022 -0.4537 -0.5298  0.3211
 8981TIP3    H251139   3.608   3.146   8.000 -0.6117 -0.3860  1.5529
 8982TIP3   OH251140   0.460   0.044   5.606 -0.0697  0.1482 -0.4906
 8982TIP3    H151141   0.373   0.017   5.635 -0.0510 -0.4939 -1.0138
 8982TIP3    H251142   0.448   0.134   5.576  0.2811  1.5834  3.1656
 8983TIP3   OH251143   0.807   2.337   8.157 -0.1727 -0.0158  0.2157
 8983TIP3    H151144   0.729   2.301   8.117 -0.8662  1.3354  0.2945
 8983TIP3    H251145   0.789   2.431   8.165  0.8517  0.0898  1.6157
 8984TIP3   OH251146   4.713   1.231   6.384  0.1624  0.3514  0.8266
 8984TIP3    H151147   4.651   1.191   6.323  0.9368 -0.2518  0.4036
 8984TIP3    H251148   4.691   1.194   6.469  1.5816 -1.9694  0.2844
 8985TIP3   OH251149   3.047   5.767   6.480  0.3020 -0.4760 -0.1888
 8985TIP3    H151150   3.036   5.736   6.390 -0.2156  1.3497 -0.8111
 8985TIP3    H251151   3.104   5.702   6.522  0.9426 -1.1217 -1.9681
 8986TIP3   OH251152   3.524   1.317   5.942 -0.4646 -0.0270 -0.0981
 8986TIP3    H151153   3.528   1.248   5.876 -3.0802  2.0129 -2.6791
 8986TIP3    H251154   3.582   1.386   5.909 -0.0320  0.1585  0.9852
 8987TIP3   OH251155   5.753   0.652   6.030 -0.4295  0.1100 -0.1772
 8987TIP3    H151156   5.775   0.620   5.943 -0.2725 -1.1361  0.2981
 8987TIP3    H251157   5.690   0.589   6.064 -0.5815  0.6455  0.5743
 8988TIP3   OH251158   1.350   0.612   7.055  0.0298  0.0297 -0.3177
 8988TIP3    H151159   1.389   0.663   6.984 -0.1366  0.2227 -0.2706
 8988TIP3    H251160   1.401   0.531   7.057  0.0065  0.0050 -0.6853
 8989TIP3   OH251161   5.059   3.853   5.871  0.3317  0.6807 -0.8942
 8989TIP3    H151162   5.132   3.897   5.828  1.4493  0.3920  0.6257
 8989TIP3    H251163   5.006   3.924   5.906 -0.1552  0.8932 -2.0083
 8990TIP3   OH251164   3.268   5.050   6.170 -0.3129  0.1483 -0.2392
 8990TIP3    H151165   3.267   5.094   6.255 -0.7967 -0.5470  0.1253
 8990TIP3    H251166   3.349   5.000   6.169 -0.1074  0.4849 -0.3573
 8991TIP3   OH251167   5.230   3.851   5.650 -0.1715  0.2236  0.0972
 8991TIP3    H151168   5.274   3.842   5.565  0.3516 -0.4891  0.4328
 8991TIP3    H251169   5.216   3.761   5.679 -0.1782  0.4652  0.8520
 8992TIP3   OH251170   3.469   3.956   8.496  0.3121  0.4177 -0.2431
 8992TIP3    H151171   3.523   3.991   8.568  0.4046 -0.6592  0.2359
 8992TIP3    H251172   3.380   3.983   8.518  0.1916 -0.7436  0.8501
 8993TIP3   OH251173   6.623   3.937   6.302  0.3435 -0.2798  0.0370
 8993TIP3    H151174   6.532   3.913   6.285  0.7533 -1.2833 -0.8341
 8993TIP3    H251175   6.658   3.863   6.352  0.4417  0.5362  1.2344
 8994TIP3   OH251176   0.364   6.167   7.479  0.1750 -0.5495  0.7185
 8994TIP3    H151177   0.397   6.098   7.422 -0.3572  0.1043 -0.4242
 8994TIP3    H251178   0.421   6.242   7.462 -0.7398  0.0300  0.0884
 8995TIP3   OH251179   6.317   0.607   7.749  0.5949  0.6453 -0.0385
 8995TIP3    H151180   6.255   0.662   7.702 -1.2883 -1.8815 -0.7182
 8995TIP3    H251181   6.314   0.639   7.840 -0.8137  1.3065 -0.2964
 8996TIP3   OH251182   1.231   0.157   8.107 -0.1407  0.2127  0.1640
 8996TIP3    H151183   1.240   0.102   8.029 -0.1072  1.6006 -0.8602
 8996TIP3    H251184   1.283   0.113   8.174 -0.4899 -1.2200 -0.4791
 8997TIP3   OH251185   5.384   2.461   7.967  0.3297  0.3451  0.1753
 8997TIP3    H151186   5.335   2.430   8.044  1.2182  0.0605  0.6330
 8997TIP3    H251187   5.473   2.475   7.999  0.9736 -0.7858 -1.0514
 8998TIP3   OH251188   6.222   1.852   6.164 -0.5227 -0.4150 -0.4810
 8998TIP3    H151189   6.170   1.932   6.152  0.3891  0.4362  0.9896
 8998TIP3    H251190   6.313   1.881   6.152 -0.1484 -1.1171  0.5934
 8999TIP3   OH251191   4.868   5.764   6.681 -0.2333  0.2508 -0.3217
 8999TIP3    H151192   4.845   5.676   6.651  2.2317 -1.3308  2.0467
 8999TIP3    H251193   4.921   5.801   6.610  2.6690 -2.0805  0.4882
 9000TIP3   OH251194   2.186   2.951   6.156  0.1493  0.4339 -0.3791
 9000TIP3    H151195   2.142   2.876   6.116 -0.2341  0.8331 -0.7174
 9000TIP3    H251196   2.247   2.913   6.219 -1.4877 -0.1106  0.9453
 9001TIP3   OH251197   0.457   6.624   7.707 -0.0850  0.0889  0.0785
 9001TIP3    H151198   0.524   6.562   7.680  0.6307  1.1669 -0.6962
 9001TIP3    H251199   0.479   6.705   7.662  1.0098  1.9672  3.6080
 9002TIP3   OH251200   0.765   2.929   6.343  0.0886  0.1333 -0.5704
 9002TIP3    H151201   0.840   2.941   6.401 -0.2740 -0.3742  0.0073
 9002TIP3    H251202   0.777   2.996   6.275 -0.0927  1.5482  0.7175
 9003TIP3   OH251203   2.305   5.355   6.977  0.1346 -0.6080  0.1781
 9003TIP3    H151204   2.348   5.327   7.057  0.1208 -1.2126 -0.0174
 9003TIP3    H251205   2.345   5.301   6.908 -1.1005 -1.3825  0.0290
 9004TIP3   OH251206   3.797   4.048   6.459  0.0062 -0.0103 -0.3040
 9004TIP3    H151207   3.705   4.046   6.484  0.0854  2.2573  0.3782
 9004TIP3    H251208   3.824   3.956   6.460 -2.3546 -0.7777 -1.0552
 9005TIP3   OH251209   6.709   4.939   6.250 -0.1910  0.4359  0.3307
 9005TIP3    H151210   6.759   4.884   6.310 -1.8972 -0.5031  0.9572
 9005TIP3    H251211   6.682   4.880   6.179 -1.2499  0.6524  0.5286
 9006TIP3   OH251212   4.060   5.762   7.817 -0.2895 -0.0710 -0.5857
 9006TIP3    H151213   4.042   5.847   7.857 -0.4609  0.7326 -2.2679
 9006TIP3    H251214   4.155   5.759   7.810 -0.2367 -0.3719  0.1698
 9007TIP3   OH251215   3.838   6.305   6.123 -0.4665  0.2885  0.0039
 9007TIP3    H151216   3.861   6.269   6.209  0.1155  0.6992  0.0243
 9007TIP3    H251217   3.884   6.249   6.061 -1.6505 -0.6050 -0.1032
 9008TIP3   OH251218   2.901   5.149   5.962 -0.0160 -0.2574  0.6742
 9008TIP3    H151219   2.970   5.137   5.897  1.2284 -1.8864  2.2030
 9008TIP3    H251220   2.827   5.183   5.912  0.7419 -1.8421 -1.7025
 9009TIP3   OH251221   6.024   6.562   6.264 -0.5172 -0.1035  0.0705
 9009TIP3    H151222   5.934   6.579   6.291 -0.3277 -1.8497  2.1339
 9009TIP3    H251223   6.077   6.597   6.336  0.4665  0.7283 -1.0249
 9010TIP3   OH251224   1.943   3.617   5.794  0.0779  0.5569  0.5180
 9010TIP3    H151225   1.875   3.581   5.737  1.7526 -0.9876 -0.6537
 9010TIP3    H251226   1.923   3.583   5.881 -1.1474  0.8943  0.3756
 9011TIP3   OH251227   4.070   1.160   6.750 -0.0266  0.1827 -0.0199
 9011TIP3    H151228   4.063   1.216   6.827 -0.1369 -0.2890  0.3173
 9011TIP3    H251229   4.003   1.193   6.690 -0.0862  0.4124  0.1725
 9012TIP3   OH251230   0.382   2.977   5.556 -0.1459  0.2299 -0.3489
 9012TIP3    H151231   0.408   2.973   5.464  0.0221 -0.3462 -0.2817
 9012TIP3    H251232   0.464   2.974   5.604 -0.2015  1.1144 -0.1864
 9013TIP3   OH251233   0.900   2.629   5.467  0.6647  0.1307  0.2175
 9013TIP3    H151234   0.937   2.546   5.497  3.3546 -0.3470 -3.6983
 9013TIP3    H251235   0.828   2.604   5.410  2.0854  0.3178 -1.7426
 9014TIP3   OH251236   4.904   3.416   8.212  0.0345  0.0614  0.1087
 9014TIP3    H151237   4.897   3.511   8.213  0.6254  0.1071  0.5055
 9014TIP3    H251238   4.898   3.390   8.303  1.7708 -0.1110  0.2064
 9015TIP3   OH251239   4.813   5.257   5.082  0.3429 -0.0623 -0.2231
 9015TIP3    H151240   4.774   5.319   5.021 -1.2164  0.0458  0.8445
 9015TIP3    H251241   4.776   5.172   5.058  0.0710 -0.0887  0.2704
 9016TIP3   OH251242   0.207   0.116   9.066  0.1971 -0.2042 -0.3852
 9016TIP3    H151243   0.298   0.133   9.090  0.8782 -0.0111 -2.7690
 9016TIP3    H251244   0.202   0.021   9.056  0.5717 -0.1170 -1.6117
 9017TIP3   OH251245   5.159   2.892   6.160  0.2986  0.5371 -0.2223
 9017TIP3    H151246   5.226   2.910   6.094 -0.8564  0.7338 -1.3799
 9017TIP3    H251247   5.187   2.811   6.201  0.4554 -0.2130 -1.7521
 9018TIP3   OH251248   5.251   4.616   7.952  0.3171 -0.1660  0.0976
 9018TIP3    H151249   5.336   4.583   7.921 -0.1627 -0.1569 -1.3183
 9018TIP3    H251250   5.220   4.548   8.012  1.3362 -0.1406  0.6911
 9019TIP3   OH251251   0.160   2.582   6.306  0.5641  0.2694  0.3088
 9019TIP3    H151252   0.098   2.634   6.356  0.6648  0.6003  0.0900
 9019TIP3    H251253   0.170   2.501   6.356 -2.0535 -0.9349 -0.9450
 9020TIP3   OH251254   4.013   1.120   5.851  0.2869  0.5839 -0.6987
 9020TIP3    H151255   3.958   1.059   5.801 -0.2025 -0.9013  1.5224
 9020TIP3    H251256   4.101   1.086   5.840  0.3831  1.1243 -1.7025
 9021TIP3   OH251257   5.014   4.553   6.429  0.3050  0.2521  1.0569
 9021TIP3    H151258   5.029   4.523   6.339  0.7740  0.3756  1.0942
 9021TIP3    H251259   5.093   4.601   6.452 -0.2267  1.0863  1.1853
 9022TIP3   OH251260   1.588   2.686   5.844  0.3792 -0.0954 -0.5893
 9022TIP3    H151261   1.536   2.747   5.897  0.8762 -0.2287  0.0590
 9022TIP3    H251262   1.610   2.736   5.765 -1.2877 -0.2514 -1.1987
 9023TIP3   OH251263   0.433   0.362   7.599  0.3507  0.1529  0.0522
 9023TIP3    H151264   0.475   0.401   7.676  1.3709 -0.4691 -0.1716
 9023TIP3    H251265   0.462   0.416   7.526  0.6096 -0.1550 -0.0760
 9024TIP3   OH251266   0.059   4.352   8.276  0.1037  0.1312  0.0222
 9024TIP3    H151267   0.044   4.327   8.185  0.3234 -1.5204  0.4184
 9024TIP3    H251268   0.134   4.300   8.304  1.9933  2.7700  0.3043
 9025TIP3   OH251269   0.819   2.014   7.096 -0.1739  0.2630  0.0676
 9025TIP3    H151270   0.902   1.966   7.094 -1.0943 -1.4049 -0.3033
 9025TIP3    H251271   0.804   2.033   7.188  0.7692  0.8707  0.1050
 9026TIP3   OH251272   0.498   5.378   5.912 -0.6432  0.3709  0.1415
 9026TIP3    H151273   0.501   5.301   5.969 -1.7733 -0.2014 -0.5371
 9026TIP3    H251274   0.585   5.418   5.922 -0.7102  0.1463  2.0340
 9027TIP3   OH251275   3.235   5.945   5.844  0.0475  0.0940 -0.2699
 9027TIP3    H151276   3.307   5.984   5.795 -0.7043  1.3890 -0.4013
 9027TIP3    H251277   3.180   5.903   5.778  0.2824 -0.2480 -0.2512
 9028TIP3   OH251278   0.475   6.683   9.276  0.0666 -0.3087  0.4358
 9028TIP3    H151279   0.532   6.622   9.228 -0.3930 -1.3268  1.1304
 9028TIP3    H251280   0.394   6.634   9.289 -0.6788  0.8214  0.1768
 9029TIP3   OH251281   4.233   2.428   7.567 -0.2666  0.0166 -0.7612
 9029TIP3    H151282   4.294   2.501   7.557 -0.7356  0.3931 -0.9546
 9029TIP3    H251283   4.271   2.374   7.636 -0.3785  0.9446  0.0633
 9030TIP3   OH251284   0.938   6.505   6.635 -0.3255 -0.2990 -0.4091
 9030TIP3    H151285   0.889   6.587   6.637  0.8834  0.4655 -1.1339
 9030TIP3    H251286   0.925   6.467   6.722 -0.6002  0.8408  0.0631
 9031TIP3   OH251287   6.674   2.391   6.559 -0.1564  0.2025 -0.6434
 9031TIP3    H151288   6.691   2.348   6.475  0.0827  1.2531 -1.1477
 9031TIP3    H251289   6.761   2.413   6.592 -0.2291 -0.5152  0.0624
 9032TIP3   OH251290   1.978   0.902   5.415 -0.4520  0.2282 -0.1609
 9032TIP3    H151291   1.900   0.847   5.412  0.5057 -1.2201  0.4030
 9032TIP3    H251292   1.976   0.942   5.501 -1.4703  1.6109 -0.7936
 9033TIP3   OH251293   4.285   5.556   5.883 -0.0346 -0.1142 -0.0394
 9033TIP3    H151294   4.305   5.478   5.831 -1.4880 -1.1320  0.8318
 9033TIP3    H251295   4.269   5.522   5.971  0.9055  1.3828  0.7490
 9034TIP3   OH251296   6.240   4.038   5.671  0.8353 -0.3396  0.2765
 9034TIP3    H151297   6.262   4.124   5.707  1.0682 -0.6841  0.9682
 9034TIP3    H251298   6.192   3.994   5.741 -1.7768  0.2279 -1.0191
 9035TIP3   OH251299   5.450   4.081   6.908 -0.2884  0.1360 -0.1876
 9035TIP3    H151300   5.433   4.091   6.814 -2.0723 -1.4448 -0.0981
 9035TIP3    H251301   5.461   3.987   6.921 -1.1159  0.2182  1.3168
 9036TIP3   OH251302   6.427   3.219   5.915 -0.1363  0.2119 -0.1543
 9036TIP3    H151303   6.483   3.277   5.968  1.9180 -0.6239 -1.3236
 9036TIP3    H251304   6.388   3.159   5.979 -0.3304  1.2868  0.7765
 9037TIP3   OH251305   0.950   6.220   8.849  0.6080  0.1123  0.2212
 9037TIP3    H151306   1.004   6.179   8.917  1.3374  1.7825  0.7089
 9037TIP3    H251307   0.949   6.156   8.778  0.2520 -1.4666  1.5759
 9038TIP3   OH251308   0.897   1.490   5.474  0.1812 -0.3996  0.1374
 9038TIP3    H151309   0.906   1.524   5.564 -1.2567 -1.4873  0.7381
 9038TIP3    H251310   0.858   1.562   5.425  0.5094  0.0330  0.5020
 9039TIP3   OH251311   1.221   3.480   8.237 -0.0782  0.5975  0.0126
 9039TIP3    H151312   1.303   3.530   8.234  0.7169 -0.6771 -0.7257
 9039TIP3    H251313   1.164   3.526   8.175  0.0176  1.5827  0.6345
 9040TIP3   OH251314   1.109   3.056   7.196 -0.2467  0.1020 -0.3099
 9040TIP3    H151315   1.015   3.078   7.196  0.3589  3.2173 -0.4313
 9040TIP3    H251316   1.134   3.063   7.104  0.5206  1.6719 -0.0092
 9041TIP3   OH251317   2.973   2.810   6.589 -0.5019  0.2481  0.0862
 9041TIP3    H151318   3.044   2.754   6.620 -0.6748  0.4448  0.8524
 9041TIP3    H251319   3.004   2.845   6.505 -1.1334 -2.4477 -1.3918
 9042TIP3   OH251320   4.986   3.229   7.746 -0.2171  0.0189 -1.0167
 9042TIP3    H151321   4.945   3.152   7.785 -1.2596  1.0727  0.1087
 9042TIP3    H251322   4.932   3.249   7.669 -1.8322  1.2739  0.3373
 9043TIP3   OH251323   2.674   5.180   8.554 -0.2530 -0.2674 -0.1853
 9043TIP3    H151324   2.593   5.132   8.536 -0.2179 -0.5387  0.3748
 9043TIP3    H251325   2.648   5.252   8.612 -0.3207  0.4605 -1.0837
 9044TIP3   OH251326   5.215   3.564   7.582  0.1186  0.3152 -0.3489
 9044TIP3    H151327   5.278   3.633   7.602 -0.2098  1.3081 -2.3877
 9044TIP3    H251328   5.233   3.541   7.490 -0.1244 -1.9738  0.1132
 9045TIP3   OH251329   4.172   3.948   7.368 -0.5959 -0.2945 -0.3076
 9045TIP3    H151330   4.088   3.918   7.403 -0.8893 -0.0001 -0.7481
 9045TIP3    H251331   4.183   3.899   7.286  0.9076 -2.2732  0.9863
 9046TIP3   OH251332   6.652   0.896   7.541  0.2783 -0.2387 -0.0259
 9046TIP3    H151333   6.576   0.948   7.518 -0.1586 -0.9701 -0.2651
 9046TIP3    H251334   6.714   0.958   7.580 -1.2926  0.0187  2.2375
 9047TIP3   OH251335   2.733   5.298   5.748  0.3961  0.3571 -0.1076
 9047TIP3    H151336   2.645   5.259   5.747  1.1788 -1.5201 -0.5424
 9047TIP3    H251337   2.720   5.385   5.785 -1.0096 -1.4004  4.1988
 9048TIP3   OH251338   5.846   0.570   8.157  0.1215  0.4261  0.2894
 9048TIP3    H151339   5.804   0.624   8.091 -0.0419 -0.8878 -0.7193
 9048TIP3    H251340   5.940   0.580   8.140  0.0633 -0.6706 -0.8156
 9049TIP3   OH251341   6.345   2.982   6.763 -0.3270 -0.2414 -0.5224
 9049TIP3    H151342   6.356   2.930   6.683  1.4692 -0.5060 -0.1494
 9049TIP3    H251343   6.418   3.043   6.762 -1.4450  1.1616 -0.0745
 9050TIP3   OH251344   6.630   1.353   8.248 -0.1510 -0.5915  0.3836
 9050TIP3    H151345   6.695   1.415   8.217 -1.3954 -0.1406 -1.4779
 9050TIP3    H251346   6.592   1.395   8.326  0.3817  0.0735  0.2888
 9051TIP3   OH251347   6.682   1.240   6.596  0.0999  0.1538  0.2346
 9051TIP3    H151348   6.768   1.259   6.559  0.0560 -1.6648 -0.9486
 9051TIP3    H251349   6.698   1.223   6.689  0.5773  2.4588  0.6115
 9052TIP3   OH251350   2.089   2.184   7.417  0.2113  0.1123 -0.2210
 9052TIP3    H151351   2.096   2.090   7.402  1.7458  0.2134 -0.2648
 9052TIP3    H251352   1.995   2.201   7.420 -0.1220 -1.1245 -2.1307
 9053TIP3   OH251353   4.028   2.876   8.358 -0.2637 -0.1196 -0.4445
 9053TIP3    H151354   3.988   2.916   8.435  1.4853  0.4042  0.2468
 9053TIP3    H251355   4.056   2.950   8.304  2.6491 -0.2928  0.6618
 9054TIP3   OH251356   3.848   0.981   5.640  0.5993 -0.0210  0.2075
 9054TIP3    H151357   3.888   0.994   5.554 -0.3306  1.0576 -0.0892
 9054TIP3    H251358   3.858   0.888   5.657  0.0735 -0.4182 -1.4511
 9055TIP3   OH251359   0.318   6.424   7.900  0.4653 -0.2351  0.5044
 9055TIP3    H151360   0.363   6.490   7.848  1.8407 -0.1729  1.7185
 9055TIP3    H251361   0.290   6.471   7.979 -0.7366 -0.5493  0.2846
 9056TIP3   OH251362   4.036   3.974   7.725 -0.3181 -0.4980 -0.1043
 9056TIP3    H151363   4.091   4.027   7.667 -0.6835  0.6895  0.6158
 9056TIP3    H251364   4.018   3.895   7.674  2.7191 -1.3296 -0.0947
 9057TIP3   OH251365   0.337   1.157   7.082  0.0533  0.0062  0.2700
 9057TIP3    H151366   0.425   1.172   7.118 -0.1617 -0.8311  1.1703
 9057TIP3    H251367   0.327   1.225   7.016  0.7568  1.1343  1.2801
 9058TIP3   OH251368   5.448   0.737   8.170 -0.4619  0.0547 -0.4691
 9058TIP3    H151369   5.382   0.761   8.234 -0.5597 -1.4580  0.0251
 9058TIP3    H251370   5.455   0.642   8.176  1.2456  0.1065 -1.0149
 9059TIP3   OH251371   6.589   1.521   7.853  0.0199 -0.0569  0.0934
 9059TIP3    H151372   6.588   1.503   7.759 -0.1063 -3.2103  0.5731
 9059TIP3    H251373   6.664   1.471   7.886 -0.3521  0.4293  1.7698
 9060TIP3   OH251374   5.783   2.693   7.484  0.4308  0.5707  0.1973
 9060TIP3    H151375   5.793   2.716   7.577 -1.0654 -1.2217  0.8851
 9060TIP3    H251376   5.849   2.625   7.470 -0.5104 -0.4465  0.5042
 9061TIP3   OH251377   0.928   3.022   5.744  0.0964  0.0877  0.2028
 9061TIP3    H151378   0.958   2.998   5.832  2.8534  0.8524 -0.4293
 9061TIP3    H251379   0.954   2.947   5.689 -0.0219  0.3625 -0.2275
 9062TIP3   OH251380   2.593   1.056   6.003 -0.1388  0.3985 -0.1622
 9062TIP3    H151381   2.604   1.029   5.912  2.1959 -1.0552  0.4630
 9062TIP3    H251382   2.623   0.981   6.055 -1.4529  1.1498  1.8393
 9063TIP3   OH251383   4.100   4.751   8.692 -0.0102 -0.4536 -0.5804
 9063TIP3    H151384   4.138   4.796   8.767 -1.3964 -0.1589 -0.0362
 9063TIP3    H251385   4.052   4.677   8.729  0.4582 -1.1440 -1.2991
 9064TIP3   OH251386   2.691   6.392   8.497 -0.7669  0.3416  0.4280
 9064TIP3    H151387   2.653   6.305   8.510  2.4838 -1.4358 -0.6683
 9064TIP3    H251388   2.706   6.398   8.403  0.5415  1.3899  0.6709
 9065TIP3   OH251389   3.476   2.747   7.908 -0.5742 -0.6026 -0.5367
 9065TIP3    H151390   3.449   2.800   7.983  2.3875  0.4997 -0.1446
 9065TIP3    H251391   3.502   2.811   7.842 -0.4903 -1.5849 -1.4728
 9066TIP3   OH251392   3.170   1.978   5.844 -0.0013 -0.9177 -0.5997
 9066TIP3    H151393   3.242   1.947   5.789  1.8954  1.0750  0.5897
 9066TIP3    H251394   3.124   2.042   5.789  0.6451 -0.4239 -0.5760
 9067TIP3   OH251395   1.772   3.652   7.160  0.7545 -0.0513 -0.4604
 9067TIP3    H151396   1.699   3.611   7.113  1.0078 -0.5526 -0.4264
 9067TIP3    H251397   1.773   3.742   7.130  0.5938 -0.2358 -1.0329
 9068TIP3   OH251398   0.378   5.855   6.365  0.0032  0.0905  0.3582
 9068TIP3    H151399   0.333   5.823   6.287 -0.2427 -0.1167  0.5796
 9068TIP3    H251400   0.396   5.776   6.416  0.8422  0.1480  0.1570
 9069TIP3   OH251401   1.154   4.458   6.152  0.3978 -0.0172 -0.0408
 9069TIP3    H151402   1.236   4.508   6.155  1.2191 -1.2809 -0.4745
 9069TIP3    H251403   1.179   4.374   6.114 -1.0895 -0.4851 -0.0456
 9070TIP3   OH251404   3.925   0.228   5.715  0.4447  0.0849 -0.1703
 9070TIP3    H151405   3.885   0.194   5.795  1.7069 -0.7541  0.1204
 9070TIP3    H251406   4.004   0.175   5.703  0.4671  0.4481 -1.7713
 9071TIP3   OH251407   0.332   6.335   6.843  0.6531 -0.4080 -0.3122
 9071TIP3    H151408   0.354   6.261   6.786  2.0473 -0.4785  0.2698
 9071TIP3    H251409   0.396   6.329   6.915 -0.3939  0.2904  0.7075
 9072TIP3   OH251410   4.931   2.249   7.475  0.4290  0.2530  0.2279
 9072TIP3    H151411   4.966   2.222   7.390  0.2127 -1.0914  0.5403
 9072TIP3    H251412   4.851   2.197   7.485 -0.2683  1.3729  0.6819
 9073TIP3   OH251413   2.463   3.952   7.670  0.4321 -0.5272 -0.1904
 9073TIP3    H151414   2.518   3.932   7.595  0.7168 -0.5301  0.0188
 9073TIP3    H251415   2.477   3.879   7.731 -0.8098 -1.2219 -0.6889
 9074TIP3   OH251416   1.614   3.900   5.968 -0.0711  0.3554  0.0683
 9074TIP3    H151417   1.615   3.995   5.956 -0.5638  0.0902 -2.8810
 9074TIP3    H251418   1.525   3.881   5.995 -0.8450  0.5730 -2.0992
 9075TIP3   OH251419   1.501   3.092   9.382  0.1158  0.1967  0.4751
 9075TIP3    H151420   1.426   3.109   9.438 -0.1676  1.7278 -0.3188
 9075TIP3    H251421   1.546   3.018   9.424 -1.6602 -0.5821  1.1042
 9076TIP3   OH251422   5.547   0.371   6.391  0.3338 -0.7866 -0.2389
 9076TIP3    H151423   5.475   0.308   6.399 -0.5563  0.1616 -0.6245
 9076TIP3    H251424   5.528   0.437   6.457  1.0594 -0.7135 -0.0951
 9077TIP3   OH251425   1.994   1.715   7.626 -0.2684  0.8614 -0.2599
 9077TIP3    H151426   1.985   1.754   7.713  0.0352  0.2754  0.0335
 9077TIP3    H251427   2.023   1.626   7.642  1.9878  1.3959 -1.0151
 9078TIP3   OH251428   0.706   3.887   8.364 -0.3266  0.4501  0.8089
 9078TIP3    H151429   0.632   3.882   8.424  0.6934  1.7984  2.2625
 9078TIP3    H251430   0.729   3.980   8.362 -0.0921  0.3988 -1.4201
 9079TIP3   OH251431   2.295   2.670   7.684 -0.1458  0.4675 -0.1610
 9079TIP3    H151432   2.241   2.681   7.606  0.9779 -0.8739 -1.1714
 9079TIP3    H251433   2.352   2.595   7.664  0.1368  0.0528  1.9659
 9080TIP3   OH251434   0.648   4.943   6.486  0.0882 -0.2144  0.1989
 9080TIP3    H151435   0.669   4.926   6.395 -1.8789 -0.5754 -0.2166
 9080TIP3    H251436   0.562   4.984   6.484  0.9948  1.9680  1.7532
 9081TIP3   OH251437   4.126   2.541   6.659 -0.6023  0.1147 -0.2444
 9081TIP3    H151438   4.107   2.478   6.728 -0.5825  0.3709 -0.0035
 9081TIP3    H251439   4.074   2.618   6.682 -1.8338 -0.3348 -1.3474
 9082TIP3   OH251440   0.498   2.500   8.214 -0.5251 -0.1941 -0.2982
 9082TIP3    H151441   0.561   2.457   8.157 -1.3215  0.0651 -1.3901
 9082TIP3    H251442   0.545   2.577   8.247 -0.7146  0.8511 -2.3041
 9083TIP3   OH251443   0.858   5.203   8.973 -0.0797 -0.2837  0.4037
 9083TIP3    H151444   0.840   5.238   8.886  0.8577 -2.5501 -0.7752
 9083TIP3    H251445   0.788   5.240   9.028 -1.0990  0.6634 -1.4268
 9084TIP3   OH251446   1.331   4.031   7.642 -0.1105 -0.3318 -0.2670
 9084TIP3    H151447   1.273   3.980   7.585 -1.6608  1.2603 -0.2061
 9084TIP3    H251448   1.378   4.089   7.583  0.4392 -0.6653 -0.1711
 9085TIP3   OH251449   0.505   5.461   5.634 -0.2091  0.0256 -0.0324
 9085TIP3    H151450   0.426   5.491   5.589  0.2187  0.9833 -0.1686
 9085TIP3    H251451   0.476   5.444   5.724 -0.5472  0.4862 -0.0502
 9086TIP3   OH251452   1.030   0.468   6.171 -0.3027  0.0555 -0.0049
 9086TIP3    H151453   1.109   0.425   6.141 -0.6783 -0.9060  0.3560
 9086TIP3    H251454   0.964   0.399   6.175 -1.0613  0.7608  0.0704
 9087TIP3   OH251455   1.449   5.493   7.324 -0.7453 -0.1765 -0.7416
 9087TIP3    H151456   1.492   5.547   7.390 -1.7000  1.8327 -1.6766
 9087TIP3    H251457   1.502   5.413   7.321 -0.3834 -0.1631  2.0585
 9088TIP3   OH251458   5.326   5.247   8.423  0.5128  0.0875 -1.0211
 9088TIP3    H151459   5.371   5.308   8.481 -1.0261  0.7157 -0.4600
 9088TIP3    H251460   5.334   5.162   8.467 -0.5873  0.5486  0.1100
 9089TIP3   OH251461   0.902   5.199   7.995 -0.2908  0.0732 -0.3291
 9089TIP3    H151462   0.966   5.244   8.049 -1.6829  0.3986  1.1322
 9089TIP3    H251463   0.836   5.265   7.976 -0.5107 -0.4069 -1.3076
 9090TIP3   OH251464   4.141   5.075   4.798  0.1578  0.2859 -0.1331
 9090TIP3    H151465   4.069   5.014   4.816  0.9985 -0.7482 -0.1861
 9090TIP3    H251466   4.097   5.157   4.776 -1.0269 -0.4060 -0.4723
 9091TIP3   OH251467   3.662   5.751   6.092  0.3630  0.0791 -0.4797
 9091TIP3    H151468   3.722   5.703   6.151 -1.1375 -1.1323  0.1302
 9091TIP3    H251469   3.679   5.713   6.006  0.6464 -0.0862 -0.3555
 9092TIP3   OH251470   1.575   5.857   6.404  0.3209  0.3931 -0.3110
 9092TIP3    H151471   1.625   5.915   6.462  0.1154  1.1130 -0.8439
 9092TIP3    H251472   1.578   5.900   6.319 -1.2640  0.4822 -0.3442
 9093TIP3   OH251473   0.574   4.473   9.121 -0.1510  0.3334 -0.1681
 9093TIP3    H151474   0.549   4.436   9.206  1.2256 -1.9352 -0.6531
 9093TIP3    H251475   0.521   4.425   9.057  1.0222 -0.2360 -0.7558
 9094TIP3   OH251476   5.780   5.881   7.803  0.3169 -0.0390 -0.1689
 9094TIP3    H151477   5.754   5.790   7.791  1.5417 -0.4053 -0.1307
 9094TIP3    H251478   5.711   5.919   7.857 -0.9697 -0.5467 -1.3857
 9095TIP3   OH251479   1.213   5.865   7.488 -0.3003 -0.0474  0.2550
 9095TIP3    H151480   1.276   5.879   7.418 -0.1789  0.7190  0.5076
 9095TIP3    H251481   1.265   5.832   7.561 -0.4750 -1.1627 -0.1022
 9096TIP3   OH251482   5.262   2.271   7.737 -0.4924  0.1165  0.1862
 9096TIP3    H151483   5.254   2.343   7.799 -0.4942  2.1512 -2.0347
 9096TIP3    H251484   5.356   2.255   7.730 -0.4878 -0.0636  0.6109
 9097TIP3   OH251485   5.717   3.709   8.067 -0.6007  0.0494 -0.1675
 9097TIP3    H151486   5.784   3.678   8.006 -1.4606 -0.5680 -0.8311
 9097TIP3    H251487   5.709   3.638   8.131  0.9329  1.0743  1.2317
 9098TIP3   OH251488   1.634   1.357   6.926 -0.0181  0.2637  0.2975
 9098TIP3    H151489   1.634   1.452   6.940 -1.6552  0.3184  0.1876
 9098TIP3    H251490   1.631   1.347   6.830 -0.1438  0.1133  0.3165
 9099TIP3   OH251491   5.712   2.440   7.180 -0.0050 -0.3713 -0.0371
 9099TIP3    H151492   5.656   2.436   7.257 -1.5372 -1.3290 -1.1362
 9099TIP3    H251493   5.787   2.384   7.201 -0.0187 -0.0176  1.0169
 9100TIP3   OH251494   3.933   2.190   6.041 -0.1320 -0.3804  0.0180
 9100TIP3    H151495   3.865   2.220   6.102  0.9423  0.0822  1.0184
 9100TIP3    H251496   3.978   2.120   6.088  1.6141  0.9085  0.3852
 9101TIP3   OH251497   5.931   5.702   7.259 -0.1887  0.1262 -0.1579
 9101TIP3    H151498   5.872   5.627   7.250 -2.0300  1.4342  0.6061
 9101TIP3    H251499   6.003   5.682   7.199 -2.1939 -0.7701 -2.4470
 9102TIP3   OH251500   5.256   1.586   8.398 -0.1203  0.4667  0.1393
 9102TIP3    H151501   5.264   1.671   8.354 -3.8634 -0.4213 -2.8055
 9102TIP3    H251502   5.189   1.599   8.464  1.6348  0.4469  2.0304
 9103TIP3   OH251503   6.213   5.141   7.260  0.0076 -0.7402  0.2385
 9103TIP3    H151504   6.169   5.226   7.250 -0.7812 -1.1338  0.3470
 9103TIP3    H251505   6.249   5.143   7.349  3.1481  0.9365 -0.9146
 9104TIP3   OH251506   6.371   6.132   8.226 -0.1264 -0.2997 -0.5950
 9104TIP3    H151507   6.418   6.148   8.145 -0.7991 -0.3454 -1.0044
 9104TIP3    H251508   6.294   6.189   8.221  0.4840  0.6728  0.6039
 9105TIP3   OH251509   4.055   5.644   5.056  0.0229 -0.3270 -0.6519
 9105TIP3    H151510   4.144   5.640   5.091 -0.1511 -0.6075 -0.2271
 9105TIP3    H251511   4.039   5.738   5.041  0.6323 -0.3342 -1.3919
 9106TIP3   OH251512   2.510   2.716   7.416  0.1109 -0.6201 -0.1784
 9106TIP3    H151513   2.424   2.747   7.445  0.0565 -1.9734  1.2615
 9106TIP3    H251514   2.490   2.647   7.352  0.1311 -0.6651 -0.1364
 9107TIP3   OH251515   0.251   1.757   7.869  0.0175 -0.2194  0.2012
 9107TIP3    H151516   0.283   1.811   7.796 -1.6169  0.1152 -0.3020
 9107TIP3    H251517   0.331   1.725   7.911  1.0247  1.2976 -0.4548
 9108TIP3   OH251518   5.476   5.430   8.581  0.7437 -0.3207  0.1764
 9108TIP3    H151519   5.391   5.461   8.614  0.5103  0.2298 -0.9163
 9108TIP3    H251520   5.540   5.473   8.638  0.3285  0.0908  0.3444
 9109TIP3   OH251521   5.995   5.997   6.353  0.0092  0.2857  0.0027
 9109TIP3    H151522   5.921   5.965   6.302  0.8187  0.0471 -1.0533
 9109TIP3    H251523   6.012   6.085   6.319 -0.2549  0.6401  0.7642
 9110TIP3   OH251524   5.059   5.359   7.752  0.0910 -0.5213  0.0183
 9110TIP3    H151525   5.131   5.396   7.700  0.0137 -0.0887  0.2102
 9110TIP3    H251526   4.981   5.377   7.699 -0.2020  1.4449  1.0225
 9111TIP3   OH251527   4.215   1.985   7.055  0.2880  0.2453 -0.2973
 9111TIP3    H151528   4.175   1.969   6.969 -0.2028  0.0949 -0.0382
 9111TIP3    H251529   4.205   2.079   7.069  0.9350  0.3860 -0.6819
 9112TIP3   OH251530   0.746   4.002   5.968 -0.5098  0.0335 -1.0158
 9112TIP3    H151531   0.815   3.939   5.947  0.2721  1.1693 -2.0172
 9112TIP3    H251532   0.690   4.002   5.890  0.5870  1.9427 -1.8636
 9113TIP3   OH251533   0.545   2.833   8.865  0.0968  0.7758 -0.0311
 9113TIP3    H151534   0.591   2.817   8.782  0.0693  1.0415 -0.0981
 9113TIP3    H251535   0.581   2.768   8.925 -0.6684 -0.1454 -0.5461
 9114TIP3   OH251536   2.527   4.693   5.629  0.2113  0.3203 -0.0117
 9114TIP3    H151537   2.468   4.619   5.644  2.2416 -1.8772 -2.0555
 9114TIP3    H251538   2.507   4.721   5.540  1.1797  0.6058 -0.1425
 9115TIP3   OH251539   1.529   0.532   6.356 -0.5099  0.2579  0.3301
 9115TIP3    H151540   1.614   0.543   6.400 -0.1682 -1.1533  0.0610
 9115TIP3    H251541   1.487   0.618   6.363  1.3374  1.2735 -0.3716
 9116TIP3   OH251542   6.474   2.574   6.548 -0.8958 -0.2452 -0.1749
 9116TIP3    H151543   6.541   2.505   6.554 -0.9157 -0.1350  1.7434
 9116TIP3    H251544   6.391   2.526   6.547 -0.8583 -0.3247 -1.3462
 9117TIP3   OH251545   6.131   0.550   8.166 -0.4429 -0.0584  0.3215
 9117TIP3    H151546   6.107   0.500   8.244  0.4145 -1.2401 -0.1417
 9117TIP3    H251547   6.166   0.632   8.201  1.2280 -1.1119  1.2925
 9118TIP3   OH251548   2.528   3.497   8.151 -0.3430 -0.1104 -0.3831
 9118TIP3    H151549   2.527   3.436   8.077  1.8575 -0.9145  0.1674
 9118TIP3    H251550   2.606   3.551   8.136 -1.4450  1.6222 -0.0956
 9119TIP3   OH251551   6.229   2.692   8.008  0.3595  0.1769 -0.1754
 9119TIP3    H151552   6.307   2.653   8.047  0.7611 -0.2350 -1.3597
 9119TIP3    H251553   6.234   2.669   7.915 -0.9291  0.5422 -0.3574
 9120TIP3   OH251554   1.525   0.654   8.104 -0.1086 -0.2950 -0.6273
 9120TIP3    H151555   1.607   0.650   8.054  0.0358  1.7473 -0.6346
 9120TIP3    H251556   1.553   0.648   8.196 -0.1997 -1.9656 -0.6710
 9121TIP3   OH251557   1.470   6.536   7.436  0.1853  0.0647 -0.7537
 9121TIP3    H151558   1.563   6.550   7.420  0.3535 -0.9076 -0.6892
 9121TIP3    H251559   1.444   6.470   7.371 -0.4330  0.2581 -0.7069
 9122TIP3   OH251560   4.020   2.833   7.542 -0.3299  0.3320 -0.0954
 9122TIP3    H151561   4.026   2.742   7.514  0.1071 -0.5423  2.5605
 9122TIP3    H251562   4.104   2.872   7.515  0.8208 -0.9442  1.4633
 9123TIP3   OH251563   4.286   4.516   7.955 -0.0352 -0.1902 -0.1920
 9123TIP3    H151564   4.370   4.498   7.999 -0.3354  0.0888  0.5179
 9123TIP3    H251565   4.302   4.493   7.863  0.7648 -0.3157 -0.0359
 9124TIP3   OH251566   1.343   6.620   8.644 -0.1238 -0.2101  0.0336
 9124TIP3    H151567   1.383   6.553   8.699  0.0515 -0.9531 -0.9864
 9124TIP3    H251568   1.257   6.635   8.685 -0.2280 -1.1620  0.1948
 9125TIP3   OH251569   2.718   3.375   6.413 -0.2059 -0.1121 -0.4638
 9125TIP3    H151570   2.713   3.331   6.328 -0.9556  0.7252 -0.8667
 9125TIP3    H251571   2.658   3.326   6.469 -0.0605 -0.3842 -0.5457
 9126TIP3   OH251572   3.084   6.082   7.471 -1.0383  0.3393 -0.4886
 9126TIP3    H151573   3.121   5.995   7.458 -1.2764 -0.1137  1.5184
 9126TIP3    H251574   3.152   6.130   7.519 -1.4983  0.7560 -0.2430
 9127TIP3   OH251575   3.043   2.639   8.901  0.3265  0.0267  0.0870
 9127TIP3    H151576   3.069   2.635   8.994  3.1784  1.2493 -0.5385
 9127TIP3    H251577   3.010   2.551   8.882 -2.0204  0.2293  2.6265
 9128TIP3   OH251578   3.521   1.459   5.652  0.0319 -0.4327  0.6208
 9128TIP3    H151579   3.485   1.538   5.610 -0.5749 -0.3744  1.2474
 9128TIP3    H251580   3.451   1.395   5.648 -0.9662  0.3253  3.6952
 9129TIP3   OH251581   0.942   2.709   6.959  0.7642  0.3364  0.0047
 9129TIP3    H151582   0.982   2.639   7.010 -0.9897 -0.3233  0.5489
 9129TIP3    H251583   0.910   2.771   7.024  0.5906  0.6778 -0.4023
 9130TIP3   OH251584   3.720   4.177   5.771 -0.1788 -0.1296 -0.3286
 9130TIP3    H151585   3.649   4.128   5.730  0.2624 -1.7740  0.7497
 9130TIP3    H251586   3.795   4.118   5.767  0.2054  0.1599  1.6178
 9131TIP3   OH251587   0.365   5.165   5.691 -0.2617  0.4699 -0.2233
 9131TIP3    H151588   0.360   5.158   5.596  1.1162 -1.9367 -0.2024
 9131TIP3    H251589   0.436   5.227   5.707 -0.5984  0.9972 -0.7485
 9132TIP3   OH251590   6.160   4.822   5.519 -0.5113  0.1906  0.3847
 9132TIP3    H151591   6.194   4.821   5.609 -0.0161  1.0983  0.2237
 9132TIP3    H251592   6.208   4.893   5.476 -1.8650  0.8089 -0.1527
 9133TIP3   OH251593   1.843   4.128   8.865 -0.3137 -0.2498  0.6029
 9133TIP3    H151594   1.927   4.090   8.837 -0.6753 -0.8400  0.3078
 9133TIP3    H251595   1.856   4.222   8.857 -0.7086 -0.3432 -2.6116
 9134TIP3   OH251596   6.346   1.456   5.832 -0.5765 -0.0228  0.0562
 9134TIP3    H151597   6.266   1.421   5.870  0.0353 -1.9178 -0.3102
 9134TIP3    H251598   6.344   1.550   5.853 -3.3256  0.1778 -0.7625
 9135TIP3   OH251599   0.221   5.902   7.929  0.5087 -0.0822 -0.3345
 9135TIP3    H151600   0.291   5.837   7.933  1.1072  0.6342  2.1740
 9135TIP3    H251601   0.255   5.977   7.977 -1.3091  0.9891 -0.6435
 9136TIP3   OH251602   2.593   5.909   8.373 -0.1671 -0.0342  0.0427
 9136TIP3    H151603   2.550   5.954   8.300  0.0383  1.0599  0.5768
 9136TIP3    H251604   2.656   5.851   8.331  0.7728  1.4256 -0.6564
 9137TIP3   OH251605   0.935   4.571   6.660  0.3515 -0.2910  0.4280
 9137TIP3    H151606   0.889   4.588   6.578  0.7082 -2.0811 -0.1863
 9137TIP3    H251607   1.028   4.577   6.637  0.5060 -2.6309  0.1997
 9138TIP3   OH251608   4.590   3.257   6.304  0.1509  0.6329 -0.0436
 9138TIP3    H151609   4.508   3.281   6.348  0.4484  2.6870 -0.5165
 9138TIP3    H251610   4.659   3.292   6.360  0.6450  0.4255 -0.5105
 9139TIP3   OH251611   5.925   5.206   7.568 -0.3054 -1.0673 -0.1414
 9139TIP3    H151612   5.956   5.127   7.524  3.2703 -0.7846  1.5371
 9139TIP3    H251613   5.916   5.180   7.660 -1.8034 -0.1678  0.0000
 9140TIP3   OH251614   0.983   4.335   5.519 -0.1777 -0.2211 -0.0524
 9140TIP3    H151615   0.954   4.419   5.483 -2.1048 -1.3429 -1.3534
 9140TIP3    H251616   1.078   4.337   5.512 -0.1697  1.8697  0.0388
 9141TIP3   OH251617   0.415   5.206   5.404 -0.1063  1.6698 -0.3072
 9141TIP3    H151618   0.496   5.217   5.454  1.1634  0.8193 -2.0520
 9141TIP3    H251619   0.427   5.261   5.326 -0.5914  0.4949 -1.2494
 9142TIP3   OH251620   0.829   0.935   7.798  0.0796  0.0130 -0.0072
 9142TIP3    H151621   0.893   0.887   7.850  0.4473  0.8470  0.3285
 9142TIP3    H251622   0.753   0.877   7.795  0.7658 -0.9020 -0.2422
 9143TIP3   OH251623   2.856   1.209   6.055  0.2355  0.1401  0.0729
 9143TIP3    H151624   2.788   1.188   5.991  0.4014 -0.1035 -0.0246
 9143TIP3    H251625   2.852   1.304   6.063 -1.0991  0.0320  1.1575
 9144TIP3   OH251626   2.417   1.952   6.583 -0.4528  0.0810 -0.0195
 9144TIP3    H151627   2.334   1.941   6.629 -0.7918 -0.8819 -0.8473
 9144TIP3    H251628   2.431   2.047   6.581 -1.2052  0.2119  0.6858
 9145TIP3   OH251629   2.688   4.316   6.408  0.4116  0.1379  0.5770
 9145TIP3    H151630   2.661   4.348   6.495  1.1441 -0.0344  0.8802
 9145TIP3    H251631   2.685   4.394   6.352 -2.1047 -0.1457  0.2234
 9146TIP3   OH251632   1.054   6.545   7.068  0.8641 -0.1446 -0.4945
 9146TIP3    H151633   1.079   6.486   7.139  0.8432 -1.6104 -1.6504
 9146TIP3    H251634   0.986   6.601   7.105  0.7606 -0.9640  0.5873
 9147TIP3   OH251635   2.285   2.548   7.112  0.0998 -0.0775 -0.1735
 9147TIP3    H151636   2.378   2.551   7.133  0.5906  2.2208 -2.2651
 9147TIP3    H251637   2.274   2.465   7.065  1.0048 -0.4591  0.2531
 9148TIP3   OH251638   1.438   0.406   8.750  1.2830  0.2956 -0.2771
 9148TIP3    H151639   1.360   0.448   8.785  1.6964  1.2686 -0.5038
 9148TIP3    H251640   1.509   0.467   8.768  1.8452 -0.1543 -0.9000
 9149TIP3   OH251641   4.209   4.312   5.701  0.0790 -0.7393 -0.2381
 9149TIP3    H151642   4.142   4.305   5.632  0.2706  0.8558 -0.6290
 9149TIP3    H251643   4.165   4.281   5.780 -1.4371  0.9815 -0.3314
 9150TIP3   OH251644   3.737   3.586   5.548  0.2904 -0.2883 -0.8177
 9150TIP3    H151645   3.742   3.498   5.584 -0.1636  0.2063  0.5497
 9150TIP3    H251646   3.645   3.599   5.528  0.4749 -0.3982 -1.7855
 9151TIP3   OH251647   2.634   3.626   6.774 -0.0453  0.6163  0.2698
 9151TIP3    H151648   2.692   3.650   6.846 -1.7226  0.9915  1.5521
 9151TIP3    H251649   2.581   3.554   6.808  0.2696 -0.3391 -1.1892
 9152TIP3   OH251650   0.899   2.665   8.794 -0.0639  0.3344  0.0737
 9152TIP3    H151651   0.906   2.573   8.819  2.4563  0.3554 -0.2325
 9152TIP3    H251652   0.847   2.664   8.714 -0.4298 -0.7716  0.3048
 9153TIP3   OH251653   4.568   3.667   8.072 -0.6456  0.1914  0.1843
 9153TIP3    H151654   4.544   3.658   8.164 -1.3182  0.3314  0.0348
 9153TIP3    H251655   4.596   3.758   8.063 -1.5552  0.4722  0.0517
 9154TIP3   OH251656   5.336   5.872   6.050  0.0783 -0.5869 -0.3782
 9154TIP3    H151657   5.398   5.941   6.024  1.9724 -1.7661  0.7991
 9154TIP3    H251658   5.359   5.851   6.140 -0.6837 -2.5181 -0.5811
 9155TIP3   OH251659   0.397   0.208   8.395  0.0468  0.4658 -0.0109
 9155TIP3    H151660   0.474   0.260   8.375  1.0404 -0.2168  1.8180
 9155TIP3    H251661   0.410   0.126   8.348  1.1264 -0.1568  1.3039
 9156TIP3   OH251662   5.300   2.253   7.386 -0.2837 -0.6844  0.5156
 9156TIP3    H151663   5.257   2.273   7.469  0.6698 -0.0526  0.8668
 9156TIP3    H251664   5.239   2.285   7.319  0.5267  2.1718  1.0144
 9157TIP3   OH251665   2.282   3.152   6.486 -0.2629  0.3191 -0.2377
 9157TIP3    H151666   2.288   3.224   6.423 -1.0827  2.3524  1.8849
 9157TIP3    H251667   2.374   3.131   6.507 -0.0142  0.4189 -1.1724
 9158TIP3   OH251668   2.905   2.324   5.419 -0.0564  0.8962 -0.2254
 9158TIP3    H151669   2.921   2.393   5.483  1.3927  0.7043 -0.3363
 9158TIP3    H251670   2.985   2.323   5.365  0.1295 -1.1073  0.0159
 9159TIP3   OH251671   3.848   6.683   6.647  0.1931 -0.0020  0.1274
 9159TIP3    H151672   3.840   6.768   6.604 -0.8720 -0.0336  0.2256
 9159TIP3    H251673   3.783   6.685   6.718 -0.2172 -1.0773 -0.1909
 9160TIP3   OH251674   1.981   1.065   7.308 -0.1061 -0.4533 -0.1650
 9160TIP3    H151675   2.063   1.034   7.347 -0.2584 -0.4744  0.1437
 9160TIP3    H251676   1.916   1.055   7.378 -0.2134  0.3147 -0.1507
 9161TIP3   OH251677   4.851   1.480   5.869  0.2195 -0.3965 -0.0462
 9161TIP3    H151678   4.863   1.514   5.957 -0.1333 -2.4431  0.8532
 9161TIP3    H251679   4.805   1.397   5.881  2.3267 -1.9844 -1.9228
 9162TIP3   OH251680   0.403   5.070   8.191  0.8339 -0.2413 -0.3009
 9162TIP3    H151681   0.333   5.093   8.129  0.5146 -0.1238  0.1047
 9162TIP3    H251682   0.371   5.100   8.276  0.3396 -2.2747  0.2835
 9163TIP3   OH251683   4.323   0.566   5.883  0.4956  0.4702  0.1268
 9163TIP3    H151684   4.325   0.473   5.861  0.5075  0.7181 -1.0020
 9163TIP3    H251685   4.415   0.593   5.883  0.4562  0.6135 -0.1934
 9164TIP3   OH251686   0.406   2.423   7.399 -0.6402 -0.1736  0.5074
 9164TIP3    H151687   0.371   2.512   7.405 -2.7959 -0.9903  0.9394
 9164TIP3    H251688   0.346   2.378   7.339  0.1930 -1.4558  0.5986
 9165TIP3   OH251689   2.554   1.893   8.269 -0.0460  0.0884 -0.5633
 9165TIP3    H151690   2.511   1.811   8.290  1.6626 -0.0599  3.0114
 9165TIP3    H251691   2.647   1.872   8.267  0.3606  1.7229 -0.7828
 9166TIP3   OH251692   6.131   3.120   6.830  0.7604  1.0183 -0.0764
 9166TIP3    H151693   6.205   3.070   6.796 -1.3490 -1.8148 -0.8724
 9166TIP3    H251694   6.141   3.116   6.925  1.6439  0.7245 -0.1737
 9167TIP3   OH251695   6.644   5.428   6.686  0.3566  0.2288  0.0103
 9167TIP3    H151696   6.713   5.494   6.691  0.8989 -0.2892 -0.6459
 9167TIP3    H251697   6.683   5.355   6.639 -1.0097  0.3999 -1.4502
 9168TIP3   OH251698   0.359   2.730   8.006  0.0682 -0.4157  0.3668
 9168TIP3    H151699   0.297   2.658   7.992 -0.7905  0.2653  0.6073
 9168TIP3    H251700   0.362   2.741   8.101 -1.5084  1.2970  0.2693
 9169TIP3   OH251701   0.215   2.309   7.234  0.4758  0.0171  0.1602
 9169TIP3    H151702   0.216   2.352   7.148 -0.3504 -1.4750 -0.6363
 9169TIP3    H251703   0.283   2.242   7.227  0.8482  0.3088  0.9143
 9170TIP3   OH251704   1.559   5.952   8.599  0.4454 -0.3070 -0.0590
 9170TIP3    H151705   1.646   5.991   8.605  0.3704 -0.3092  1.4472
 9170TIP3    H251706   1.534   5.964   8.508  0.7549  2.4885  0.1343
 9171TIP3   OH251707   0.167   5.909   5.413 -0.6275 -0.3213  0.3481
 9171TIP3    H151708   0.077   5.903   5.382 -0.9802 -0.3410  1.3595
 9171TIP3    H251709   0.168   5.987   5.469 -0.1943 -0.7263  0.9095
 9172TIP3   OH251710   4.972   6.591   6.456  0.7125  0.3189 -0.1324
 9172TIP3    H151711   4.879   6.566   6.463  0.6171  1.1193  2.6682
 9172TIP3    H251712   5.019   6.509   6.464  0.2393  0.1349  1.1344
 9173TIP3   OH251713   5.159   6.394   6.755  0.0641 -0.5945 -0.3158
 9173TIP3    H151714   5.198   6.464   6.808 -1.0017  0.0838 -0.3966
 9173TIP3    H251715   5.205   6.315   6.782  0.6865 -0.0013  0.4135
 9174TIP3   OH251716   6.551   3.637   6.207  0.1785 -0.2017  0.2057
 9174TIP3    H151717   6.633   3.679   6.177  0.9641 -0.7308  1.5338
 9174TIP3    H251718   6.566   3.620   6.300 -1.7118  0.2585  0.6225
 9175TIP3   OH251719   2.763   6.658   5.495 -0.7184  0.2763 -0.7595
 9175TIP3    H151720   2.678   6.649   5.538 -1.3162  2.3972 -1.3854
 9175TIP3    H251721   2.805   6.732   5.540  0.2456  0.0973 -1.3300
 9176TIP3   OH251722   2.399   0.748   5.747  0.0786  0.2641  0.0735
 9176TIP3    H151723   2.430   0.836   5.727  0.0019  0.1188 -0.6992
 9176TIP3    H251724   2.446   0.724   5.827  0.8090  0.6392 -0.2349
 9177TIP3   OH251725   2.083   3.561   8.208 -0.3613  0.0089  0.3004
 9177TIP3    H151726   2.130   3.642   8.227 -0.0503 -0.6262  2.6063
 9177TIP3    H251727   2.153   3.495   8.199 -0.6763 -0.6726  2.3065
 9178TIP3   OH251728   0.858   0.751   8.581 -0.1597 -0.7303 -0.7328
 9178TIP3    H151729   0.869   0.663   8.617  1.7371  0.1809  1.1293
 9178TIP3    H251730   0.885   0.809   8.652 -2.2431  1.4213 -1.5972
 9179TIP3   OH251731   3.828   4.166   7.494  0.6967  0.8794  0.4314
 9179TIP3    H151732   3.890   4.207   7.554  2.6730 -0.5627 -0.5059
 9179TIP3    H251733   3.835   4.073   7.512  0.2440  0.5353 -1.0267
 9180TIP3   OH251734   0.122   3.659   6.111  0.2292  0.2703  0.5201
 9180TIP3    H151735   0.175   3.579   6.112 -1.9270 -1.2588  1.2681
 9180TIP3    H251736   0.184   3.729   6.092  2.2458 -1.5519 -0.0172
 9181TIP3   OH251737   1.806   4.600   5.925 -0.2291 -0.1164  0.1360
 9181TIP3    H151738   1.808   4.692   5.953  1.5635 -0.3400  0.8562
 9181TIP3    H251739   1.883   4.561   5.965 -2.8234 -2.8813  3.0497
 9182TIP3   OH251740   5.308   4.108   6.300  0.3484  0.4193  0.3058
 9182TIP3    H151741   5.335   4.027   6.343  0.8105  0.3057 -0.1810
 9182TIP3    H251742   5.380   4.168   6.314  0.5533  0.3479 -0.3780
 9183TIP3   OH251743   3.970   0.609   8.743 -0.4966  0.1880  0.3871
 9183TIP3    H151744   4.056   0.608   8.786 -0.3125  1.3253  0.0620
 9183TIP3    H251745   3.909   0.633   8.813 -0.2867  1.3300  0.1982
 9184TIP3   OH251746   0.246   4.626   9.026 -0.0162 -0.2070 -0.1363
 9184TIP3    H151747   0.257   4.657   9.116  0.7455  1.1462 -0.6601
 9184TIP3    H251748   0.277   4.535   9.028  0.2574 -0.1042  0.9041
 9185TIP3   OH251749   0.822   4.201   6.302 -0.2257 -0.2853  0.2675
 9185TIP3    H151750   0.811   4.208   6.397  0.5040 -0.7536  0.3980
 9185TIP3    H251751   0.848   4.289   6.275 -0.3140 -0.1781  0.5214
 9186TIP3   OH251752   0.180   1.492   8.153 -0.0196  0.0807  0.0052
 9186TIP3    H151753   0.237   1.467   8.225  0.3501 -0.3120 -0.4173
 9186TIP3    H251754   0.232   1.476   8.074 -0.3789  0.6009 -0.3491
 9187TIP3   OH251755   2.183   2.323   8.274  0.2411 -0.1754  0.1438
 9187TIP3    H151756   2.277   2.333   8.258  0.0765  0.0236 -0.7380
 9187TIP3    H251757   2.173   2.336   8.368  0.9882  0.6270  0.1197
 9188TIP3   OH251758   4.401   5.851   6.380  0.3336  0.5697  0.1853
 9188TIP3    H151759   4.310   5.838   6.352  0.7786 -0.4297 -0.8867
 9188TIP3    H251760   4.395   5.874   6.472 -1.0732  1.7238 -0.1625
 9189TIP3   OH251761   4.933   3.002   7.156  0.6712  0.2621  0.0229
 9189TIP3    H151762   5.009   2.991   7.213 -0.3949 -0.3608  1.3907
 9189TIP3    H251763   4.923   2.916   7.115  0.9518  0.4690 -0.4804
 9190TIP3   OH251764   4.721   0.775   5.726  0.1705 -0.5505 -0.3750
 9190TIP3    H151765   4.742   0.685   5.704  1.1992 -0.3483 -0.2672
 9190TIP3    H251766   4.806   0.820   5.729 -0.4408  1.0070 -2.9314
 9191TIP3   OH251767   1.086   3.390   9.681  0.7933 -0.3527 -0.3748
 9191TIP3    H151768   1.019   3.385   9.613  2.2358 -0.6029 -1.8464
 9191TIP3    H251769   1.135   3.470   9.660  0.5000  0.2592  1.1496
 9192TIP3   OH251770   5.134   0.699   6.462 -0.1886  0.4448 -0.4164
 9192TIP3    H151771   5.141   0.735   6.551  2.9346  1.6999 -1.0580
 9192TIP3    H251772   5.177   0.614   6.468  0.6768  0.8419 -0.8456
 9193TIP3   OH251773   5.737   0.712   6.960 -0.1205 -0.3217  0.1063
 9193TIP3    H151774   5.802   0.733   6.892  0.5073 -1.5293  0.3040
 9193TIP3    H251775   5.738   0.789   7.018 -0.7406  0.7687 -1.2736
 9194TIP3   OH251776   2.729   5.224   6.784 -0.2604 -0.4330  0.7587
 9194TIP3    H151777   2.779   5.220   6.866 -1.0920  0.4473  1.3268
 9194TIP3    H251778   2.638   5.215   6.811 -0.4847 -1.0999 -0.1796
 9195TIP3   OH251779   4.821   1.943   5.901 -0.7144  0.4554 -0.2618
 9195TIP3    H151780   4.822   1.853   5.869 -0.3282  0.2733  0.2443
 9195TIP3    H251781   4.884   1.943   5.973  1.3129  1.7215 -1.8937
 9196TIP3   OH251782   2.306   4.475   8.456 -0.3583  0.4095  0.0277
 9196TIP3    H151783   2.233   4.487   8.395 -0.4920  0.1496  0.1333
 9196TIP3    H251784   2.268   4.494   8.542 -0.8538 -1.7058  0.3264
 9197TIP3   OH251785   1.215   0.500   8.881 -0.1113  0.1181  0.5787
 9197TIP3    H151786   1.173   0.551   8.950  0.0576  0.6232  0.3055
 9197TIP3    H251787   1.162   0.420   8.875 -2.2103  1.5102 -1.0355
 9198TIP3   OH251788   0.565   0.753   7.091 -0.0471 -0.0427  0.0857
 9198TIP3    H151789   0.624   0.808   7.142 -0.2478 -0.2691  0.5729
 9198TIP3    H251790   0.548   0.803   7.012  1.5130 -0.3676 -0.4870
 9199TIP3   OH251791   0.395   2.690   7.498 -0.1046 -0.2357  0.2445
 9199TIP3    H151792   0.450   2.751   7.549 -1.3440  0.6127  0.6202
 9199TIP3    H251793   0.385   2.733   7.413  2.0472 -1.7000 -0.8406
 9200TIP3   OH251794   0.491   3.732   9.066  0.3138 -0.3533  0.0195
 9200TIP3    H151795   0.502   3.720   9.161  2.1896  0.6797 -0.0080
 9200TIP3    H251796   0.415   3.789   9.059  1.2500  1.1332  1.0857
 9201TIP3   OH251797   5.622   0.169   7.340 -0.0058  0.2417 -0.0962
 9201TIP3    H151798   5.626   0.259   7.306 -0.3161  0.5140  0.5741
 9201TIP3    H251799   5.546   0.130   7.296 -0.3945  0.5877  0.2557
 9202TIP3   OH251800   5.030   0.671   7.262  0.3371 -0.0492 -0.2427
 9202TIP3    H151801   5.069   0.585   7.248  1.5391  0.0351  2.0908
 9202TIP3    H251802   5.057   0.696   7.351 -1.9692  1.6855  0.0786
 9203TIP3   OH251803   0.199   3.665   7.442  0.5514  0.1258 -0.6825
 9203TIP3    H151804   0.175   3.743   7.391 -2.1475  0.7084  1.2318
 9203TIP3    H251805   0.260   3.697   7.508  1.5973  0.0157 -1.5789
 9204TIP3   OH251806   6.573   3.706   5.166 -0.8166  0.1369 -0.8000
 9204TIP3    H151807   6.512   3.638   5.194  0.5771 -1.3020 -1.1207
 9204TIP3    H251808   6.635   3.662   5.108  0.3686  1.5888 -0.7238
 9205TIP3   OH251809   4.495   2.634   6.675  0.3639  0.6155  0.3318
 9205TIP3    H151810   4.518   2.699   6.741  0.9512  0.1182  0.6322
 9205TIP3    H251811   4.496   2.682   6.592  0.8146  0.9832  0.5445
 9206TIP3   OH251812   2.641   1.369   8.055  0.2935 -0.0370 -0.5010
 9206TIP3    H151813   2.704   1.372   7.982  0.2049  0.6313 -0.5544
 9206TIP3    H251814   2.569   1.316   8.022  0.8545 -0.8660 -0.4185
 9207TIP3   OH251815   4.752   1.692   5.739 -0.1178  0.3419 -0.3783
 9207TIP3    H151816   4.766   1.604   5.775 -1.6793 -1.1369 -3.0726
 9207TIP3    H251817   4.828   1.707   5.683 -0.4471  0.1496 -0.8833
 9208TIP3   OH251818   1.858   6.459   5.683 -0.6870 -0.4783 -0.1468
 9208TIP3    H151819   1.875   6.552   5.693  0.5452 -0.6205 -0.7536
 9208TIP3    H251820   1.802   6.452   5.605  0.7192 -0.3680 -1.1861
 9209TIP3   OH251821   3.565   3.690   7.654  0.1678 -0.3467 -0.4897
 9209TIP3    H151822   3.523   3.610   7.624  1.4691 -1.7845  1.3436
 9209TIP3    H251823   3.647   3.662   7.695  0.8044  1.9382 -0.0066
 9210TIP3   OH251824   2.545   2.252   7.076 -0.4119  0.3191 -0.2971
 9210TIP3    H151825   2.560   2.178   7.134 -0.2424  0.7637  0.2452
 9210TIP3    H251826   2.525   2.214   6.991 -2.2136 -0.3915  0.3961
 9211TIP3   OH251827   1.763   2.416   6.935 -0.1534  0.1673 -0.1994
 9211TIP3    H151828   1.668   2.415   6.927 -0.0428  1.6160 -3.0581
 9211TIP3    H251829   1.789   2.503   6.904  2.1430 -0.3124  0.1624
 9212TIP3   OH251830   5.217   2.598   7.255 -0.1841 -0.0272 -0.2069
 9212TIP3    H151831   5.162   2.523   7.235 -0.9118  0.5134 -0.2789
 9212TIP3    H251832   5.307   2.568   7.237 -0.4381 -0.9577  0.0485
 9213TIP3   OH251833   4.617   2.145   6.172  0.3375 -0.0551  0.0799
 9213TIP3    H151834   4.604   2.183   6.259  0.0016 -0.0977  0.0482
 9213TIP3    H251835   4.706   2.170   6.148  0.1925  0.5379  0.1505
 9214TIP3   OH251836   2.423   1.473   6.714 -0.4091 -1.1321 -0.2475
 9214TIP3    H151837   2.416   1.429   6.630 -3.5292  0.2685 -0.8914
 9214TIP3    H251838   2.351   1.536   6.714  2.4642  2.5435  1.4386
 9215TIP3   OH251839   2.576   1.961   7.044 -0.3542 -0.5135  0.3926
 9215TIP3    H151840   2.591   1.941   6.952  1.9202  0.0446  0.5792
 9215TIP3    H251841   2.569   1.875   7.086 -1.9545 -0.7718 -0.3335
 9216TIP3   OH251842   3.245   2.601   7.542 -0.3362  0.0347  0.0975
 9216TIP3    H151843   3.307   2.613   7.470  1.1739  0.8941  1.4730
 9216TIP3    H251844   3.200   2.685   7.550 -1.5243 -0.4981 -0.7129
 9217TIP3   OH251845   2.091   4.322   7.569 -0.0504 -0.3069  0.2109
 9217TIP3    H151846   2.075   4.233   7.599  0.4856 -0.5454 -0.1992
 9217TIP3    H251847   2.149   4.360   7.635  0.2141 -0.4584  0.0627
 9218TIP3   OH251848   5.852   6.514   5.675 -0.4852 -0.0603  0.4331
 9218TIP3    H151849   5.874   6.459   5.600  0.5836 -0.3964  0.9676
 9218TIP3    H251850   5.783   6.572   5.643  1.5917  1.4823 -1.5714
 9219TIP3   OH251851   4.818   4.026   5.944 -0.3525  0.1967 -0.0618
 9219TIP3    H151852   4.815   4.108   5.894  1.8357  0.0808 -0.5082
 9219TIP3    H251853   4.765   3.965   5.893 -0.9754  0.9987 -0.4031
 9220TIP3   OH251854   4.288   5.627   7.516  0.5830  0.0618  0.1229
 9220TIP3    H151855   4.257   5.550   7.564  0.6429 -0.7976 -1.1499
 9220TIP3    H251856   4.364   5.595   7.467  1.2346  1.2069  0.3595
 9221TIP3   OH251857   3.041   1.089   7.220 -0.0649 -0.0533  0.1011
 9221TIP3    H151858   3.079   1.131   7.298  1.9733 -0.2600 -0.7107
 9221TIP3    H251859   3.062   0.996   7.230 -1.6926 -0.4151  0.3156
 9222TIP3   OH251860   0.281   0.883   7.821  1.4370 -0.1136 -0.0147
 9222TIP3    H151861   0.256   0.892   7.913 -0.0567  1.1937 -0.5007
 9222TIP3    H251862   0.240   0.802   7.792 -2.2041  1.7447 -0.6736
 9223TIP3   OH251863   4.788   6.236   6.383 -0.3585  0.3641  0.2153
 9223TIP3    H151864   4.839   6.239   6.303  0.8901  0.5022  0.9897
 9223TIP3    H251865   4.698   6.223   6.354 -0.0062  0.9610 -1.2229
 9224TIP3   OH251866   2.676   0.792   9.150  0.0962  0.4864  0.1883
 9224TIP3    H151867   2.661   0.800   9.244 -1.6379  0.2681 -0.0469
 9224TIP3    H251868   2.599   0.832   9.110 -0.1195 -1.1478 -1.1233
 9225TIP3   OH251869   5.037   2.100   9.221 -0.3459 -0.2179 -0.0028
 9225TIP3    H151870   5.030   2.045   9.143 -0.1310 -0.6539  0.2844
 9225TIP3    H251871   5.115   2.067   9.267  0.4464  1.0288 -0.3927
 9226TIP3   OH251872   5.878   2.661   7.002 -0.0060 -0.7468 -0.2604
 9226TIP3    H151873   5.839   2.746   6.981  0.2835 -0.7453 -0.8174
 9226TIP3    H251874   5.829   2.629   7.078  0.3084  0.2086  0.3574
 9227TIP3   OH251875   2.884   5.622   5.955 -0.2785  0.4922  0.6361
 9227TIP3    H151876   2.899   5.668   5.872 -0.6054  0.4031  0.5285
 9227TIP3    H251877   2.970   5.622   5.997  0.1325 -0.3608 -0.1607
 9228TIP3   OH251878   3.293   3.967   6.725  0.0610 -0.0839 -0.1705
 9228TIP3    H151879   3.202   3.999   6.728  0.0409 -0.1649  0.2033
 9228TIP3    H251880   3.285   3.872   6.725  0.1542 -0.2161  2.9199
 9229TIP3   OH251881   3.495   6.343   5.607  0.1661 -0.5551  0.0641
 9229TIP3    H151882   3.485   6.438   5.609 -0.1788 -0.6063  1.8488
 9229TIP3    H251883   3.552   6.327   5.531 -2.5029  0.7674 -2.4208
 9230TIP3   OH251884   4.178   4.150   7.551  0.0436  0.4335  0.9756
 9230TIP3    H151885   4.261   4.196   7.545  0.6482 -0.7087 -0.1662
 9230TIP3    H251886   4.186   4.080   7.486 -1.6939  0.1173  1.0637
 9231TIP3   OH251887   0.828   2.668   8.530 -0.0725  0.1486 -0.3466
 9231TIP3    H151888   0.836   2.573   8.522  0.9306  0.1866  0.0116
 9231TIP3    H251889   0.734   2.684   8.534 -0.2442 -0.9079  0.4405
 9232TIP3   OH251890   2.253   5.444   6.486  0.3371 -0.0930 -0.0486
 9232TIP3    H151891   2.203   5.490   6.418  0.5714  0.8424  0.3986
 9232TIP3    H251892   2.310   5.384   6.437  0.1642  0.2339 -0.6568
 9233TIP3   OH251893   2.599   1.699   7.155 -0.6714  0.3321  0.3263
 9233TIP3    H151894   2.544   1.641   7.102 -0.0964 -1.4048  1.4968
 9233TIP3    H251895   2.557   1.698   7.242 -0.5640  1.5935  0.4066
 9234TIP3   OH251896   5.513   0.052   6.686  0.3773  0.6046  0.5476
 9234TIP3    H151897   5.463  -0.019   6.645 -1.7252  1.7743  0.8984
 9234TIP3    H251898   5.581   0.008   6.737  0.2183 -1.0533 -0.5896
 9235TIP3   OH251899   0.301   4.385   6.176  0.0127 -0.2937 -0.4667
 9235TIP3    H151900   0.358   4.400   6.252  0.7628  0.4696 -1.1657
 9235TIP3    H251901   0.307   4.291   6.160 -0.5073 -0.5406  0.6882
 9236TIP3   OH251902   0.631   2.380   6.518  0.0349 -0.5684 -0.4840
 9236TIP3    H151903   0.564   2.438   6.554 -1.1699 -1.0182 -1.9261
 9236TIP3    H251904   0.698   2.377   6.587 -0.7128  1.0492  0.3882
 9237TIP3   OH251905   1.138   1.262   5.733 -0.1030  0.5728 -0.3106
 9237TIP3    H151906   1.074   1.194   5.717  0.2154  0.2188 -0.0932
 9237TIP3    H251907   1.174   1.241   5.819  0.8110  0.3604 -0.7389
 9238TIP3   OH251908   1.483   3.949   8.650  0.3112  0.0700  0.1999
 9238TIP3    H151909   1.493   4.034   8.694  0.5094  0.2834 -0.2394
 9238TIP3    H251910   1.566   3.938   8.602  0.1098 -0.1634 -0.0961
 9239TIP3   OH251911   4.648   3.074   8.180  0.5751 -0.2911  0.4606
 9239TIP3    H151912   4.678   3.134   8.112 -0.0284  2.1583  2.2389
 9239TIP3    H251913   4.683   3.109   8.261 -1.8411 -0.8868  1.8717
 9240TIP3   OH251914   4.875   5.000   6.651  0.2773  0.4376  0.2782
 9240TIP3    H151915   4.842   4.922   6.694 -3.4510  1.7800  0.2438
 9240TIP3    H251916   4.886   5.064   6.722 -1.4747  1.2962 -0.1900
 9241TIP3   OH251917   5.876   4.712   7.480  0.5146 -0.0576 -0.4424
 9241TIP3    H151918   5.966   4.719   7.511  0.6913 -0.6744 -0.7912
 9241TIP3    H251919   5.822   4.716   7.560  0.8588  0.1547 -0.2209
 9242TIP3   OH251920   4.671   4.268   7.090 -0.4481  0.3563 -0.1850
 9242TIP3    H151921   4.622   4.228   7.018 -0.1245 -3.4610  1.4956
 9242TIP3    H251922   4.611   4.333   7.127 -2.3721 -0.7748 -1.1673
 9243TIP3   OH251923   3.005   3.466   7.371 -0.3996 -0.2583  0.0515
 9243TIP3    H151924   3.044   3.549   7.401  1.0347 -0.5481 -0.8851
 9243TIP3    H251925   3.024   3.404   7.441 -1.0604  0.0814  0.5434
 9244TIP3   OH251926   6.411   2.796   9.092  0.2052 -0.1086 -0.8161
 9244TIP3    H151927   6.472   2.821   9.161  0.9908  2.1856 -2.2173
 9244TIP3    H251928   6.386   2.706   9.113  0.1348  0.5736  2.6088
 9245TIP3   OH251929   4.713   2.057   7.434 -0.5030  0.3758 -0.3175
 9245TIP3    H151930   4.651   2.128   7.419 -0.3417  0.4500 -0.6320
 9245TIP3    H251931   4.679   1.984   7.382 -1.5427 -0.3034  1.1987
 9246TIP3   OH251932   3.587   1.881   7.540  0.3612  0.1796  0.0306
 9246TIP3    H151933   3.626   1.870   7.626  0.2358  0.9839  0.1936
 9246TIP3    H251934   3.616   1.967   7.511  0.5443 -0.1508 -0.8083
 9247TIP3   OH251935   5.141   4.942   5.576 -0.6302  0.1541 -0.0656
 9247TIP3    H151936   5.049   4.925   5.598 -0.5609  0.0340  0.1316
 9247TIP3    H251937   5.191   4.901   5.647 -0.4460  0.8022  0.1837
 9248TIP3   OH251938   2.158   2.281   8.563  0.6521  0.3566  0.1796
 9248TIP3    H151939   2.200   2.197   8.545  0.2407  0.5478 -1.9760
 9248TIP3    H251940   2.223   2.331   8.612  0.7338 -1.3300  1.8913
 9249TIP3   OH251941   1.414   4.786   8.477  0.3297 -0.7918  0.4400
 9249TIP3    H151942   1.473   4.741   8.417  0.0276 -1.5814  0.7334
 9249TIP3    H251943   1.335   4.804   8.425  0.3759 -0.7662  0.3782
 9250TIP3   OH251944   3.483   6.370   7.889 -0.3627 -0.8134  0.1141
 9250TIP3    H151945   3.531   6.407   7.964 -0.4709  0.7097 -0.5284
 9250TIP3    H251946   3.551   6.334   7.833  0.1766  1.7673 -1.0253
 9251TIP3   OH251947   0.544   3.500   6.186 -0.0574 -0.8139  0.1525
 9251TIP3    H151948   0.512   3.418   6.149 -2.2800 -0.4735  1.1638
 9251TIP3    H251949   0.511   3.568   6.126  2.1239 -0.6096 -0.9193
 9252TIP3   OH251950   6.271   3.686   6.770  0.2000 -0.1944  0.0270
 9252TIP3    H151951   6.229   3.759   6.816  0.6328 -0.0311  0.1642
 9252TIP3    H251952   6.210   3.613   6.781  0.8022 -0.4753  1.8405
 9253TIP3   OH251953   5.407   5.906   8.087  0.5041  0.1158 -0.1850
 9253TIP3    H151954   5.340   5.876   8.026 -0.7882 -2.0031  2.1045
 9253TIP3    H251955   5.375   5.991   8.118 -0.8164 -0.5747  0.4022
 9254TIP3   OH251956   3.531   1.215   7.636  0.3358  0.0440  0.1208
 9254TIP3    H151957   3.549   1.162   7.714 -0.1416 -0.5867 -0.1837
 9254TIP3    H251958   3.517   1.150   7.566 -2.3902  0.4369  0.1827
 9255TIP3   OH251959   4.112   4.904   6.601  0.3531 -0.0146  0.0978
 9255TIP3    H151960   4.103   4.841   6.529  2.3460 -0.9330  0.5768
 9255TIP3    H251961   4.112   4.850   6.680  0.1896  0.7771  0.6492
 9256TIP3   OH251962   4.916   6.324   7.296 -0.0137 -0.2671 -0.0887
 9256TIP3    H151963   4.858   6.384   7.249 -0.0853 -0.0523  0.2743
 9256TIP3    H251964   4.970   6.284   7.227  1.3380  1.5730 -0.1895
 9257TIP3   OH251965   1.936   5.180   7.171 -0.3017 -1.1197 -0.1342
 9257TIP3    H151966   1.935   5.173   7.076  2.7167  2.3167 -0.6471
 9257TIP3    H251967   2.026   5.157   7.196 -0.2240  0.6852  1.5084
 9258TIP3   OH251968   2.626   2.103   8.614 -0.3406  0.0421  0.2580
 9258TIP3    H151969   2.547   2.056   8.640  0.2125 -0.6534  0.7334
 9258TIP3    H251970   2.689   2.083   8.684  0.9640 -1.2969 -1.2276
 9259TIP3   OH251971   2.432   1.557   7.006  1.0399 -0.6563 -0.4966
 9259TIP3    H151972   2.424   1.467   7.037  0.1858 -0.3152  0.3334
 9259TIP3    H251973   2.490   1.552   6.930  0.0416 -2.0780 -1.2113
 9260TIP3   OH251974   5.719   5.863   5.316 -0.3470  0.1720  0.0079
 9260TIP3    H151975   5.631   5.843   5.347 -0.4330 -0.1386 -0.4295
 9260TIP3    H251976   5.774   5.860   5.395 -0.8980  1.4501  0.4608
 9261TIP3   OH251977   5.996   1.137   6.903  0.7776  0.2505  0.2190
 9261TIP3    H151978   5.934   1.064   6.900 -0.6993  1.3500  2.1436
 9261TIP3    H251979   5.957   1.205   6.848  0.7626  0.6056  0.6696
 9262TIP3   OH251980   1.845   1.833   7.124  0.0819  0.4380 -0.0501
 9262TIP3    H151981   1.873   1.795   7.207  1.4834  1.8459  0.1617
 9262TIP3    H251982   1.861   1.764   7.059  0.7370 -0.0142  0.5800
 9263TIP3   OH251983   6.149   0.991   7.724 -0.1020 -0.3676 -0.1943
 9263TIP3    H151984   6.141   1.019   7.632 -0.3402  0.7121  0.1380
 9263TIP3    H251985   6.193   0.906   7.719  0.9755  0.2077 -1.2590
 9264TIP3   OH251986   3.100   2.396   8.445 -0.5474  0.5892 -0.4317
 9264TIP3    H151987   3.138   2.366   8.363  0.0550  1.4849 -0.4872
 9264TIP3    H251988   3.170   2.385   8.510 -1.8101 -2.6670  0.5877
 9265TIP3   OH251989   4.578   6.009   5.529 -0.1769 -0.1918 -0.0661
 9265TIP3    H151990   4.667   5.993   5.500 -0.4041  2.0340 -2.3738
 9265TIP3    H251991   4.529   5.933   5.497  0.4703 -0.1702 -1.1694
 9266TIP3   OH251992   6.572   2.126   7.182 -0.1715 -0.4162 -0.8009
 9266TIP3    H151993   6.478   2.116   7.167 -0.4186  1.3924 -0.5803
 9266TIP3    H251994   6.604   2.173   7.105  0.3003  0.2379 -0.2123
 9267TIP3   OH251995   5.588   1.756   8.320 -0.6841 -0.2236  0.0539
 9267TIP3    H151996   5.499   1.748   8.355 -0.7879 -0.9880 -0.3661
 9267TIP3    H251997   5.632   1.676   8.347 -1.1393 -1.4653 -2.5258
 9268TIP3   OH251998   2.926   2.905   6.852 -0.8551  0.6918  0.1722
 9268TIP3    H151999   2.943   2.863   6.768  0.4511  0.1525  0.6865
 9268TIP3    H252000   2.906   2.996   6.829 -3.4889 -0.0609 -0.9280
 9269TIP3   OH252001   3.946   1.902   8.193  0.2316  0.3186  0.5710
 9269TIP3    H152002   3.946   1.981   8.246 -1.1009  1.5463 -1.1729
 9269TIP3    H252003   3.861   1.862   8.209 -0.1139  0.6125 -0.4793
 9270TIP3   OH252004   1.786   6.425   7.545 -0.4985 -0.2509  0.1041
 9270TIP3    H152005   1.876   6.392   7.542 -0.3129  0.3403 -1.0083
 9270TIP3    H252006   1.757   6.426   7.454 -1.6519 -0.4601  0.4493
 9271TIP3   OH252007   1.325   6.594   6.638  0.4220  0.0668 -0.1793
 9271TIP3    H152008   1.385   6.658   6.678 -0.3410  1.1956 -0.7875
 9271TIP3    H252009   1.244   6.604   6.687  0.5670 -1.1137  0.3203
 9272TIP3   OH252010   4.362   5.158   5.458  0.0849  0.3029 -0.2693
 9272TIP3    H152011   4.442   5.120   5.420  0.5600 -0.3724  1.3049
 9272TIP3    H252012   4.395   5.219   5.524 -0.7063  0.6410 -0.1880
 9273TIP3   OH252013   3.836   4.156   7.065 -0.0003 -0.3735  0.3607
 9273TIP3    H152014   3.884   4.192   7.139 -0.5274  0.7290  0.1835
 9273TIP3    H252015   3.885   4.184   6.988 -0.8670  0.7062  0.1806
 9274TIP3   OH252016   4.779   3.871   6.420  0.2659  0.3262 -0.1909
 9274TIP3    H152017   4.728   3.922   6.356 -0.1658  0.8555  0.5663
 9274TIP3    H252018   4.787   3.785   6.379 -1.3040  0.1977 -0.3198
 9275TIP3   OH252019   4.302   3.922   6.306 -0.1759  0.4976 -0.1519
 9275TIP3    H152020   4.211   3.945   6.288 -0.7268 -1.3005  0.1147
 9275TIP3    H252021   4.317   3.952   6.396 -1.2251 -1.0990  0.6021
 9276TIP3   OH252022   5.203   2.162   5.866 -0.5630  0.3191  0.4709
 9276TIP3    H152023   5.142   2.203   5.805 -0.3770 -0.1401 -0.0298
 9276TIP3    H252024   5.154   2.089   5.903  0.0797 -0.8854 -0.9297
 9277TIP3   OH252025   5.200   1.797   5.997 -0.6110  0.0023  0.1694
 9277TIP3    H152026   5.253   1.728   6.035 -0.0067 -0.5008 -1.5239
 9277TIP3    H252027   5.263   1.861   5.964 -1.1492  1.7274  2.2223
 9278TIP3   OH252028   5.373   6.456   6.346  0.3915  0.1235 -0.2605
 9278TIP3    H152029   5.370   6.387   6.279 -1.1170 -0.9272  0.8386
 9278TIP3    H252030   5.443   6.428   6.405  1.7245  1.0503 -1.3186
 9279TIP3   OH252031   0.937   3.412   8.683  0.7568  0.0609 -0.2168
 9279TIP3    H152032   0.993   3.485   8.712  0.4203  0.3725 -0.3403
 9279TIP3    H252033   0.856   3.423   8.732 -0.6737  1.8787 -2.7437
 9280TIP3   OH252034   3.839   0.329   7.804  0.6748  0.6335 -0.5243
 9280TIP3    H152035   3.892   0.302   7.729  0.7773 -0.0737 -0.2129
 9280TIP3    H252036   3.903   0.350   7.872  0.6399 -2.4312  0.6259
 9281TIP3   OH252037   0.813   4.264   9.740  0.1040  0.1680 -0.0774
 9281TIP3    H152038   0.902   4.235   9.759  0.0750  0.5375  0.6791
 9281TIP3    H252039   0.771   4.189   9.699  0.5694 -0.2246  0.1556
 9282TIP3   OH252040   5.010   2.346   7.718 -0.5357 -0.2849  0.7497
 9282TIP3    H152041   4.973   2.312   7.637  0.0293  0.1261  0.3179
 9282TIP3    H252042   5.100   2.313   7.719 -0.0789  0.9200  0.4841
 9283TIP3   OH252043   3.920   3.626   6.203 -0.1657  0.4229 -0.8298
 9283TIP3    H152044   3.990   3.671   6.155  1.4653 -1.5900 -0.5378
 9283TIP3    H252045   3.908   3.677   6.283 -0.5082  1.9314 -1.8201
 9284TIP3   OH252046   0.808   2.119   6.698 -0.3977 -0.1314 -0.0512
 9284TIP3    H152047   0.841   2.079   6.617 -0.0922  0.1130 -0.0451
 9284TIP3    H252048   0.835   2.210   6.693 -0.6142 -0.0517  0.2027
 9285TIP3   OH252049   0.679   4.989   8.808  0.0212 -0.1164  0.3198
 9285TIP3    H152050   0.627   5.029   8.878  0.0784 -1.4110  1.1522
 9285TIP3    H252051   0.699   4.901   8.841 -0.2142 -0.8845 -1.4723
 9286TIP3   OH252052   6.679   4.343   7.256 -0.1516  0.6543  0.3063
 9286TIP3    H152053   6.746   4.276   7.252 -0.0284  0.8088 -0.3446
 9286TIP3    H252054   6.727   4.426   7.261 -0.2989  0.7422  0.2979
 9287TIP3   OH252055   0.122   5.859   8.245 -0.2888  0.1221 -0.4167
 9287TIP3    H152056   0.166   5.878   8.162  0.0819  0.8489 -0.0676
 9287TIP3    H252057   0.146   5.933   8.301 -0.9040 -0.1364  0.1913
 9288TIP3   OH252058   2.627   4.948   7.571 -0.2264 -0.1243 -0.2732
 9288TIP3    H152059   2.680   4.879   7.532 -3.9316 -2.3197 -1.9494
 9288TIP3    H252060   2.598   5.001   7.497 -0.4214  1.0122  0.5817
 9289TIP3   OH252061   0.532   1.261   5.336 -0.2976  0.6665 -0.1215
 9289TIP3    H152062   0.484   1.189   5.377 -1.0216  0.8655 -0.5907
 9289TIP3    H252063   0.463   1.318   5.302  0.2492  1.8724  0.7296
 9290TIP3   OH252064   5.895   5.041   5.988  0.7721  0.2659 -0.1638
 9290TIP3    H152065   5.941   5.078   5.913 -1.7790  1.5405 -1.2046
 9290TIP3    H252066   5.810   5.085   5.988 -0.7287 -2.4145  1.2754
 9291TIP3   OH252067   6.157   5.351   7.856  0.2861  0.9437 -0.4472
 9291TIP3    H152068   6.250   5.341   7.833  0.2805 -1.6881  0.3498
 9291TIP3    H252069   6.156   5.353   7.951 -0.5758 -0.9097 -0.3905
 9292TIP3   OH252070   1.073   3.171   8.804  0.0265 -0.2122  0.3655
 9292TIP3    H152071   1.032   3.236   8.746  0.1468 -2.7131 -2.8094
 9292TIP3    H252072   1.081   3.216   8.888 -2.9915  2.6774 -0.6634
 9293TIP3   OH252073   3.563   3.483   7.094 -0.0608  0.3231  0.1926
 9293TIP3    H152074   3.546   3.389   7.101 -2.3898  0.6226 -0.7052
 9293TIP3    H252075   3.573   3.512   7.185 -0.9308 -0.5538  0.5850
 9294TIP3   OH252076   3.340   2.358   6.436 -0.5481  0.2220 -0.0469
 9294TIP3    H152077   3.261   2.331   6.391 -1.4875  1.0200  1.0532
 9294TIP3    H252078   3.367   2.439   6.392  0.2145 -0.5449 -1.0260
 9295TIP3   OH252079   6.348   0.176   6.356  0.4672 -0.2755 -0.0695
 9295TIP3    H152080   6.369   0.130   6.274 -0.7211 -1.2982  0.1693
 9295TIP3    H252081   6.427   0.167   6.409  0.6615 -1.0870 -0.4694
 9296TIP3   OH252082   6.098   3.708   8.115 -0.6053  0.0626 -0.3261
 9296TIP3    H152083   6.191   3.692   8.099  0.1620  2.0073  1.5683
 9296TIP3    H252084   6.097   3.788   8.169 -3.1178 -1.9737  3.0332
 9297TIP3   OH252085   1.998   4.627   6.943 -0.1282 -0.3076 -0.2281
 9297TIP3    H152086   2.056   4.552   6.955  0.7799  0.2318 -1.1111
 9297TIP3    H252087   1.988   4.635   6.849 -0.2422  0.6659 -0.1424
 9298TIP3   OH252088   1.010   5.741   5.647  0.1568  0.4956  0.4025
 9298TIP3    H152089   0.950   5.764   5.576 -0.0153 -2.1309 -0.4047
 9298TIP3    H252090   0.966   5.771   5.727 -0.0223  2.7587 -0.4966
 9299TIP3   OH252091   1.874   2.290   8.521  0.4806 -0.3679 -0.6150
 9299TIP3    H152092   1.962   2.307   8.556  0.4202 -1.0605 -0.1150
 9299TIP3    H252093   1.886   2.216   8.461 -0.3096 -2.9933  2.2141
 9300TIP3   OH252094   2.882   4.428   7.298 -0.2743  0.2081  0.5963
 9300TIP3    H152095   2.975   4.416   7.275 -0.1904  2.1616 -0.2569
 9300TIP3    H252096   2.861   4.351   7.351  1.5700 -0.7616  0.0211
 9301TIP3   OH252097   2.857   6.080   8.283 -0.0833 -0.1603  0.2057
 9301TIP3    H152098   2.766   6.074   8.253  0.7349 -0.0740 -2.5997
 9301TIP3    H252099   2.902   6.009   8.237  1.0592 -1.2109  2.7406
 9302TIP3   OH252100   4.735   0.689   7.306  0.2739 -0.3430  0.0557
 9302TIP3    H152101   4.825   0.655   7.304  0.8099  0.9193  0.8980
 9302TIP3    H252102   4.683   0.615   7.338  1.2294 -0.6979  0.8725
 9303TIP3   OH252103   6.307   3.560   6.104  0.4177 -0.2594  0.2032
 9303TIP3    H152104   6.372   3.583   6.170 -0.2030  0.7464  0.4747
 9303TIP3    H252105   6.347   3.586   6.021  0.6979 -0.4112  0.2875
 9304TIP3   OH252106   4.577   4.438   8.053  0.0516  0.0875 -0.1062
 9304TIP3    H152107   4.622   4.492   8.118 -0.6870  2.9685 -1.7857
 9304TIP3    H252108   4.639   4.432   7.980 -1.0723  1.5488 -1.2382
 9305TIP3   OH252109   6.398   5.918   5.907 -0.5639  0.1843 -0.4094
 9305TIP3    H152110   6.370   6.005   5.876 -1.2470  0.7807  1.7300
 9305TIP3    H252111   6.372   5.916   5.999  0.2759 -1.9619 -0.1739
 9306TIP3   OH252112   5.366   1.001   8.642  0.0676  0.2982  0.2893
 9306TIP3    H152113   5.357   1.046   8.726 -1.2696 -1.0197  0.8979
 9306TIP3    H252114   5.442   0.944   8.653  0.1608  0.4526  0.4457
 9307TIP3   OH252115   1.962   2.722   5.605  0.0381  0.2211 -0.3719
 9307TIP3    H152116   2.041   2.724   5.552 -0.0806 -1.9090 -0.7242
 9307TIP3    H252117   1.985   2.669   5.682 -0.3272  1.7271  0.8262
 9308TIP3   OH252118   6.213   3.266   7.299 -0.3222 -0.4164  0.3405
 9308TIP3    H152119   6.299   3.255   7.258 -0.7711 -0.4480 -0.6333
 9308TIP3    H252120   6.225   3.237   7.389  1.1086  1.1439  0.7114
 9309TIP3   OH252121   4.325   5.091   5.864 -0.2118  0.2486  0.3830
 9309TIP3    H152122   4.341   5.183   5.845  1.7239 -0.0142  0.5733
 9309TIP3    H252123   4.269   5.062   5.792 -0.8332  1.5512  0.3053
 9310TIP3   OH252124   1.482   1.805   8.926  0.4686 -0.1266 -0.2656
 9310TIP3    H152125   1.540   1.815   9.001 -1.1463  3.6051  0.7290
 9310TIP3    H252126   1.525   1.855   8.856  0.2372 -0.5135 -0.6850
 9311TIP3   OH252127   0.733   5.441   7.339  0.1188  0.3192 -0.6765
 9311TIP3    H152128   0.676   5.394   7.277  0.7979 -1.4620 -0.0155
 9311TIP3    H252129   0.803   5.476   7.284 -0.3345  0.4692 -1.1731
 9312TIP3   OH252130   1.181   6.019  10.120 -0.6119 -0.2227  0.2044
 9312TIP3    H152131   1.157   6.034  10.028 -0.6768  2.5740  0.5878
 9312TIP3    H252132   1.246   6.087  10.139 -0.3864 -0.9263  2.1459
 9313TIP3   OH252133   1.190   4.532   6.544  0.5563  0.4188  0.2890
 9313TIP3    H152134   1.161   4.446   6.513  0.4374  0.6190 -0.1693
 9313TIP3    H252135   1.223   4.516   6.632  1.8380 -0.3461 -0.3100
 9314TIP3   OH252136   4.039   2.418   5.915 -0.7902 -0.0371 -0.4785
 9314TIP3    H152137   4.132   2.422   5.940 -0.1178  1.2246 -2.8188
 9314TIP3    H252138   4.007   2.336   5.953  0.9244  0.0761  1.4231
 9315TIP3   OH252139   2.450   3.844   6.343 -0.3734 -0.2030  0.1558
 9315TIP3    H152140   2.474   3.780   6.411 -0.6092 -0.2218  0.2197
 9315TIP3    H252141   2.496   3.924   6.368  0.4761 -0.5298 -0.2892
 9316TIP3   OH252142   2.756   4.906   7.978  0.5746 -0.0690 -0.3122
 9316TIP3    H152143   2.734   4.815   7.998 -0.2759 -0.3509 -2.2733
 9316TIP3    H252144   2.678   4.956   8.000  0.6061  0.0032 -0.3620
 9317TIP3   OH252145   6.042   5.891   6.990 -0.2463  0.0352  0.1000
 9317TIP3    H152146   6.092   5.811   7.009 -1.1458 -1.0541 -1.8048
 9317TIP3    H252147   6.108   5.955   6.964  0.3153 -1.5451 -2.9489
 9318TIP3   OH252148   5.344   1.755   6.353  0.2666 -0.5480 -0.3060
 9318TIP3    H152149   5.297   1.816   6.296 -0.7019 -0.5580  0.4618
 9318TIP3    H252150   5.354   1.676   6.300  1.1392  0.0909 -1.1535
 9319TIP3   OH252151   0.719   3.242   6.646  0.2603 -0.1522  0.4595
 9319TIP3    H152152   0.704   3.309   6.579  0.1182  1.3050  1.8658
 9319TIP3    H252153   0.639   3.243   6.699  0.6119 -0.8114  1.0124
 9320TIP3   OH252154   5.956   1.282   8.488 -0.0712 -0.1681  0.3730
 9320TIP3    H152155   5.917   1.298   8.402  0.3702  1.1631  0.4008
 9320TIP3    H252156   5.907   1.338   8.547 -0.5803 -1.3154  1.0645
 9321TIP3   OH252157   5.934   5.031   5.108  0.4107 -0.3743 -0.8137
 9321TIP3    H152158   5.883   5.108   5.082 -0.7815 -0.1658  1.8254
 9321TIP3    H252159   5.874   4.981   5.164  2.7346 -0.6504  1.5917
 9322TIP3   OH252160   6.124   6.329   6.703  0.1135 -0.1396 -0.4640
 9322TIP3    H152161   6.046   6.301   6.751 -0.1123  1.4036  0.1303
 9322TIP3    H252162   6.194   6.272   6.734 -0.6518 -1.1895 -0.6082
 9323TIP3   OH252163   3.212   6.080   6.089 -0.3320  0.3792  0.0715
 9323TIP3    H152164   3.194   6.031   6.009 -1.1414  3.8905 -2.1153
 9323TIP3    H252165   3.300   6.053   6.114  0.4898  0.0656 -2.7815
 9324TIP3   OH252166   6.235   3.572   7.156 -0.1288 -0.6215  0.8165
 9324TIP3    H152167   6.219   3.666   7.146  3.3963  0.2088  1.6186
 9324TIP3    H252168   6.225   3.556   7.250 -1.3674 -1.2346  0.5955
 9325TIP3   OH252169   4.886   4.346   5.875 -0.4398  0.1800 -0.4671
 9325TIP3    H152170   4.795   4.342   5.904 -0.5062 -1.6570 -0.8244
 9325TIP3    H252171   4.919   4.429   5.910 -1.0915 -0.9188  3.1072
 9326TIP3   OH252172   3.830   2.321   6.523 -0.0282  0.4011 -0.2098
 9326TIP3    H152173   3.854   2.306   6.614 -1.1693  1.7304  0.3361
 9326TIP3    H252174   3.739   2.291   6.517  0.1715 -0.0792 -1.0409
 9327TIP3   OH252175   2.732   5.645   6.692  0.0572  0.5211  0.4666
 9327TIP3    H152176   2.741   5.550   6.678 -0.1601  0.5739 -0.0694
 9327TIP3    H252177   2.765   5.660   6.780  0.5406  0.0115  0.3720
 9328TIP3   OH252178   1.750   5.575   7.774  0.3289  0.4369 -0.4917
 9328TIP3    H152179   1.714   5.576   7.862  1.3909  1.5547 -0.0419
 9328TIP3    H252180   1.839   5.607   7.784  0.5306  0.4051 -1.9475
 9329TIP3   OH252181   4.257   6.368   6.253  0.6691 -0.0768 -1.0056
 9329TIP3    H152182   4.294   6.412   6.330 -1.9880  0.1107  0.3176
 9329TIP3    H252183   4.231   6.439   6.195  1.2168 -0.1430 -1.3299
 9330TIP3   OH252184   4.279   3.550   7.169 -0.3581 -0.0110 -0.1133
 9330TIP3    H152185   4.262   3.641   7.147 -1.0802  0.0831  0.8055
 9330TIP3    H252186   4.230   3.500   7.103  1.2181  0.2145 -1.5427
 9331TIP3   OH252187   3.511   6.617   6.565 -0.3264 -0.0412 -0.2168
 9331TIP3    H152188   3.600   6.582   6.560 -0.2720 -0.3385  2.0938
 9331TIP3    H252189   3.455   6.540   6.564 -0.6666  0.1558 -2.1545
 9332TIP3   OH252190   5.382   5.983   5.741  0.3557  0.4259 -0.2809
 9332TIP3    H152191   5.400   5.890   5.727 -1.5513  0.1629 -1.3649
 9332TIP3    H252192   5.451   6.029   5.693 -0.3610 -0.4847 -2.3071
 9333TIP3   OH252193   1.446   0.055   7.239 -0.0911  0.7021 -0.8530
 9333TIP3    H152194   1.519   0.101   7.281 -0.0195  0.5656 -0.8278
 9333TIP3    H252195   1.421  -0.012   7.302 -1.0509  1.5326 -0.3057
 9334TIP3   OH252196   5.931   3.990   6.979  0.0738  0.8351 -0.7919
 9334TIP3    H152197   5.857   3.939   6.947  0.7920 -1.0567  0.3610
 9334TIP3    H252198   5.893   4.050   7.044 -0.4427 -0.3582  0.0449
 9335TIP3   OH252199   5.763   4.511   6.410  0.0682 -0.3141 -0.1985
 9335TIP3    H152200   5.719   4.486   6.328  0.0482 -2.0019  0.2854
 9335TIP3    H252201   5.786   4.603   6.398 -0.2039 -0.4451 -1.9760
 9336TIP3   OH252202   1.146   1.502   7.755 -0.3569 -0.0496  0.2342
 9336TIP3    H152203   1.075   1.464   7.705 -0.5047 -0.7915  0.9770
 9336TIP3    H252204   1.103   1.546   7.829 -0.0791 -0.0998  0.4292
 9337TIP3   OH252205   1.159   2.225   6.095 -0.1218  0.5873 -0.4607
 9337TIP3    H152206   1.083   2.196   6.044 -0.6030  0.3935  0.3596
 9337TIP3    H252207   1.189   2.304   6.050 -1.2446  1.0786 -0.3809
 9338TIP3   OH252208   5.621   4.283   6.889 -0.2609 -0.3120 -0.0588
 9338TIP3    H152209   5.548   4.221   6.889 -0.6212  0.0969 -1.0144
 9338TIP3    H252210   5.670   4.262   6.969 -0.3689 -1.8217 -0.3546
 9339TIP3   OH252211   0.569   4.058   5.494 -0.0739  0.2510 -0.3876
 9339TIP3    H152212   0.542   3.977   5.451 -1.0526  1.0800 -1.3748
 9339TIP3    H252213   0.524   4.056   5.579  1.0919 -0.9250  0.2399
 9340TIP3   OH252214   3.723   2.351   7.716 -0.0445 -0.3208 -0.2152
 9340TIP3    H152215   3.807   2.339   7.671 -0.0169  0.7123 -0.4564
 9340TIP3    H252216   3.665   2.388   7.650 -1.1276 -2.2787 -0.4455
 9341TIP3   OH252217   5.252   4.435   7.586 -0.0665  0.0269 -0.3505
 9341TIP3    H152218   5.320   4.501   7.600  1.2476 -1.4027  0.3216
 9341TIP3    H252219   5.188   4.450   7.656  1.0666 -0.4087  0.8106
 9342TIP3   OH252220   4.442   0.728   6.442  0.1524  0.0032 -0.0228
 9342TIP3    H152221   4.415   0.804   6.390  1.5192  0.4980 -0.0743
 9342TIP3    H252222   4.445   0.761   6.532 -0.2669 -0.2924  0.1020
 9343TIP3   OH252223   2.614   1.895   6.743 -0.1165 -0.3281 -0.1949
 9343TIP3    H152224   2.535   1.876   6.693 -1.0543 -0.0145  1.1044
 9343TIP3    H252225   2.631   1.988   6.725 -0.7397 -0.0823  0.4151
 9344TIP3   OH252226   5.354   3.246   6.006 -0.4467  0.0121 -0.5993
 9344TIP3    H152227   5.295   3.321   6.009 -0.0550  0.3358 -1.0104
 9344TIP3    H252228   5.296   3.171   5.989 -0.8977  0.1434  0.2944
 9345TIP3   OH252229   5.361   4.192   6.656  0.2782 -0.4392 -0.0557
 9345TIP3    H152230   5.292   4.233   6.604 -0.1669 -1.3686 -0.2187
 9345TIP3    H252231   5.431   4.175   6.593 -0.0887 -1.1715 -0.2777
 9346TIP3   OH252232   2.647   5.470   5.934  0.1145 -0.2215 -0.5358
 9346TIP3    H152233   2.593   5.546   5.913  2.0776  1.1634 -0.8836
 9346TIP3    H252234   2.728   5.507   5.969  1.0752 -2.1601 -0.5684
 9347TIP3   OH252235   4.428   6.147   7.409 -0.1712 -0.0929 -0.0321
 9347TIP3    H152236   4.490   6.157   7.481  1.1771  0.6229 -1.2538
 9347TIP3    H252237   4.469   6.191   7.335 -1.1939 -1.3967 -1.4437
 9348TIP3   OH252238   1.090   0.856   7.891  0.7193 -0.3978  0.2368
 9348TIP3    H152239   1.067   0.845   7.983 -0.6669 -1.6209 -0.1951
 9348TIP3    H252240   1.158   0.791   7.875 -0.4869 -1.6447 -0.0327
 9349TIP3   OH252241   0.022   4.373   5.895  0.1763 -0.0698  0.0669
 9349TIP3    H152242   0.062   4.458   5.914  0.0719 -0.6850  3.7225
 9349TIP3    H252243  -0.069   4.394   5.871  0.5741  0.9131 -0.6272
 9350TIP3   OH252244   3.339   3.527   7.301  0.0138  0.1593  0.0959
 9350TIP3    H152245   3.353   3.471   7.377  0.7330 -0.6676 -0.6263
 9350TIP3    H252246   3.264   3.582   7.325 -0.6327 -1.0260  0.8807
 9351TIP3   OH252247   6.400   5.450   5.901  0.0812 -0.5841  0.0361
 9351TIP3    H152248   6.358   5.473   5.984 -0.8163 -2.9063  0.3045
 9351TIP3    H252249   6.327   5.427   5.844  0.8264 -2.2418 -0.2986
 9352TIP3   OH252250   2.924   4.797   5.807 -0.1718 -0.0221  0.0186
 9352TIP3    H152251   2.951   4.815   5.717  0.8260  0.5119  0.4000
 9352TIP3    H252252   2.858   4.729   5.800  1.8410 -2.0110 -0.9848
 9353TIP3   OH252253   0.165   3.227   7.279  0.2270  0.2250 -0.1871
 9353TIP3    H152254   0.143   3.318   7.299 -1.0032 -0.0995  0.0146
 9353TIP3    H252255   0.203   3.193   7.360  3.2679  1.2815 -1.0541
 9354TIP3   OH252256   1.730   6.503   5.460  0.0636  0.1135  0.3538
 9354TIP3    H152257   1.638   6.501   5.486  0.0680  1.7921  0.6473
 9354TIP3    H252258   1.730   6.555   5.380  0.4787 -2.0690 -1.1469
 9355TIP3   OH252259   2.199   3.775   6.868 -0.5067 -0.4891  0.1793
 9355TIP3    H152260   2.265   3.837   6.836 -1.3582  1.1759  1.5111
 9355TIP3    H252261   2.250   3.707   6.913  0.3651  0.0247 -0.0131
 9356TIP3   OH252262   2.694   4.411   8.148 -0.0522  0.0096 -0.3336
 9356TIP3    H152263   2.601   4.408   8.170  0.1472 -0.8242  0.4462
 9356TIP3    H252264   2.728   4.325   8.174  0.7891  0.0345 -1.2887
 9357TIP3   OH252265   1.361   2.405   7.862  0.2762 -0.0323 -0.2158
 9357TIP3    H152266   1.371   2.313   7.884  1.1381  0.1981  0.4354
 9357TIP3    H252267   1.433   2.448   7.907 -0.4421  1.0380 -0.0397
 9358TIP3   OH252268   1.952   4.979   9.192 -0.2453  0.5456 -0.5306
 9358TIP3    H152269   1.878   4.922   9.216  1.0946 -0.8059  0.6588
 9358TIP3    H252270   1.969   5.029   9.272  0.3205  0.5994 -0.6840
 9359TIP3   OH252271   4.739   6.641   6.328  0.3430 -0.7518  0.3211
 9359TIP3    H152272   4.684   6.602   6.260 -0.2442  2.1361 -0.9950
 9359TIP3    H252273   4.827   6.641   6.290 -0.2072  2.1802 -1.2254
 9360TIP3   OH252274   5.578   0.466   6.149  0.1197 -0.0401  0.4367
 9360TIP3    H152275   5.580   0.442   6.242 -1.3006  2.3249  1.1752
 9360TIP3    H252276   5.484   0.471   6.129  0.3826  1.5946 -0.4878
 9361TIP3   OH252277   3.392   4.187   5.855 -0.0049  0.2850  0.1441
 9361TIP3    H152278   3.379   4.281   5.847 -1.8269  0.0401 -0.1140
 9361TIP3    H252279   3.347   4.150   5.779 -0.2701 -0.8520  0.8273
 9362TIP3   OH252280   1.543   5.175   6.111 -0.5731  0.1129 -0.0126
 9362TIP3    H152281   1.468   5.209   6.160  1.7142  2.5715  2.1221
 9362TIP3    H252282   1.600   5.137   6.178  0.4651 -0.9916 -1.4689
 9363TIP3   OH252283   3.980   5.026   8.186  0.2575 -0.5676  0.3241
 9363TIP3    H152284   3.947   4.952   8.238  0.6186  0.6470  2.4243
 9363TIP3    H252285   3.941   5.103   8.228  0.5748  0.4987 -1.2668
 9364TIP3   OH252286   2.457   5.163   6.815  0.1762 -0.0298 -0.0920
 9364TIP3    H152287   2.444   5.184   6.723  0.5913 -1.2714 -0.4536
 9364TIP3    H252288   2.405   5.084   6.829 -0.8342  0.7889  1.0544
 9365TIP3   OH252289   6.257   5.554   6.798  0.2930  0.1564  0.3325
 9365TIP3    H152290   6.203   5.620   6.756  3.1119  2.2708 -0.2735
 9365TIP3    H252291   6.253   5.574   6.891 -0.5545 -0.2213  0.3852
 9366TIP3   OH252292   1.662   0.055   7.453  0.1133  0.1147  0.4700
 9366TIP3    H152293   1.606   0.049   7.531 -0.5174 -1.4364 -0.0549
 9366TIP3    H252294   1.707   0.139   7.462 -0.4820  0.2962  2.1384
 9367TIP3   OH252295   0.941   4.242   8.109  0.0509  0.1768 -0.2975
 9367TIP3    H152296   0.971   4.152   8.118  1.2424  0.6615  0.7264
 9367TIP3    H252297   1.004   4.283   8.049  0.3706  0.7032  0.3831
 9368TIP3   OH252298   2.546   5.408   7.961 -0.5508 -0.0858 -0.0528
 9368TIP3    H152299   2.570   5.498   7.984  1.0156 -0.7549  1.1008
 9368TIP3    H252300   2.502   5.374   8.039 -0.8144 -0.4364 -0.3481
 9369TIP3   OH252301   1.695   2.939   8.106  0.0660  0.1260  0.1108
 9369TIP3    H152302   1.784   2.911   8.130 -0.5464  0.2356  2.7481
 9369TIP3    H252303   1.639   2.866   8.132 -0.6204 -0.3591 -2.4253
 9370TIP3   OH252304   6.694   5.237   8.463  0.1304 -0.3408 -0.1073
 9370TIP3    H152305   6.698   5.252   8.368  1.8344 -1.2645 -0.2176
 9370TIP3    H252306   6.782   5.208   8.486 -0.1206  0.3194  1.8580
 9371TIP3   OH252307   2.251   1.443   8.911  0.6892  0.2158 -0.0603
 9371TIP3    H152308   2.334   1.404   8.884  0.8758  1.1182 -0.8361
 9371TIP3    H252309   2.230   1.506   8.842 -1.6481 -1.3688 -0.9416
 9372TIP3   OH252310   3.364   5.769   5.427  0.1237 -0.0849 -0.1973
 9372TIP3    H152311   3.343   5.859   5.454 -0.3648 -0.4266  0.5874
 9372TIP3    H252312   3.455   5.774   5.396 -0.1675  0.8430 -0.9455
 9373TIP3   OH252313   5.247   3.849   7.323  0.4256 -0.3495  0.0474
 9373TIP3    H152314   5.182   3.917   7.340  0.5584 -0.2340  0.0870
 9373TIP3    H252315   5.223   3.778   7.383 -0.6543 -0.9614 -1.0643
 9374TIP3   OH252316   1.764   0.558   8.011 -0.1408  0.2013  0.3769
 9374TIP3    H152317   1.849   0.546   7.969 -0.3248  0.6886 -0.1359
 9374TIP3    H252318   1.752   0.479   8.063  0.1749 -0.3166 -0.3284
 9375TIP3   OH252319   4.377   2.195   7.787  0.3332 -0.3722  0.2545
 9375TIP3    H152320   4.471   2.206   7.801  0.1916 -0.2350  1.1585
 9375TIP3    H252321   4.340   2.192   7.875 -0.7253  1.3764 -0.0878
 9376TIP3   OH252322   1.598   5.948   6.151 -0.6929  0.6062  0.3121
 9376TIP3    H152323   1.646   5.901   6.083 -0.0618 -2.9563  2.9136
 9376TIP3    H252324   1.608   6.040   6.128 -1.3070 -0.2891 -4.7883
 9377TIP3   OH252325   4.521   1.020   7.960 -0.3949 -0.9246  0.5731
 9377TIP3    H152326   4.573   0.961   7.905  1.6159  0.0721  1.2794
 9377TIP3    H252327   4.481   1.081   7.898  0.6121 -0.7382  0.0688
 9378TIP3   OH252328   0.180   2.011   7.300 -0.0679 -0.9764  0.2608
 9378TIP3    H152329   0.185   2.009   7.205 -0.0577 -1.2753  0.2672
 9378TIP3    H252330   0.086   2.014   7.320 -0.0999 -1.9151  0.2597
 9379TIP3   OH252331   5.455   6.541   5.575 -0.5396 -0.7350  0.0885
 9379TIP3    H152332   5.394   6.474   5.546  0.4118 -1.4467 -0.3369
 9379TIP3    H252333   5.528   6.536   5.512  1.1810 -1.7283  2.0261
 9380TIP3   OH252334   3.674   4.946   8.256 -0.5418  0.4742 -0.0538
 9380TIP3    H152335   3.602   4.884   8.269 -0.7080  0.3051 -1.5858
 9380TIP3    H252336   3.689   4.984   8.343 -0.8827 -1.1981  0.7849
 9381TIP3   OH252337   2.297   5.601   7.862  0.6961  0.3364 -0.2531
 9381TIP3    H152338   2.338   5.688   7.867 -1.5608  1.4643 -0.1233
 9381TIP3    H252339   2.277   5.579   7.953  0.0384  0.3141 -0.3995
 9382TIP3   OH252340   2.487   1.692   9.007  0.3356  0.1627 -0.2494
 9382TIP3    H152341   2.476   1.604   8.973 -0.2065  0.0670  0.1622
 9382TIP3    H252342   2.399   1.722   9.028  0.3501  1.3626 -1.7244
 9383TIP3   OH252343   5.679   2.975   7.796 -0.1039 -0.1186  0.0629
 9383TIP3    H152344   5.611   2.974   7.728  0.4771 -1.2081 -0.5218
 9383TIP3    H252345   5.635   2.941   7.874 -1.4269  3.1902  0.9674
 9384TIP3   OH252346   1.312   1.993   6.026  0.0200  0.0785  0.0900
 9384TIP3    H152347   1.389   2.033   5.985  0.2498 -0.2013  0.2568
 9384TIP3    H252348   1.248   2.065   6.029  0.3320  0.3601  0.1191
 9385TIP3   OH252349   5.404   2.939   7.334  0.3131 -0.2070 -0.0880
 9385TIP3    H152350   5.432   2.958   7.244  0.5214 -0.0646  0.0051
 9385TIP3    H252351   5.309   2.928   7.328  0.5097 -2.1079 -0.6726
 9386TIP3   OH252352   2.032   5.415   9.279 -0.0466 -0.2899 -0.1242
 9386TIP3    H152353   2.025   5.510   9.283 -0.0026 -0.3038  0.3220
 9386TIP3    H252354   1.944   5.385   9.259 -0.0125 -0.1437 -0.4999
 9387TIP3   OH252355   2.788   3.562   7.251 -0.0746  0.9620 -0.2466
 9387TIP3    H152356   2.867   3.526   7.290 -0.1025 -0.4036 -1.3828
 9387TIP3    H252357   2.717   3.528   7.306 -0.1162 -0.9721 -1.3988
 9388TIP3   OH252358   5.214   5.966   7.555 -0.2028  0.3268  0.4280
 9388TIP3    H152359   5.131   6.012   7.561  1.1629  3.1258 -0.2523
 9388TIP3    H252360   5.270   6.010   7.619  0.9165 -1.1200  0.4827
 9389TIP3   OH252361   5.016   4.017   7.325  0.3353 -0.3271  0.0023
 9389TIP3    H152362   4.952   4.035   7.256  0.4124 -0.2392 -0.0462
 9389TIP3    H252363   4.965   4.023   7.406 -0.3071 -2.8292 -0.1451
 9390TIP3   OH252364   5.620   6.485   6.561 -0.2424 -0.1898 -0.0439
 9390TIP3    H152365   5.569   6.427   6.618 -1.2580 -0.0659 -0.8156
 9390TIP3    H252366   5.702   6.499   6.609  0.0989 -2.3706  0.1064
 9391TIP3   OH252367   5.588   4.852   5.861  0.1453 -0.5876 -0.2169
 9391TIP3    H152368   5.683   4.853   5.852  0.1045  0.6223 -0.6476
 9391TIP3    H252369   5.565   4.940   5.889 -0.9123 -0.6347 -0.8689
 9392TIP3   OH252370   5.820   1.351   6.542  0.2124  0.1681 -0.1354
 9392TIP3    H152371   5.787   1.326   6.455 -3.6169  0.5004  1.0459
 9392TIP3    H252372   5.830   1.446   6.538  2.1569  0.0004 -0.7337
 9393TIP3   OH252373   0.392   6.087   8.713 -0.0324  0.4716  0.1480
 9393TIP3    H152374   0.384   5.995   8.740 -0.5917  0.3859 -0.2897
 9393TIP3    H252375   0.302   6.118   8.704  0.1589  1.2891  1.0071
 9394TIP3   OH252376   0.262   2.636   7.252  0.1843 -0.2427  0.6193
 9394TIP3    H152377   0.330   2.619   7.186 -0.7555 -1.3288 -0.0953
 9394TIP3    H252378   0.202   2.697   7.209  0.9869  1.2319  1.4772
 9395TIP3   OH252379   0.341   3.991   7.926 -0.2893  0.1669  0.2670
 9395TIP3    H152380   0.404   3.962   7.861 -0.9994  1.4110 -1.0293
 9395TIP3    H252381   0.389   4.053   7.980 -0.3281  0.9714 -0.6013
 9396TIP3   OH252382   4.085   0.390   5.978  0.6000 -0.3231  0.4133
 9396TIP3    H152383   4.032   0.410   5.901  2.1779  0.1078 -0.6105
 9396TIP3    H252384   4.056   0.452   6.045  0.7287  0.8220 -0.5611
 9397TIP3   OH252385   0.880   2.685   6.582 -0.7382 -0.2766 -0.0151
 9397TIP3    H152386   0.834   2.757   6.626 -0.6142 -0.5595  0.5913
 9397TIP3    H252387   0.967   2.719   6.563 -0.2762 -0.6265  1.3313
 9398TIP3   OH252388   6.551   1.218   7.179  0.5760  0.0976  0.1301
 9398TIP3    H152389   6.608   1.232   7.104  2.1191 -2.2867  0.7734
 9398TIP3    H252390   6.483   1.286   7.170  1.4393  0.7207 -2.6429
 9399TIP3   OH252391   0.025   0.768   5.793 -0.0434  0.1655  0.1259
 9399TIP3    H152392   0.042   0.674   5.798  0.2183  0.2020 -0.0307
 9399TIP3    H252393   0.018   0.786   5.699  1.9235  0.6386  0.0246
 9400TIP3   OH252394   1.867   4.967   6.445  0.3023  0.2285  0.2301
 9400TIP3    H152395   1.773   4.982   6.434  0.3230 -0.2524 -0.7473
 9400TIP3    H252396   1.885   4.887   6.395  0.7667 -1.2340  2.5791
 9401TIP3   OH252397   0.190   5.424   8.141 -0.0039 -0.0888  0.6585
 9401TIP3    H152398   0.253   5.412   8.212  0.5241 -0.2308  0.1788
 9401TIP3    H252399   0.111   5.455   8.184  0.1504 -0.6448  1.3665
 9402TIP3   OH252400   4.615   4.283   5.928 -0.2150  0.2870 -1.1442
 9402TIP3    H152401   4.549   4.236   5.979 -0.3883  0.9859 -0.7190
 9402TIP3    H252402   4.574   4.297   5.843 -0.4112  0.2350 -1.0601
 9403TIP3   OH252403   0.757   2.922   6.673 -0.5970 -0.0024  0.1028
 9403TIP3    H152404   0.682   2.978   6.692 -0.3354  0.3851 -0.0070
 9403TIP3    H252405   0.808   2.970   6.608  0.3030  0.2168  0.9536
 9404TIP3   OH252406   1.936   0.104   6.618 -0.2509 -0.0692 -0.1451
 9404TIP3    H152407   1.967   0.168   6.683  1.9055 -1.1614 -0.0119
 9404TIP3    H252408   1.865   0.149   6.573  1.2666  2.5051 -0.1576
 9405TIP3   OH252409   3.096   0.826   6.236 -0.2309  0.2648  0.2789
 9405TIP3    H152410   3.018   0.822   6.181  0.2619 -2.3603 -0.3849
 9405TIP3    H252411   3.079   0.764   6.307  1.0402  0.0027  0.3855
 9406TIP3   OH252412   4.080   2.687   7.174 -0.0817 -0.7020 -0.2754
 9406TIP3    H152413   4.029   2.689   7.255  0.1114  1.3295 -0.1566
 9406TIP3    H252414   4.015   2.703   7.105  0.0276 -0.6047 -0.3558
 9407TIP3   OH252415   3.959   5.350   5.341 -0.0204 -0.4665  0.0301
 9407TIP3    H152416   4.030   5.409   5.364 -1.3254  1.5845 -0.8945
 9407TIP3    H252417   3.928   5.315   5.424  0.3305  0.7364  0.6794
 9408TIP3   OH252418   0.030   2.547   7.631  0.0792  0.3195  0.6163
 9408TIP3    H152419   0.052   2.458   7.660 -1.7931 -0.8554 -1.2942
 9408TIP3    H252420  -0.062   2.542   7.605  0.6456  2.0475 -2.1745
 9409TIP3   OH252421   2.479   5.450   8.828 -0.2007  0.1209 -0.5445
 9409TIP3    H152422   2.474   5.354   8.827 -0.9637  0.1573 -1.0774
 9409TIP3    H252423   2.467   5.473   8.920 -0.5704 -0.2790 -0.4866
 9410TIP3   OH252424   1.158   5.748   8.955 -0.2256  0.3509 -0.0413
 9410TIP3    H152425   1.247   5.725   8.929 -0.7813 -2.5662  0.3605
 9410TIP3    H252426   1.164   5.765   9.049  0.2414  2.5134 -0.3926
 9411TIP3   OH252427   6.202   1.060   7.099  0.2692 -0.1381  0.1064
 9411TIP3    H152428   6.153   1.097   7.026  0.6772  0.5839  0.1881
 9411TIP3    H252429   6.175   1.111   7.176 -0.2757 -0.9939  0.4981
 9412TIP3   OH252430   3.735   3.557   6.011  0.5762 -0.7113  0.0325
 9412TIP3    H152431   3.805   3.516   5.961  2.6704 -2.2838  3.7947
 9412TIP3    H252432   3.781   3.602   6.083 -2.0771  2.6765 -0.1296
 9413TIP3   OH252433   1.311   6.588   8.071 -0.2086  0.6888 -0.1922
 9413TIP3    H152434   1.397   6.599   8.032 -0.4758  0.4952 -0.8542
 9413TIP3    H252435   1.318   6.508   8.123 -0.0946  0.4654 -0.5483
 9414TIP3   OH252436   4.622   2.917   6.063  0.6104 -0.0229 -0.2114
 9414TIP3    H152437   4.585   2.830   6.078  2.0834 -0.6916 -0.2359
 9414TIP3    H252438   4.657   2.943   6.148  0.0334  0.6227 -0.1684
 9415TIP3   OH252439   4.884   2.953   7.803 -0.0843 -0.1448  0.0071
 9415TIP3    H152440   4.852   2.928   7.889  0.4254  0.8836  0.5075
 9415TIP3    H252441   4.896   2.870   7.757 -0.0882 -0.7201  1.0194
 9416TIP3   OH252442   5.897   5.450   8.118 -0.0276  0.0237  0.6637
 9416TIP3    H152443   5.817   5.424   8.072 -0.2333  1.1481  0.3401
 9416TIP3    H252444   5.922   5.374   8.170 -1.5816 -0.1759  1.1402
 9417TIP3   OH252445   5.560   5.502   6.220 -0.3725  0.9948  0.0354
 9417TIP3    H152446   5.647   5.472   6.195  0.2728  0.0749  3.0308
 9417TIP3    H252447   5.574   5.560   6.295 -2.3492 -0.6119  1.8026
 9418TIP3   OH252448   5.712   1.522   8.881  0.5063 -0.8072 -0.6182
 9418TIP3    H152449   5.807   1.522   8.891  0.4907  0.4916 -0.2630
 9418TIP3    H252450   5.693   1.605   8.838 -0.6482  0.0592  1.4603
 9419TIP3   OH252451   6.704   1.538   7.372 -0.1980 -0.2944 -0.7102
 9419TIP3    H152452   6.725   1.446   7.386  2.9354  0.1843 -1.4691
 9419TIP3    H252453   6.753   1.585   7.440 -1.2053  0.8660 -0.7488
 9420TIP3   OH252454   1.978   5.295   6.030 -0.2885  0.9325 -0.1095
 9420TIP3    H152455   2.067   5.318   6.058 -0.0435  0.1289 -0.2063
 9420TIP3    H252456   1.922   5.362   6.069  0.0786  0.0971  1.9326
 9421TIP3   OH252457   4.613   5.802   7.997  0.1435  0.3040  1.0039
 9421TIP3    H152458   4.582   5.882   7.955  0.3739 -0.1461 -0.0726
 9421TIP3    H252459   4.543   5.739   7.984  0.5421 -0.0653  0.5865
 9422TIP3   OH252460   6.458   6.220   5.864  0.1287  0.1643 -0.5541
 9422TIP3    H152461   6.532   6.263   5.907  0.5780 -1.6688  0.6187
 9422TIP3    H252462   6.496   6.171   5.791 -0.0662  0.0349 -0.5728
 9423TIP3   OH252463   3.108   0.979   8.212 -0.7811  0.3589 -0.3146
 9423TIP3    H152464   3.175   1.036   8.251 -0.6456 -0.4152  0.6325
 9423TIP3    H252465   3.128   0.979   8.119  0.5032  0.2264 -0.0636
 9424TIP3   OH252466   0.458   2.186   7.236  0.4006  0.0967  0.0089
 9424TIP3    H152467   0.497   2.157   7.153  0.8778  1.9427 -0.4797
 9424TIP3    H252468   0.533   2.214   7.289 -0.0119  0.4828  0.3971
 9425TIP3   OH252469   1.317   6.098   8.382 -0.2653 -0.5564  0.2718
 9425TIP3    H152470   1.276   6.029   8.330  0.3374 -1.1292  0.5413
 9425TIP3    H252471   1.253   6.118   8.451 -0.3558 -0.9856  0.3133
 9426TIP3   OH252472   4.740   2.033   6.751  0.0507 -0.0858  0.4007
 9426TIP3    H152473   4.803   2.030   6.679 -0.7456 -0.1780 -0.2906
 9426TIP3    H252474   4.672   1.970   6.727  0.2678 -0.8540  1.6979
 9427TIP3   OH252475   2.693   0.003   6.332  0.4051  0.1495  0.9267
 9427TIP3    H152476   2.704   0.005   6.428 -0.2987 -3.0312  1.1870
 9427TIP3    H252477   2.599  -0.003   6.319  0.5591 -0.6323  0.0980
 9428TIP3   OH252478   5.543   0.154   7.691 -0.0114  0.1730 -0.4414
 9428TIP3    H152479   5.630   0.176   7.656  0.1297 -0.8418 -0.7818
 9428TIP3    H252480   5.516   0.077   7.640 -0.7280 -0.0522  0.2578
 9429TIP3   OH252481   6.668   2.983   6.543  0.1594 -0.2543 -0.2655
 9429TIP3    H152482   6.635   3.042   6.474  0.1615 -1.6108 -1.4791
 9429TIP3    H252483   6.724   3.038   6.597 -0.1378  0.9489 -1.1337
 9430TIP3   OH252484   2.265   3.695   6.190 -0.5073 -0.2356 -0.4985
 9430TIP3    H152485   2.344   3.736   6.225 -1.1761  1.9395 -1.3453
 9430TIP3    H252486   2.292   3.658   6.107 -0.0435 -0.9047 -0.0561
 9431TIP3   OH252487   0.064   5.440   7.553 -0.0468  0.7895  0.3270
 9431TIP3    H152488   0.154   5.410   7.541 -0.8523 -1.1269 -1.4046
 9431TIP3    H252489   0.055   5.515   7.494 -0.0542 -0.0733 -0.7845
 9432TIP3   OH252490   1.498   6.324   8.371  0.2192 -0.1359  0.3504
 9432TIP3    H152491   1.425   6.263   8.363  0.6469 -0.5848 -0.3025
 9432TIP3    H252492   1.459   6.405   8.403 -0.8655  0.1647 -1.5571
 9433TIP3   OH252493   2.041   0.718   7.383 -0.1821 -0.0143  0.1093
 9433TIP3    H152494   2.098   0.747   7.311 -0.7838 -1.5037 -1.0396
 9433TIP3    H252495   1.953   0.742   7.354 -0.3853 -0.1694  0.5932
 9434TIP3   OH252496   5.004   5.125   6.234 -0.1243 -0.1746  0.2670
 9434TIP3    H152497   4.986   5.218   6.248  0.5482  0.1332 -0.7561
 9434TIP3    H252498   5.066   5.124   6.161 -0.6400 -1.4632 -0.1813
 9435TIP3   OH252499   2.369   2.562   8.392 -0.1607 -0.7038 -0.0935
 9435TIP3    H152500   2.415   2.481   8.413 -0.2617 -0.9386 -0.7643
 9435TIP3    H252501   2.410   2.628   8.448  0.8445 -0.9540 -0.5279
 9436TIP3   OH252502   3.087   3.361   6.107 -0.3062  0.2330 -0.0851
 9436TIP3    H152503   3.033   3.328   6.035  0.9294  0.3517 -1.1158
 9436TIP3    H252504   3.136   3.433   6.068  1.6681 -0.8004  0.3826
 9437TIP3   OH252505   0.632   6.264   7.851 -0.3641  0.0510 -0.0617
 9437TIP3    H152506   0.702   6.215   7.894 -0.5009 -0.7332 -0.7088
 9437TIP3    H252507   0.585   6.306   7.923  1.2560  1.2973  0.3336
 9438TIP3   OH252508   3.638   2.931   6.987 -0.1632  0.2947  0.1657
 9438TIP3    H152509   3.731   2.934   6.967  0.0105  2.0479  1.0658
 9438TIP3    H252510   3.613   2.840   6.970  1.2589  0.2337 -1.9415
 9439TIP3   OH252511   5.205   5.715   7.921 -0.1446 -0.1399  0.4349
 9439TIP3    H152512   5.116   5.715   7.885 -0.4418  1.2310  1.1340
 9439TIP3    H252513   5.208   5.638   7.977  0.1757 -2.0637 -2.0373
 9440TIP3   OH252514   0.794   3.800   6.579  0.3427  0.4583 -0.2941
 9440TIP3    H152515   0.835   3.886   6.571  2.7545 -0.7168 -1.5383
 9440TIP3    H252516   0.738   3.793   6.502 -1.2174  1.5297  0.6927
 9441TIP3   OH252517   4.638   1.554   6.160 -0.3787  0.3664 -0.1670
 9441TIP3    H152518   4.593   1.630   6.124  0.0703  0.7033 -0.0162
 9441TIP3    H252519   4.731   1.575   6.155 -0.1656 -0.7173 -1.3625
 9442TIP3   OH252520   0.825   1.821   7.458 -0.0708 -0.0179  0.7392
 9442TIP3    H152521   0.908   1.827   7.504  0.6383 -1.8159 -0.1834
 9442TIP3    H252522   0.803   1.911   7.434  0.1505  0.8170  3.4203
 9443TIP3   OH252523   3.824   5.116   7.729  0.3307 -0.6312 -0.6778
 9443TIP3    H152524   3.815   5.024   7.705  0.7449 -0.2506 -2.4225
 9443TIP3    H252525   3.831   5.163   7.646  1.6830  0.8192  0.1700
 9444TIP3   OH252526   1.466   5.126   7.683 -0.3787 -0.8267  1.3576
 9444TIP3    H152527   1.512   5.179   7.748 -0.0278 -3.4474  3.4180
 9444TIP3    H252528   1.533   5.106   7.618 -0.4015  0.7695  0.7884
 9445TIP3   OH252529   1.063   5.532   8.062  0.4580 -0.5355  0.1913
 9445TIP3    H152530   1.141   5.587   8.060 -0.5251  0.9164  0.1032
 9445TIP3    H252531   1.092   5.450   8.101  2.2448 -0.4071 -0.7783
 9446TIP3   OH252532   4.193   4.429   5.185 -0.1258  0.5732  0.0955
 9446TIP3    H152533   4.276   4.410   5.140 -0.9227 -0.1570 -1.1273
 9446TIP3    H252534   4.215   4.499   5.247  1.3059  0.6968 -0.5084
 9447TIP3   OH252535   6.222   0.262   5.931  0.5790  0.1280 -0.3744
 9447TIP3    H152536   6.161   0.265   6.004 -0.1706 -0.6528 -0.9474
 9447TIP3    H252537   6.291   0.323   5.955 -0.3136  0.8697  0.3832
 9448TIP3   OH252538   0.856   1.653   5.851 -0.4935 -0.0829  0.2277
 9448TIP3    H152539   0.950   1.642   5.839 -0.3310  1.2508  0.1385
 9448TIP3    H252540   0.824   1.566   5.877  0.7081 -0.6112 -0.0270
 9449TIP3   OH252541   5.258   5.966   8.678  0.1078  0.5524  0.0115
 9449TIP3    H152542   5.187   6.026   8.655 -1.6972 -0.2327  2.9777
 9449TIP3    H252543   5.216   5.881   8.687  1.7360 -0.2439  0.4095
 9450TIP3   OH252544   0.844   4.129   6.863  0.2550 -0.2812 -0.7065
 9450TIP3    H152545   0.926   4.100   6.822  1.1262 -0.0437  0.7793
 9450TIP3    H252546   0.870   4.205   6.915 -1.2041  0.6851 -1.3079
 9451TIP3   OH252547   3.333   2.194   6.894 -0.2634 -0.4793 -0.1165
 9451TIP3    H152548   3.301   2.123   6.838 -1.1462 -0.5901  0.5113
 9451TIP3    H252549   3.315   2.274   6.846  2.0719 -0.6840 -1.5134
 9452TIP3   OH252550   4.895   4.433   8.083  0.2406 -0.2005 -0.6262
 9452TIP3    H152551   4.988   4.435   8.062  0.1871  0.4006 -0.8297
 9452TIP3    H252552   4.854   4.484   8.013 -0.1362  0.3396 -0.0171
 9453TIP3   OH252553   6.273   2.358   5.754  0.6498 -0.2661  0.3134
 9453TIP3    H152554   6.313   2.445   5.759 -0.4812  0.2230  2.9386
 9453TIP3    H252555   6.179   2.376   5.748  0.4459 -1.3067  0.1968
 9454TIP3   OH252556   1.228   1.194   8.075 -0.4792 -0.0707  0.0893
 9454TIP3    H152557   1.178   1.258   8.125  0.5841  1.4616 -0.7351
 9454TIP3    H252558   1.205   1.211   7.984 -0.6059 -1.2559 -0.1169
 9455TIP3   OH252559   0.113   5.596   5.898  0.5957 -0.2329 -0.1954
 9455TIP3    H152560   0.098   5.511   5.941 -0.3146  0.4778  0.9491
 9455TIP3    H252561   0.050   5.655   5.939  2.0588  1.3120 -0.0647
 9456TIP3   OH252562   6.384   2.497   6.102 -0.1558 -0.3212  0.2225
 9456TIP3    H152563   6.441   2.491   6.025 -0.0472  0.3334  0.2458
 9456TIP3    H252564   6.392   2.588   6.130 -2.7442  0.3559 -0.9526
 9457TIP3   OH252565   2.661   5.679   8.609 -0.2112 -0.2524  0.1218
 9457TIP3    H152566   2.606   5.743   8.654  0.1960 -1.5826  2.6974
 9457TIP3    H252567   2.750   5.711   8.619  0.0934 -1.5652  2.2514
 9458TIP3   OH252568   4.710   6.406   6.630  0.3325 -0.5186 -0.3279
 9458TIP3    H152569   4.684   6.471   6.565  0.8555  1.8038  1.6247
 9458TIP3    H252570   4.674   6.324   6.598 -1.9419  1.0297 -2.0700
 9459TIP3   OH252571   3.254   3.588   6.060  0.1396 -0.1647 -0.2767
 9459TIP3    H152572   3.238   3.618   6.149  2.6924  0.4409  0.0610
 9459TIP3    H252573   3.260   3.669   6.008  1.6158 -0.3296 -0.3986
 9460TIP3   OH252574   5.147   4.300   6.489  0.3030 -0.4546 -0.9934
 9460TIP3    H152575   5.074   4.241   6.474 -1.6672  1.8266 -0.8538
 9460TIP3    H252576   5.112   4.388   6.473  2.9741  0.7577 -0.7853
 9461TIP3   OH252577   6.396   1.002   8.190 -0.2520  0.0758 -0.6143
 9461TIP3    H152578   6.435   1.046   8.266 -0.5666 -0.4873 -0.1172
 9461TIP3    H252579   6.450   0.924   8.179  0.4416  0.6772 -1.6289
 9462TIP3   OH252580   1.167   2.551   7.345  0.1634 -0.3554 -0.3275
 9462TIP3    H152581   1.144   2.636   7.307 -0.7368 -1.3306 -2.1227
 9462TIP3    H252582   1.149   2.561   7.438 -1.1426  1.0610 -0.6771
 9463TIP3   OH252583   6.659   2.495   6.889 -0.7022 -0.5236  0.1552
 9463TIP3    H152584   6.630   2.541   6.810  0.5439 -1.0121 -0.6143
 9463TIP3    H252585   6.650   2.560   6.959  0.2766  0.6639 -0.7744
 9464TIP3   OH252586   0.478   3.040   6.678  0.4834 -0.3283 -0.7627
 9464TIP3    H152587   0.408   2.984   6.645 -0.3899 -0.5617  1.3639
 9464TIP3    H252588   0.483   3.112   6.614 -3.7632  1.2960  0.3923
 9465TIP3   OH252589   2.224   2.839   5.748  0.4989 -0.2871 -0.7018
 9465TIP3    H152590   2.286   2.807   5.813  1.4656 -0.0271 -1.4750
 9465TIP3    H252591   2.252   2.799   5.666  1.3162  1.8903 -1.5763
 9466TIP3   OH252592   6.513   6.701   7.718 -0.1732 -0.0741 -0.2413
 9466TIP3    H152593   6.454   6.761   7.673  0.2570  0.4916 -0.0610
 9466TIP3    H252594   6.465   6.676   7.797  0.2399  1.2316  0.4513
 9467TIP3   OH252595   6.487   2.302   8.224  0.0593 -0.2348 -0.2519
 9467TIP3    H152596   6.397   2.282   8.250  0.3063 -0.0615  0.7784
 9467TIP3    H252597   6.527   2.216   8.207  0.6241 -0.5834  2.4901
 9468TIP3   OH252598   1.057   2.502   7.101  0.4180 -0.1980 -0.6223
 9468TIP3    H152599   1.109   2.499   7.181 -1.3988  0.2699  0.6185
 9468TIP3    H252600   0.984   2.443   7.117  0.1687 -0.3395 -2.0813
 9469TIP3   OH252601   1.627   3.262   7.844 -0.3811  0.1984 -0.0103
 9469TIP3    H152602   1.689   3.193   7.821 -0.1254 -0.5043  2.5569
 9469TIP3    H252603   1.572   3.224   7.912 -3.1340  1.0971 -1.5508
 9470TIP3   OH252604   5.256   5.917   6.985  0.6827  0.6709 -0.4101
 9470TIP3    H152605   5.170   5.901   7.024  1.8454 -0.9775  1.7260
 9470TIP3    H252606   5.255   5.870   6.902  0.6252 -2.4835  1.2190
 9471TIP3   OH252607   2.048   6.541   5.972  0.6739 -0.0001  0.3759
 9471TIP3    H152608   1.962   6.529   6.011  1.1582 -2.4154  0.8202
 9471TIP3    H252609   2.093   6.457   5.984  4.0057  1.8329  2.3499
 9472TIP3   OH252610   3.156   0.610   6.930 -0.4753 -0.2093 -0.2762
 9472TIP3    H152611   3.096   0.543   6.896  0.2371 -0.6021 -0.7924
 9472TIP3    H252612   3.241   0.566   6.932 -0.2141  0.3240  0.5101
 9473TIP3   OH252613   0.978   5.176   8.651 -0.5580  0.1885 -0.2498
 9473TIP3    H152614   0.918   5.103   8.667  1.1054 -1.3476 -0.6191
 9473TIP3    H252615   0.970   5.194   8.557  0.9594 -1.4099 -0.7404
 9474TIP3   OH252616   5.136   0.439   7.161  0.5445 -0.0168 -0.3105
 9474TIP3    H152617   5.184   0.369   7.207  0.8619  0.0524 -0.5339
 9474TIP3    H252618   5.188   0.456   7.083  0.6602  0.7162 -0.0800
 9475TIP3   OH252619   4.915   4.010   6.718 -0.6752 -0.5809 -0.0685
 9475TIP3    H152620   4.975   4.047   6.783 -0.3362 -0.9555 -0.1631
 9475TIP3    H252621   4.829   4.011   6.762 -1.0585  1.9993 -0.7247
 9476TIP3   OH252622   6.089   0.587   5.571 -0.3746  0.3039  0.1761
 9476TIP3    H152623   6.164   0.540   5.607 -0.9387 -0.4044  0.4655
 9476TIP3    H252624   6.116   0.678   5.569  1.1176 -0.1333 -1.3431
 9477TIP3   OH252625   5.313   1.355   8.543 -0.1650  0.3809 -0.4540
 9477TIP3    H152626   5.275   1.432   8.500  0.3388  0.4141 -0.8390
 9477TIP3    H252627   5.248   1.331   8.610 -0.6996  0.6590 -0.8620
 9478TIP3   OH252628   2.118   6.248   7.837  0.0860 -0.3692 -0.4575
 9478TIP3    H152629   2.060   6.305   7.887  1.0844 -1.5553  2.2499
 9478TIP3    H252630   2.172   6.309   7.786 -0.2855  0.9983  0.6934
 9479TIP3   OH252631   3.571   1.900   7.217 -0.0829  0.6671  0.2682
 9479TIP3    H152632   3.662   1.916   7.242 -0.8294  1.5791  2.7087
 9479TIP3    H252633   3.537   1.986   7.193 -0.4063  0.3923 -0.2864
 9480TIP3   OH252634   6.014   2.534   7.434  0.2144 -0.2650 -0.2413
 9480TIP3    H152635   6.037   2.580   7.352 -1.8803 -0.6422 -1.0924
 9480TIP3    H252636   6.088   2.475   7.449  1.0856  0.4942 -1.3287
 9481TIP3   OH252637   2.407   0.482   7.780  0.2466  0.0542 -0.3846
 9481TIP3    H152638   2.390   0.554   7.720  1.3640 -0.7396 -1.7122
 9481TIP3    H252639   2.487   0.507   7.827 -0.1860  0.3178  0.2306
 9482TIP3   OH252640   3.744   2.600   6.487 -0.5568  0.3191 -0.0867
 9482TIP3    H152641   3.785   2.652   6.556  0.5741  0.9147 -1.1731
 9482TIP3    H252642   3.778   2.512   6.499 -0.4921  0.3816  0.2014
 9483TIP3   OH252643   1.309   4.033   8.386 -0.0898 -0.2976 -0.3899
 9483TIP3    H152644   1.309   4.018   8.480 -1.3790  0.0094 -0.3169
 9483TIP3    H252645   1.396   4.008   8.357 -0.1836 -1.9540  0.6425
 9484TIP3   OH252646   4.515   5.747   5.507  0.0724 -0.3645 -0.6957
 9484TIP3    H152647   4.487   5.758   5.598  0.5231  3.0615 -0.8202
 9484TIP3    H252648   4.564   5.665   5.506  2.1620  0.6285  2.7850
 9485TIP3   OH252649   2.699   1.649   6.319 -0.1285 -0.0980 -0.0377
 9485TIP3    H152650   2.733   1.694   6.396 -1.0509 -1.7234  1.4203
 9485TIP3    H252651   2.606   1.672   6.317 -0.7015 -2.0713  0.9519
 9486TIP3   OH252652   5.826   4.628   6.009 -0.1462  0.2665  0.1617
 9486TIP3    H152653   5.748   4.623   6.065  0.7785 -3.1720  1.3531
 9486TIP3    H252654   5.878   4.699   6.047 -0.4296 -0.7225  2.5805
 9487TIP3   OH252655   0.044   2.874   7.934  0.1212  0.2003  0.0592
 9487TIP3    H152656  -0.029   2.845   7.987 -0.3660 -0.4812 -0.9599
 9487TIP3    H252657   0.083   2.794   7.898  0.2629  0.6458 -0.8274
 9488TIP3   OH252658   6.088   5.114   6.398 -0.1941  0.1509  0.2810
 9488TIP3    H152659   6.165   5.084   6.446  1.1592  1.5031 -0.9347
 9488TIP3    H252660   6.023   5.130   6.466 -0.4500 -3.5875  1.1546
 9489TIP3   OH252661   5.587   0.793   8.641  0.6259  0.0408  0.4552
 9489TIP3    H152662   5.559   0.738   8.714 -1.3527 -0.0210 -0.2784
 9489TIP3    H252663   5.682   0.780   8.636  0.6419 -0.8709  2.2316
 9490TIP3   OH252664   5.927   3.585   7.949 -0.4835  0.0092 -0.5554
 9490TIP3    H152665   5.954   3.494   7.932  0.8963  0.6124 -1.7347
 9490TIP3    H252666   5.994   3.619   8.009 -1.1760  0.1785  0.1449
 9491TIP3   OH252667   4.255   2.410   5.735 -0.5712 -0.2776  0.1712
 9491TIP3    H152668   4.162   2.430   5.726 -0.3988  0.3735 -0.2811
 9491TIP3    H252669   4.298   2.469   5.673  0.0092 -1.8634 -1.0125
 9492TIP3   OH252670   2.696   5.491   7.410  0.4384  0.3419  0.3000
 9492TIP3    H152671   2.755   5.416   7.405  1.0172  0.8175 -0.0893
 9492TIP3    H252672   2.751   5.564   7.438  0.0825  0.8283 -0.2414
 9493TIP3   OH252673   0.434   2.996   7.386  0.1040  0.3808 -0.1153
 9493TIP3    H152674   0.492   3.025   7.456  0.3534 -0.1605 -0.0923
 9493TIP3    H252675   0.346   3.005   7.422  0.1961  0.7391  0.0251
 9494TIP3   OH252676   4.319   5.495   7.222  0.2380 -0.0751  0.0822
 9494TIP3    H152677   4.284   5.465   7.138  2.0383  0.8697 -1.0674
 9494TIP3    H252678   4.397   5.544   7.199  0.7303  0.2964  2.3342
 9495TIP3   OH252679   3.289   3.161   5.425  0.2832 -1.1254  0.6330
 9495TIP3    H152680   3.315   3.248   5.396  0.6442 -0.8559  1.7207
 9495TIP3    H252681   3.371   3.115   5.440  0.1035 -1.3436  0.9578
 9496TIP3   OH252682   0.184   4.100   8.699 -0.3569  0.2260 -0.4614
 9496TIP3    H152683   0.211   4.094   8.790  0.2751 -1.3632 -0.7026
 9496TIP3    H252684   0.092   4.072   8.699 -0.7042  1.3382 -0.1848
 9497TIP3   OH252685   1.908   1.193   5.306  0.4042  0.2731 -0.5738
 9497TIP3    H152686   1.956   1.111   5.295 -0.9802 -0.5445 -0.7229
 9497TIP3    H252687   1.837   1.188   5.242 -1.0766  0.5236  0.9693
 9498TIP3   OH252688   1.082   5.323   5.413 -0.1899 -0.4980 -0.3117
 9498TIP3    H152689   1.149   5.390   5.429 -0.6590  0.5437 -2.4016
 9498TIP3    H252690   1.002   5.372   5.397 -0.6118 -1.5510 -1.6196
 9499TIP3   OH252691   5.364   0.724   5.768 -0.1466 -0.4893  0.5975
 9499TIP3    H152692   5.428   0.793   5.753 -0.9878  0.0494 -0.6724
 9499TIP3    H252693   5.290   0.767   5.810 -0.2148 -0.8533  0.8614
 9500TIP3   OH252694   3.637   0.075   7.151 -0.0146 -0.3939  0.0778
 9500TIP3    H152695   3.732   0.065   7.150  0.1190  0.6837  0.8467
 9500TIP3    H252696   3.618   0.119   7.234 -1.1802 -0.5310 -0.0971
 9501TIP3   OH252697   4.352   3.628   6.785  0.1689  0.0328  0.7542
 9501TIP3    H152698   4.352   3.551   6.729 -1.5111  0.8782 -0.4936
 9501TIP3    H252699   4.318   3.598   6.869 -0.3591 -0.6043  0.3168
 9502TIP3   OH252700   0.080   0.770   8.978 -0.0008 -0.2760  0.1273
 9502TIP3    H152701  -0.011   0.792   8.997 -0.8942 -2.9259 -0.6769
 9502TIP3    H252702   0.125   0.776   9.062 -1.1302  0.1685  0.7112
 9503TIP3   OH252703   1.361   4.699   5.909  0.7508  0.2884  0.0754
 9503TIP3    H152704   1.409   4.778   5.934  1.1122 -0.5834  2.3107
 9503TIP3    H252705   1.328   4.663   5.991 -3.4984  0.6114 -1.2248
 9504TIP3   OH252706   1.052   3.239   7.978 -0.1194 -0.4164 -0.1384
 9504TIP3    H152707   1.016   3.234   8.066 -2.2868 -0.3967 -0.9611
 9504TIP3    H252708   1.099   3.156   7.966 -2.4733 -1.8428 -0.0264
 9505TIP3   OH252709   0.435   1.741   7.093 -0.1093 -0.5528  0.0540
 9505TIP3    H152710   0.412   1.741   7.186 -0.1833  1.5809  0.0780
 9505TIP3    H252711   0.356   1.709   7.049 -0.5559 -0.2472  0.6265
 9506TIP3   OH252712   3.921   5.096   7.463  0.1867 -0.5881 -0.2539
 9506TIP3    H152713   3.900   5.019   7.410 -0.2168 -0.1621 -0.7191
 9506TIP3    H252714   3.964   5.156   7.402  0.0659 -0.2515 -0.0059
 9507TIP3   OH252715   1.561   4.906   8.692 -0.0689  0.5437 -0.5058
 9507TIP3    H152716   1.522   4.931   8.775  0.6522 -0.6978  0.2422
 9507TIP3    H252717   1.495   4.852   8.648  0.3917 -0.7752  0.3436
 9508TIP3   OH252718   4.426   1.651   8.282 -0.0543  0.4299 -0.3203
 9508TIP3    H152719   4.456   1.703   8.356  0.6981  0.0777 -0.3726
 9508TIP3    H252720   4.406   1.565   8.319 -0.4994  0.5059 -0.3786
 9509TIP3   OH252721   2.227   3.695   7.944 -0.8016  0.2241  0.2652
 9509TIP3    H152722   2.199   3.785   7.924 -0.3388  0.0982 -0.9819
 9509TIP3    H252723   2.230   3.693   8.040 -2.2744  1.0815  0.3743
 9510TIP3   OH252724   0.591   1.256   8.523 -0.2055  0.1484 -0.3334
 9510TIP3    H152725   0.620   1.237   8.612  1.1041  0.9647 -0.5618
 9510TIP3    H252726   0.517   1.316   8.534  0.4697  0.9015  0.2007
 9511TIP3   OH252727   5.621   1.793   5.987 -0.1943 -0.2561  0.0765
 9511TIP3    H152728   5.712   1.762   5.988  0.6606  2.0452  0.6116
 9511TIP3    H252729   5.615   1.853   6.061 -1.7905  0.5962 -0.6821
 9512TIP3   OH252730   5.308   5.502   6.675  0.3425  0.0843 -0.9087
 9512TIP3    H152731   5.229   5.481   6.725  0.5120  1.1854 -0.1452
 9512TIP3    H252732   5.283   5.488   6.584 -0.6106  0.0548 -0.6508
 9513TIP3   OH252733   1.298   1.261   8.781 -0.7968  0.2008 -0.0391
 9513TIP3    H152734   1.372   1.246   8.840 -1.8607 -2.1970  0.7839
 9513TIP3    H252735   1.234   1.307   8.835 -0.7687  0.2954 -0.0869
 9514TIP3   OH252736   0.679   5.324   8.261  0.0534 -0.0298  0.5097
 9514TIP3    H152737   0.670   5.229   8.252 -0.9766  0.0320  0.6647
 9514TIP3    H252738   0.664   5.357   8.173 -1.2777  0.0667  0.7445
 9515TIP3   OH252739   1.104   4.841   6.162  0.7312  0.7882  0.2231
 9515TIP3    H152740   1.120   4.919   6.109  1.4404  0.4540 -0.0791
 9515TIP3    H252741   1.077   4.775   6.098  0.7625  0.6139  0.3894
 9516TIP3   OH252742   0.978   0.636   5.952 -0.4373  0.3882 -0.0049
 9516TIP3    H152743   0.970   0.572   5.881 -0.5674  2.2054 -1.7154
 9516TIP3    H252744   1.020   0.587   6.023 -0.8948 -1.6869 -1.0767
 9517TIP3   OH252745   4.176   3.084   7.661  0.0733 -0.4311  0.0013
 9517TIP3    H152746   4.140   3.149   7.601 -0.1328 -1.2143 -0.7512
 9517TIP3    H252747   4.099   3.036   7.693  0.2909 -0.8990 -0.1695
 9518TIP3   OH252748   3.121   4.209   5.251  0.0606  0.4533  0.4716
 9518TIP3    H152749   3.188   4.255   5.303  0.6343  0.9552 -0.6886
 9518TIP3    H252750   3.171   4.152   5.192 -0.5094  0.9582 -0.5225
 9519TIP3   OH252751   6.138   3.717   7.668  0.0628 -0.8340 -0.0205
 9519TIP3    H152752   6.043   3.703   7.669 -0.1852  0.4905  1.9161
 9519TIP3    H252753   6.169   3.674   7.748  0.6618  0.9799  0.7700
 9520TIP3   OH252754   0.861   3.155   7.096 -0.4134  0.0371  0.1972
 9520TIP3    H152755   0.766   3.165   7.094 -0.4973 -0.6025  0.6830
 9520TIP3    H252756   0.895   3.245   7.089 -1.0636  0.3541  0.9575
 9521TIP3   OH252757   0.299   6.104   6.685 -0.0941  0.4175  0.6321
 9521TIP3    H152758   0.265   6.015   6.689  0.9325  0.0367  1.3800
 9521TIP3    H252759   0.238   6.151   6.628 -2.1410 -0.0964  2.2485
 9522TIP3   OH252760   2.733   0.483   7.705  0.1643 -0.5680 -0.0578
 9522TIP3    H152761   2.708   0.485   7.613  0.0989 -0.5377 -0.0397
 9522TIP3    H252762   2.822   0.449   7.705 -0.1090 -1.2952 -0.0708
 9523TIP3   OH252763   1.306   0.367   5.754  0.5061  0.5123 -0.2254
 9523TIP3    H152764   1.384   0.312   5.749  0.1439 -0.0601  0.3098
 9523TIP3    H252765   1.337   0.455   5.734  1.1204  0.1415 -0.9702
 9524TIP3   OH252766   1.144   4.985   6.598 -0.0196 -0.1094  0.4173
 9524TIP3    H152767   1.058   5.014   6.567 -0.1389 -0.4354  0.4443
 9524TIP3    H252768   1.167   4.913   6.539  0.6437  0.5685 -0.1753
 9525TIP3   OH252769   1.290   0.347   6.801  0.0472 -0.2251  0.1147
 9525TIP3    H152770   1.386   0.340   6.809  0.1032 -1.9670 -1.4438
 9525TIP3    H252771   1.258   0.260   6.826 -1.0170 -0.0633 -0.6277
 9526TIP3   OH252772   5.187   2.872   7.806 -0.6432 -0.0416  0.0037
 9526TIP3    H152773   5.167   2.778   7.802  0.4818 -0.4409  2.2357
 9526TIP3    H252774   5.161   2.899   7.894 -1.1465  1.8162 -0.6685
 9527TIP3   OH252775   5.244   5.104   6.536  0.0853  0.3876  0.1981
 9527TIP3    H152776   5.169   5.044   6.526  0.4972 -0.0698 -0.1773
 9527TIP3    H252777   5.243   5.128   6.629 -1.0821  1.1266  0.0221
 9528TIP3   OH252778   3.173   0.721   7.572  0.1048 -0.3504  0.0288
 9528TIP3    H152779   3.218   0.658   7.516  1.4975  0.0775  0.6156
 9528TIP3    H252780   3.085   0.726   7.537  0.2337 -1.9254 -0.6046
 9529TIP3   OH252781   6.697   4.033   7.464  0.3097  0.0881  0.1754
 9529TIP3    H152782   6.653   3.950   7.482  0.8789 -0.1894  0.3044
 9529TIP3    H252783   6.755   4.046   7.539  1.0963  0.0030 -0.4010
 9530TIP3   OH252784   6.493   1.840   5.935  0.2983 -0.2452 -0.1258
 9530TIP3    H152785   6.506   1.904   6.005 -1.8185  0.3139 -0.1826
 9530TIP3    H252786   6.541   1.763   5.964  0.5272  0.4078  1.3317
 9531TIP3   OH252787   0.895   4.535   5.748 -0.0176 -0.0516 -0.9010
 9531TIP3    H152788   0.975   4.572   5.710  0.0543  0.0493 -0.6503
 9531TIP3    H252789   0.877   4.458   5.693  1.2239 -1.0973  0.0896
 9532TIP3   OH252790   4.924   5.567   7.013 -0.4083 -0.1620  0.1492
 9532TIP3    H152791   4.844   5.536   6.972 -0.8570  1.1189 -0.0139
 9532TIP3    H252792   4.926   5.525   7.099 -1.4460  0.0486  0.2906
 9533TIP3   OH252793   4.297   1.938   8.964 -0.0522  0.0936  0.3967
 9533TIP3    H152794   4.258   1.851   8.972 -1.3765  0.3922 -1.9778
 9533TIP3    H252795   4.338   1.938   8.877  2.4374  0.9332  1.4707
 9534TIP3   OH252796   6.012   4.996   7.434 -0.0301 -0.4228 -0.1852
 9534TIP3    H152797   6.039   4.904   7.443  0.8320 -0.1856 -0.3117
 9534TIP3    H252798   6.018   5.013   7.340  1.8390  0.3538  0.0283
 9535TIP3   OH252799   0.965   1.979   5.667  0.0502 -0.4767 -0.0374
 9535TIP3    H152800   0.997   1.918   5.733  0.1227 -0.8247 -0.3861
 9535TIP3    H252801   1.044   2.020   5.632 -0.0828  1.2197  1.4840
 9536TIP3   OH252802   4.466   4.796   5.097  0.2072  0.7387  0.2273
 9536TIP3    H152803   4.386   4.813   5.048 -1.1192 -1.1029  1.6066
 9536TIP3    H252804   4.490   4.706   5.074 -1.1180 -0.6633  3.5892
 9537TIP3   OH252805   5.423   4.646   7.564 -0.1747 -0.2986 -0.5590
 9537TIP3    H152806   5.507   4.673   7.600 -0.8039  2.6197 -1.0490
 9537TIP3    H252807   5.435   4.648   7.469 -0.6969 -0.2607 -0.6283
 9538TIP3   OH252808   1.716   3.920   7.044  0.1863 -0.5185 -0.5152
 9538TIP3    H152809   1.634   3.969   7.058 -0.6470 -1.3411 -2.2571
 9538TIP3    H252810   1.785   3.986   7.057 -0.7275  0.2171  0.8862
 9539TIP3   OH252811   4.436   1.357   6.797 -0.2042 -0.4082  0.4749
 9539TIP3    H152812   4.385   1.420   6.848 -0.2787 -0.2525  0.2106
 9539TIP3    H252813   4.455   1.402   6.714  1.3516 -0.0247  0.9990
 9540TIP3   OH252814   0.987   0.583   7.693 -0.3748 -0.2507 -1.1678
 9540TIP3    H152815   0.927   0.549   7.627  1.7283 -3.3177 -1.6626
 9540TIP3    H252816   1.042   0.646   7.646 -2.2211  1.5916 -1.0026
 9541TIP3   OH252817   2.386   5.987   6.105  0.3192 -0.5228  0.3922
 9541TIP3    H152818   2.459   5.925   6.100 -0.1576 -1.0320 -0.4537
 9541TIP3    H252819   2.417   6.065   6.058  0.2412 -0.8223 -0.1594
 9542TIP3   OH252820   2.364   4.850   7.514 -0.3520  0.0332  0.5249
 9542TIP3    H152821   2.454   4.880   7.527 -0.0131 -0.3699 -0.7520
 9542TIP3    H252822   2.310   4.924   7.542  0.4017  0.5726  0.5872
 9543TIP3   OH252823   2.359   3.450   8.345 -0.5930  0.0313  0.0429
 9543TIP3    H152824   2.421   3.386   8.382  0.4643  1.5559  1.0652
 9543TIP3    H252825   2.411   3.498   8.281 -0.9190  0.8396  0.3734
 9544TIP3   OH252826   2.876   4.761   6.980  0.5938  0.3028 -0.1331
 9544TIP3    H152827   2.837   4.784   6.896 -1.4114  1.8834  1.1479
 9544TIP3    H252828   2.927   4.838   7.005  1.1945 -0.1601  0.1102
 9545TIP3   OH252829   0.154   2.321   7.699 -0.3806 -0.2001  0.2246
 9545TIP3    H152830   0.119   2.243   7.742  0.0182  0.0467  1.0267
 9545TIP3    H252831   0.236   2.292   7.659 -1.0054 -0.5535 -0.8428
 9546TIP3   OH252832   0.154   4.776   6.422 -0.3231 -0.7900  0.1999
 9546TIP3    H152833   0.199   4.780   6.507 -0.4149  1.5625  0.2212
 9546TIP3    H252834   0.211   4.725   6.366  2.5729  2.1121  0.2037
 9547TIP3   OH252835   3.310   5.567   8.612  0.0399  0.1351  0.1250
 9547TIP3    H152836   3.305   5.653   8.569 -0.1859  0.6989  1.2399
 9547TIP3    H252837   3.221   5.551   8.643  0.3112 -0.0049  0.8414
 9548TIP3   OH252838   5.993   6.122   6.019 -0.6176  0.7647 -0.6917
 9548TIP3    H152839   5.915   6.066   6.018  0.0785 -0.2702 -2.7927
 9548TIP3    H252840   5.962   6.206   5.984 -0.6267  0.0271 -2.5604
 9549TIP3   OH252841   0.696   4.746   5.801 -0.2534 -0.0930  0.0748
 9549TIP3    H152842   0.677   4.733   5.708  0.6617 -0.4310 -0.0782
 9549TIP3    H252843   0.784   4.783   5.802 -0.3222  0.0574  0.8026
 9550TIP3   OH252844   6.412   1.110   6.888  0.3196  0.1635 -0.2408
 9550TIP3    H152845   6.334   1.081   6.936 -0.1430 -1.0540 -1.6717
 9550TIP3    H252846   6.484   1.062   6.930  0.1058  0.1506  0.1208
 9551TIP3   OH252847   5.240   5.513   5.303 -0.3080 -0.2483  0.2136
 9551TIP3    H152848   5.177   5.442   5.288 -0.6796  0.2185 -0.4562
 9551TIP3    H252849   5.186   5.591   5.315  0.1433  0.1672 -0.4205
 9552TIP3   OH252850   3.735   4.855   7.622 -0.0857 -0.3834 -0.2845
 9552TIP3    H152851   3.756   4.880   7.532  0.6542  1.3632  0.3249
 9552TIP3    H252852   3.643   4.828   7.619  0.3960 -2.0076 -1.8493
 9553TIP3   OH252853   1.438   1.578   5.648  0.2765  0.2235 -0.2791
 9553TIP3    H152854   1.360   1.542   5.607  0.1521  0.0169  0.1330
 9553TIP3    H252855   1.477   1.504   5.695  0.7312  0.3198 -0.5005
 9554TIP3   OH252856   4.869   5.872   7.500  0.3321  0.2911 -0.0772
 9554TIP3    H152857   4.891   5.797   7.555 -1.8612 -1.3719 -1.2642
 9554TIP3    H252858   4.831   5.936   7.559  1.1494 -0.0222  0.8011
 9555TIP3   OH252859   3.327   3.483   7.564 -0.0893 -0.4886  0.0662
 9555TIP3    H152860   3.291   3.566   7.597  0.9022  0.1005 -0.2924
 9555TIP3    H252861   3.373   3.446   7.640 -0.7857 -0.8698  0.3112
 9556TIP3   OH252862   6.247   2.550   7.777  0.3255  0.1498 -0.2524
 9556TIP3    H152863   6.326   2.507   7.809  1.3828  0.4808 -2.2418
 9556TIP3    H252864   6.213   2.489   7.711 -0.6892  0.3430  0.0861
 9557TIP3   OH252865   5.947   4.047   6.133 -0.1620 -0.4550  0.0158
 9557TIP3    H152866   5.912   4.007   6.212 -2.2978  0.2311 -0.5134
 9557TIP3    H252867   5.918   4.138   6.138  2.9506  0.6748  0.2658
 9558TIP3   OH252868   5.448   0.478   8.314 -0.1695 -0.0079  0.2705
 9558TIP3    H152869   5.443   0.421   8.238 -1.1001 -0.9413  0.9879
 9558TIP3    H252870   5.517   0.441   8.368 -0.6611 -0.3830  0.6581
 9559TIP3   OH252871   5.754   5.198   5.466 -0.0643 -0.7442  0.3594
 9559TIP3    H152872   5.723   5.288   5.480  1.2364 -0.3765  1.0408
 9559TIP3    H252873   5.698   5.145   5.522 -1.2357 -0.4459 -0.4954
 9560TIP3   OH252874   1.433   2.042   8.452 -0.6151  0.3674  0.3222
 9560TIP3    H152875   1.459   1.975   8.389 -1.4782  1.8364 -1.6851
 9560TIP3    H252876   1.338   2.051   8.441 -0.2842  3.4425 -1.1846
 9561TIP3   OH252877   2.400   2.175   5.792 -0.5532  0.0646 -0.0701
 9561TIP3    H152878   2.433   2.182   5.702 -0.0759 -1.4453 -0.0311
 9561TIP3    H252879   2.459   2.231   5.843 -0.1918  0.1179 -0.5374
 9562TIP3   OH252880   6.167   0.641   6.075 -0.5299  0.5965 -0.5386
 9562TIP3    H152881   6.098   0.584   6.107  0.1918 -0.5292 -0.9187
 9562TIP3    H252882   6.198   0.688   6.152  0.0610 -0.8418  0.1327
 9563TIP3   OH252883   4.207   4.984   7.373 -0.5764  0.3305  0.5109
 9563TIP3    H152884   4.182   5.056   7.315 -0.5854 -0.1074 -0.0388
 9563TIP3    H252885   4.225   4.911   7.314 -0.1847 -0.0054  1.0403
 9564TIP3   OH252886   6.291   0.780   6.784 -0.4771  0.0864  0.3069
 9564TIP3    H152887   6.336   0.712   6.733  0.2910  0.7943  0.0275
 9564TIP3    H252888   6.359   0.815   6.842 -0.9223  0.4683  0.6046
 9565TIP3   OH252889   6.514   1.691   8.199 -0.2263 -0.6197  0.3792
 9565TIP3    H152890   6.527   1.624   8.267  0.4980 -2.3568 -1.3993
 9565TIP3    H252891   6.602   1.720   8.177 -0.3035 -1.3373 -0.9941
 9566TIP3   OH252892   4.763   3.542   7.893 -0.1009  0.4643  0.1852
 9566TIP3    H152893   4.772   3.605   7.822  0.9712 -0.3570 -0.4563
 9566TIP3    H252894   4.712   3.587   7.959  1.3810  2.3478  0.1359
 9567TIP3   OH252895   0.024   4.531   7.674 -0.0855  0.0265 -0.1180
 9567TIP3    H152896   0.058   4.602   7.728 -0.3923  0.0926 -0.0086
 9567TIP3    H252897  -0.057   4.504   7.718 -0.6538  0.4692 -0.8548
 9568TIP3   OH252898   2.910   0.681   7.525  0.6052  0.3396 -0.5438
 9568TIP3    H152899   2.857   0.662   7.448 -1.5610 -0.5884  1.0779
 9568TIP3    H252900   2.947   0.597   7.550  0.5142  0.4515 -0.0266
 9569TIP3   OH252901   4.056   2.396   6.883 -0.3702  0.0476  0.1440
 9569TIP3    H152902   4.143   2.356   6.885 -0.8455 -1.0136  0.9899
 9569TIP3    H252903   4.054   2.454   6.959 -0.7151 -0.6622  0.6883
 9570TIP3   OH252904   5.865   5.923   5.560 -0.6203 -0.0816  0.3929
 9570TIP3    H152905   5.929   5.933   5.630  0.2061 -0.4589 -0.2949
 9570TIP3    H252906   5.783   5.955   5.598  0.3793  2.4641  0.6230
 9571TIP3   OH252907   3.580   5.810   5.767  0.1204 -0.1974  0.1679
 9571TIP3    H152908   3.535   5.824   5.684  1.6900 -0.0117 -0.6881
 9571TIP3    H252909   3.618   5.896   5.788 -1.0309  0.0076  1.5831
 9572TIP3   OH252910   5.478   3.791   6.934 -0.4967  0.2412 -0.3725
 9572TIP3    H152911   5.522   3.707   6.934  0.2066  0.5082  2.6110
 9572TIP3    H252912   5.418   3.788   7.009  0.4916  2.7826  0.6572
 9573TIP3   OH252913   3.102   0.089   6.036  0.0669  0.3980  0.6488
 9573TIP3    H152914   3.155   0.016   6.003  0.4689  0.9772 -0.0006
 9573TIP3    H252915   3.031   0.046   6.084  0.9706 -0.4003  1.3296
 9574TIP3   OH252916   3.014   1.439   6.382 -0.1963  0.0463  0.2181
 9574TIP3    H152917   2.920   1.421   6.385 -0.2909  0.6672  1.7595
 9574TIP3    H252918   3.048   1.408   6.466  0.3340  2.9821  1.2196
 9575TIP3   OH252919   1.175   3.746   7.656 -0.0863  0.2753 -0.0991
 9575TIP3    H152920   1.189   3.766   7.564  1.2333  1.1945  0.2773
 9575TIP3    H252921   1.092   3.788   7.677 -0.5486 -0.1923 -0.9328
 9576TIP3   OH252922   1.683   4.128   5.709 -0.7021  0.1749 -0.2262
 9576TIP3    H152923   1.773   4.108   5.684 -0.1171  0.4428  1.5845
 9576TIP3    H252924   1.688   4.159   5.799 -2.5196  0.9658 -0.3408
 9577TIP3   OH252925   4.288   3.862   8.513  0.4364 -0.4535  0.9693
 9577TIP3    H152926   4.224   3.845   8.583 -1.3135  0.5420 -0.2870
 9577TIP3    H252927   4.273   3.792   8.450 -1.8421  1.5162 -0.8795
 9578TIP3   OH252928   4.002   5.246   5.940 -0.8272 -0.8198  0.3640
 9578TIP3    H152929   3.944   5.201   6.001 -0.7560  0.0368  1.0771
 9578TIP3    H252930   3.950   5.319   5.906 -0.4360 -0.5270  0.3873
 9579TIP3   OH252931   5.316   1.884   8.261 -0.0336 -0.4517 -0.2117
 9579TIP3    H152932   5.258   1.838   8.200  1.1246 -0.3247 -1.4466
 9579TIP3    H252933   5.371   1.938   8.205 -0.0021  0.9147  1.0687
 9580TIP3   OH252934   3.686   6.195   7.697 -0.2143  0.5034  0.0210
 9580TIP3    H152935   3.769   6.150   7.715 -1.3434 -1.8231 -0.1449
 9580TIP3    H252936   3.677   6.189   7.602 -0.4898  0.9449  0.0179
 9581TIP3   OH252937   2.652   5.891   7.019  0.1251  0.3872  0.1144
 9581TIP3    H152938   2.628   5.842   7.098 -0.1927 -0.8219 -0.7100
 9581TIP3    H252939   2.720   5.839   6.978 -0.3158  0.5538 -0.8556
 9582TIP3   OH252940   4.047   1.089   6.316 -0.1195 -0.3264 -0.1208
 9582TIP3    H152941   4.031   1.097   6.222 -1.2938  1.4567  0.1832
 9582TIP3    H252942   4.140   1.064   6.322  0.1195  0.0471 -1.7418
 9583TIP3   OH252943   5.124   4.481   6.183  0.1066 -0.5522  0.7872
 9583TIP3    H152944   5.124   4.391   6.149  0.0939  0.1854 -1.2925
 9583TIP3    H252945   5.084   4.533   6.113  0.1375  1.0935  1.9378
 9584TIP3   OH252946   5.194   6.642   6.144 -0.3372  0.1393  1.0443
 9584TIP3    H152947   5.179   6.708   6.077 -0.8688 -1.6174 -0.6501
 9584TIP3    H252948   5.283   6.610   6.128 -0.0213  0.5269  1.9525
 9585TIP3   OH252949   6.421   3.109   7.874  0.0838 -0.3417  0.2256
 9585TIP3    H152950   6.352   3.127   7.810  0.9218 -0.7284 -0.8233
 9585TIP3    H252951   6.432   3.014   7.870 -0.9969 -0.5928  2.1960
 9586TIP3   OH252952   0.557   1.110   7.669  0.0677 -0.1368  0.0745
 9586TIP3    H152953   0.567   1.019   7.697 -0.0713  0.0364  0.6997
 9586TIP3    H252954   0.550   1.105   7.574 -0.4805 -0.8328  0.1406
 9587TIP3   OH252955   3.123   2.868   6.348 -0.4655  0.4637  0.2327
 9587TIP3    H152956   3.161   2.926   6.414  0.7359  0.7171 -0.6430
 9587TIP3    H252957   3.188   2.799   6.337 -1.0229 -0.0134 -0.1021
 9588TIP3   OH252958   3.082   5.395   8.595  0.1636  0.0601 -0.6873
 9588TIP3    H152959   3.024   5.324   8.567  0.7839 -0.4639 -0.6739
 9588TIP3    H252960   3.144   5.353   8.653  1.1517  0.4219 -1.4586
 9589TIP3   OH252961   5.358   5.088   5.520 -0.5199 -0.2234  0.2338
 9589TIP3    H152962   5.340   5.180   5.499  0.0737 -0.1232  0.1429
 9589TIP3    H252963   5.272   5.050   5.539 -0.6575  0.6256  1.4022
 9590TIP3   OH252964   5.057   2.030   6.086 -0.1608 -0.2761 -0.2069
 9590TIP3    H152965   5.075   1.936   6.086  0.1658 -0.2154 -0.1439
 9590TIP3    H252966   5.142   2.070   6.104 -0.7481 -0.0829  2.6015
 9591TIP3   OH252967   4.352   4.825   7.153 -0.0739 -0.1572 -0.1150
 9591TIP3    H152968   4.381   4.746   7.107 -1.9055 -0.9771  0.0591
 9591TIP3    H252969   4.411   4.831   7.229  1.2688 -0.2724 -1.1150
 9592TIP3   OH252970   4.002   3.888   8.560 -0.5564 -0.3162 -0.7463
 9592TIP3    H152971   3.975   3.896   8.651  1.3387 -1.1549 -0.0494
 9592TIP3    H252972   4.023   3.978   8.533  0.0602 -0.2091  0.0628
 9593TIP3   OH252973   3.223   0.618   8.653  0.1692  0.5321 -0.5798
 9593TIP3    H152974   3.173   0.536   8.647  0.9192  0.1436 -1.7164
 9593TIP3    H252975   3.313   0.591   8.669  0.2169  1.2018  0.4128
 9594TIP3   OH252976   5.586   1.816   7.167 -0.0937 -0.2158 -0.0538
 9594TIP3    H152977   5.495   1.799   7.191 -0.8964 -0.0783 -2.6309
 9594TIP3    H252978   5.590   1.794   7.073  2.2807  0.7380 -0.2449
 9595TIP3   OH252979   2.557   2.903   6.809  0.4914  0.6058 -0.4149
 9595TIP3    H152980   2.632   2.848   6.788 -0.1389  0.0016 -1.1509
 9595TIP3    H252981   2.560   2.914   6.904  0.4279 -1.0195 -0.1974
 9596TIP3   OH252982   0.379   3.203   8.419 -0.4934  0.0350 -0.1200
 9596TIP3    H152983   0.299   3.226   8.373 -0.0208  1.1911 -0.4038
 9596TIP3    H252984   0.388   3.269   8.488  1.6937  1.8090 -1.9150
 9597TIP3   OH252985   6.594   0.144   6.006  0.4688  0.5176 -0.0047
 9597TIP3    H152986   6.614   0.195   6.084  0.1385 -0.3362  0.6540
 9597TIP3    H252987   6.505   0.111   6.021  0.0780  1.0225 -1.1163
 9598TIP3   OH252988   1.555   3.864   7.406 -0.6137  0.7508 -0.0332
 9598TIP3    H152989   1.545   3.959   7.413  0.0124  0.8880 -0.8909
 9598TIP3    H252990   1.493   3.838   7.338 -3.2166  0.0567  2.3961
 9599TIP3   OH252991   5.232   4.775   5.349  0.2426  0.2474  0.0587
 9599TIP3    H152992   5.276   4.690   5.346  0.5733  0.4044  0.3907
 9599TIP3    H252993   5.204   4.784   5.440 -0.1052  0.3419 -0.0528
 9600TIP3   OH252994   5.713   5.232   7.395 -0.2999 -0.1386  0.1685
 9600TIP3    H152995   5.787   5.234   7.456 -1.1027  0.3492  1.1611
 9600TIP3    H252996   5.752   5.210   7.310  1.3194  2.4064  0.1663
 9601TIP3   OH252997   3.560   3.368   6.760 -0.4125  0.2587  0.3232
 9601TIP3    H152998   3.467   3.352   6.779 -0.2490  0.0118  0.9457
 9601TIP3    H252999   3.583   3.300   6.697 -0.6018  0.1866  0.3295
 9602TIP3   OH253000   1.833   3.389   7.955  0.1686 -0.6569  0.2701
 9602TIP3    H153001   1.817   3.420   8.044 -0.5908 -1.0491  0.2797
 9602TIP3    H253002   1.748   3.358   7.925  0.6835 -1.7333 -0.1307
 9603TIP3   OH253003   4.702   1.297   6.019 -0.4020 -0.1817 -0.5110
 9603TIP3    H153004   4.690   1.388   6.046 -0.4230 -0.1701 -0.5588
 9603TIP3    H253005   4.620   1.254   6.042 -0.0146 -0.4251  0.4626
 9604TIP3   OH253006   3.403   1.096   6.103 -0.0032 -0.3591 -0.2570
 9604TIP3    H153007   3.435   1.182   6.129 -0.1104 -1.2552  3.3021
 9604TIP3    H253008   3.309   1.100   6.119  0.3187 -1.8456  2.6068
 9605TIP3   OH253009   0.497   3.224   7.229  0.2485  0.0995  0.5662
 9605TIP3    H153010   0.462   3.152   7.283 -0.1031  0.8193  1.3148
 9605TIP3    H253011   0.547   3.278   7.290  1.4396 -0.0853 -0.2086
 9606TIP3   OH253012   3.531   2.804   8.199  0.1954  0.3943  0.1205
 9606TIP3    H153013   3.508   2.733   8.259 -1.0796 -0.2736 -1.1037
 9606TIP3    H253014   3.623   2.789   8.178 -0.1252 -1.1275 -0.3621
 9607TIP3   OH253015   1.126   1.026   6.453  0.4572  0.2280 -0.5448
 9607TIP3    H153016   1.080   1.019   6.537  1.4961  1.9389  0.2349
 9607TIP3    H253017   1.083   0.963   6.396 -0.5882 -0.6516  1.1421
 9608TIP3   OH253018   6.007   6.271   7.333  0.4094  0.7743  0.3451
 9608TIP3    H153019   5.971   6.327   7.401 -0.8727  0.4257 -0.0078
 9608TIP3    H253020   5.958   6.190   7.340  0.2207  0.7390 -0.9969
 9609TIP3   OH253021   3.961   5.302   4.893 -0.0226 -0.2781 -0.4637
 9609TIP3    H153022   3.996   5.391   4.891  0.4633 -0.4666 -0.4543
 9609TIP3    H253023   3.872   5.311   4.859 -0.1192  0.2729 -0.0882
 9610TIP3   OH253024   5.070   2.952   7.560 -0.5459  0.5733 -0.4423
 9610TIP3    H153025   5.017   3.025   7.592 -0.6646  0.0715  0.5597
 9610TIP3    H253026   5.116   2.920   7.638 -1.6730 -1.3911 -0.5146
 9611TIP3   OH253027   6.150   2.275   7.921 -0.0678 -0.8424  0.2326
 9611TIP3    H153028   6.222   2.338   7.919  0.5132 -1.5019 -0.2273
 9611TIP3    H253029   6.103   2.295   8.002  0.4313 -0.1797  0.3680
 9612TIP3   OH253030   6.024   0.399   7.740 -0.1302  0.0216  0.4522
 9612TIP3    H153031   5.971   0.427   7.665  1.9063  0.7371 -0.7870
 9612TIP3    H253032   6.089   0.468   7.751  2.1931 -2.0035  0.2259
 9613TIP3   OH253033   6.484   4.964   7.465 -0.2799  0.1848  0.4644
 9613TIP3    H153034   6.469   5.047   7.510  2.0934  1.8344 -1.4940
 9613TIP3    H253035   6.520   4.989   7.380 -0.7759 -2.8554 -0.7851
 9614TIP3   OH253036   0.223   4.708   9.321 -0.8139 -0.1759  0.2720
 9614TIP3    H153037   0.227   4.627   9.372 -0.8004 -1.0038 -0.9781
 9614TIP3    H253038   0.133   4.737   9.328 -0.3018  1.0949  2.7241
 9615TIP3   OH253039   4.424   4.261   8.205  0.3725 -0.1878 -0.5170
 9615TIP3    H153040   4.472   4.324   8.151  0.3733 -1.3368 -1.9091
 9615TIP3    H253041   4.493   4.214   8.252  0.3476  1.2065  1.0085
 9616TIP3   OH253042   1.257   1.494   8.249 -0.0625  0.5917  0.2802
 9616TIP3    H153043   1.164   1.473   8.256  0.1673 -0.0959  1.5202
 9616TIP3    H253044   1.296   1.459   8.329  1.7550 -1.8054 -1.4798
 9617TIP3   OH253045   6.134   1.090   8.154 -0.2442 -0.8274 -0.1621
 9617TIP3    H153046   6.209   1.036   8.132  0.8277 -0.9556  3.2220
 9617TIP3    H253047   6.160   1.135   8.234 -2.1991  2.4954 -1.1940
 9618TIP3   OH253048   3.649   1.162   6.578 -0.5011 -0.1094  0.2275
 9618TIP3    H153049   3.742   1.136   6.580 -0.7676 -1.0549  1.2472
 9618TIP3    H253050   3.650   1.255   6.601  0.2477  0.1110 -0.5962
 9619TIP3   OH253051   1.936   5.611   6.055 -0.0753  0.1576  0.7930
 9619TIP3    H153052   1.972   5.658   5.980  1.7959 -1.6204  0.4935
 9619TIP3    H253053   1.857   5.660   6.078  0.2560  1.7759 -1.2108
 9620TIP3   OH253054   2.210   4.186   5.911 -0.3229 -0.0172 -0.2844
 9620TIP3    H153055   2.284   4.243   5.890 -1.2509  1.2727 -0.1313
 9620TIP3    H253056   2.231   4.151   5.998 -0.5124  1.4384  0.3813
 9621TIP3   OH253057   5.615   5.136   5.891 -0.3156  0.0097 -0.1663
 9621TIP3    H153058   5.535   5.188   5.892 -0.9103 -0.7662 -2.4014
 9621TIP3    H253059   5.620   5.101   5.802  1.2547 -1.8930  0.5956
 9622TIP3   OH253060   6.588   6.442   7.127 -0.2720 -0.2661 -0.4584
 9622TIP3    H153061   6.550   6.527   7.108 -0.4633  0.0181  1.0616
 9622TIP3    H253062   6.659   6.461   7.190 -1.4772 -1.3627  1.3183
 9623TIP3   OH253063   4.059   6.698   8.398 -0.4810 -0.5973  0.2992
 9623TIP3    H153064   4.062   6.625   8.460  1.6150 -0.7924  0.0383
 9623TIP3    H253065   4.017   6.769   8.447  0.9544 -0.8038  1.9493
 9624TIP3   OH253066   3.402   3.568   8.029  0.1094 -0.1976  0.0802
 9624TIP3    H153067   3.406   3.538   7.938  0.1871 -0.0726  0.0425
 9624TIP3    H253068   3.390   3.663   8.022 -0.0637 -0.2110  0.1998
 9625TIP3   OH253069   1.443   2.455   7.266  0.0587 -0.1136  0.7399
 9625TIP3    H153070   1.386   2.496   7.331 -2.3944  0.7694 -1.7628
 9625TIP3    H253071   1.390   2.385   7.229  0.6130  0.6130 -1.5613
 9626TIP3   OH253072   2.916   4.780   6.319  0.3641  0.2925 -0.6863
 9626TIP3    H153073   2.918   4.837   6.242  0.1467  2.1291  0.5992
 9626TIP3    H253074   3.005   4.744   6.325  0.6568  0.9168 -1.2246
 9627TIP3   OH253075   2.121   1.130   8.014  0.1559  0.3396 -0.2517
 9627TIP3    H153076   2.028   1.108   8.008  0.4136 -0.8982  0.0681
 9627TIP3    H253077   2.162   1.053   8.054  1.1853  1.2340  0.4709
 9628TIP3   OH253078   5.778   0.957   7.101  0.2539 -0.5051 -0.6715
 9628TIP3    H153079   5.722   0.978   7.175  0.6199 -0.4814 -0.4016
 9628TIP3    H253080   5.756   1.022   7.035  1.1808  0.5702  0.0517
 9629TIP3   OH253081   1.852   6.541   6.594  0.1642  0.5730 -0.2916
 9629TIP3    H153082   1.900   6.620   6.617  0.4043  0.3549 -0.0433
 9629TIP3    H253083   1.868   6.481   6.666  0.0289  0.2740 -0.5071
 9630TIP3   OH253084   1.543   1.326   6.660 -0.0560 -0.6315 -0.3300
 9630TIP3    H153085   1.534   1.263   6.589  1.4706 -0.9871 -0.2322
 9630TIP3    H253086   1.585   1.402   6.619  0.9456 -0.8872  0.2039
 9631TIP3   OH253087   5.846   6.462   6.697  0.4207  0.1049 -0.2527
 9631TIP3    H153088   5.850   6.373   6.732  2.2947  0.0281 -0.5473
 9631TIP3    H253089   5.937   6.487   6.684 -0.1141  0.9422 -3.0562
 9632TIP3   OH253090   0.840   0.954   8.767  0.0085  0.0028 -0.2883
 9632TIP3    H153091   0.764   1.012   8.764  0.0522  0.0453 -0.5326
 9632TIP3    H253092   0.813   0.883   8.826  0.1620  0.5668  0.4827
 9633TIP3   OH253093   4.963   4.726   5.280  0.2819  0.3561 -0.5353
 9633TIP3    H153094   5.050   4.757   5.303 -0.5170  1.0593  1.8279
 9633TIP3    H253095   4.971   4.631   5.277  1.2489  0.4410 -1.0415
 9634TIP3   OH253096   4.132   4.704   6.793 -0.4572  0.0126 -0.1827
 9634TIP3    H153097   4.042   4.690   6.763 -0.0131  0.7268 -1.9792
 9634TIP3    H253098   4.174   4.619   6.781 -0.4340  0.1450 -1.1138
 9635TIP3   OH253099   3.714   2.309   6.207 -0.1124 -0.2817  0.3497
 9635TIP3    H153100   3.658   2.372   6.161 -1.3698 -1.7713 -0.2238
 9635TIP3    H253101   3.656   2.269   6.272  0.6917 -0.7800  0.7698
 9636TIP3   OH253102   6.208   4.260   6.270 -0.5139  0.2485  0.1254
 9636TIP3    H153103   6.127   4.269   6.319 -2.0448 -0.2273 -2.1575
 9636TIP3    H253104   6.222   4.166   6.261 -0.5462  0.3157 -0.7447
 9637TIP3   OH253105   3.251   2.127   6.612 -0.0990 -0.2373 -0.4238
 9637TIP3    H153106   3.203   2.100   6.534  2.8694 -2.4527 -1.6813
 9637TIP3    H253107   3.271   2.219   6.598 -1.5942  0.0132 -1.1164
 9638TIP3   OH253108   1.364   3.579   6.774 -0.2744  0.3546 -0.7893
 9638TIP3    H153109   1.306   3.541   6.708 -0.5312 -0.2615 -0.2231
 9638TIP3    H253110   1.446   3.595   6.727 -0.0048 -1.3367 -0.9686
 9639TIP3   OH253111   0.709   4.701   7.727  0.3529 -0.0834  0.6351
 9639TIP3    H153112   0.624   4.656   7.729 -0.4526  1.4064  0.7880
 9639TIP3    H253113   0.731   4.707   7.635 -0.7080  1.3033  0.4402
 9640TIP3   OH253114   2.595   5.324   7.706 -0.4309 -0.0248 -0.0483
 9640TIP3    H153115   2.519   5.343   7.650  0.8914  0.9345 -1.6215
 9640TIP3    H253116   2.567   5.350   7.794 -1.8313  0.5468 -0.6308
 9641TIP3   OH253117   4.572   6.163   6.613  0.3914 -0.3271  0.5641
 9641TIP3    H153118   4.531   6.181   6.528  1.2821 -1.2745 -0.1045
 9641TIP3    H253119   4.564   6.068   6.623  0.8555 -0.2984  1.2428
 9642TIP3   OH253120   5.154   5.232   7.321 -0.0999  0.0600  0.0002
 9642TIP3    H153121   5.244   5.206   7.300  0.3087  1.4221 -0.0366
 9642TIP3    H253122   5.114   5.154   7.358  0.3784 -1.2750 -2.1250
 9643TIP3   OH253123   2.842   2.146   6.445 -0.1840 -0.2667 -0.5629
 9643TIP3    H153124   2.821   2.053   6.451 -0.4489 -0.3042 -1.8894
 9643TIP3    H253125   2.831   2.168   6.353 -0.2811  1.1254 -0.2487
 9644TIP3   OH253126   4.559   5.465   7.506  0.1825 -0.3523  0.2335
 9644TIP3    H153127   4.540   5.480   7.414  0.0936 -0.5217  0.2246
 9644TIP3    H253128   4.645   5.424   7.507  0.0372 -0.6545  0.2084
 9645TIP3   OH253129   0.122   4.129   6.951  0.6324  0.3497 -0.3092
 9645TIP3    H153130   0.162   4.122   7.038 -0.5968 -1.5154  0.1652
 9645TIP3    H253131   0.058   4.199   6.960 -1.8892 -1.9473  1.4104
 9646TIP3   OH253132   1.902   1.319   6.553 -0.1840 -0.5544 -1.0470
 9646TIP3    H153133   1.984   1.361   6.528  0.1529 -1.1075 -0.9017
 9646TIP3    H253134   1.846   1.390   6.583  1.1744 -0.3999  1.4147
 9647TIP3   OH253135   1.853   4.311   8.061 -0.2444  0.3918  0.3021
 9647TIP3    H153136   1.827   4.279   8.147  0.1561 -1.0673 -0.0934
 9647TIP3    H253137   1.846   4.407   8.068 -1.5187  0.2386  1.5137
 9648TIP3   OH253138   2.293   2.893   8.131  0.4155 -0.3040  0.2492
 9648TIP3    H153139   2.260   2.829   8.069  0.3587  0.5786 -0.6487
 9648TIP3    H253140   2.384   2.907   8.106  0.6114 -0.4855  0.8309
 9649TIP3   OH253141   5.561   3.069   7.113 -0.3576 -0.2467  0.3019
 9649TIP3    H153142   5.629   3.129   7.081 -0.7095  0.4551  0.8192
 9649TIP3    H253143   5.608   2.989   7.136 -0.1248 -0.8487 -2.0765
 9650TIP3   OH253144   6.172   0.979   8.617 -0.6308  0.4079  0.3143
 9650TIP3    H153145   6.237   0.995   8.685 -0.5516 -0.4867  0.4507
 9650TIP3    H253146   6.196   0.895   8.579  0.9029  1.9735 -2.6104
 9651TIP3   OH253147   5.972   0.290   5.820  0.4579 -0.2787 -0.0550
 9651TIP3    H153148   5.958   0.197   5.836  0.4020 -0.3385 -0.4337
 9651TIP3    H253149   6.060   0.307   5.854  0.6754 -0.5876 -0.4455
 9652TIP3   OH253150   0.009   6.025   6.119 -0.7152 -0.0100 -0.1129
 9652TIP3    H153151   0.100   6.034   6.089 -0.8907  1.2573 -0.3463
 9652TIP3    H253152   0.015   6.014   6.214 -0.2844 -0.9168 -0.2380
 9653TIP3   OH253153   5.559   4.076   7.824  0.5090 -0.4081  0.1218
 9653TIP3    H153154   5.567   3.985   7.854  1.0126 -0.7108 -0.8801
 9653TIP3    H253155   5.634   4.120   7.863 -0.1191 -0.2459  1.1795
 9654TIP3   OH253156   3.335   1.375   6.261  0.0614  0.5547  0.3952
 9654TIP3    H153157   3.376   1.331   6.335  1.7428  1.2530 -0.0807
 9654TIP3    H253158   3.241   1.360   6.273  0.3443  0.1143  2.2889
 9655TIP3   OH253159   1.428   6.470   5.532 -0.4374 -0.3944  0.5365
 9655TIP3    H153160   1.420   6.410   5.605 -0.7388 -0.2177  0.6510
 9655TIP3    H253161   1.346   6.520   5.532  0.3929  1.0338  1.3563
 9656TIP3   OH253162   3.869   5.917   7.179 -0.6571 -0.6824 -0.4477
 9656TIP3    H153163   3.784   5.895   7.217 -0.3652 -0.2557  0.4977
 9656TIP3    H253164   3.886   5.848   7.115 -2.1445 -0.2553 -1.3456
 9657TIP3   OH253165   6.204   1.461   6.797  0.0123  0.6135 -0.0542
 9657TIP3    H153166   6.201   1.394   6.729  1.1623  1.4593 -0.9874
 9657TIP3    H253167   6.275   1.434   6.854 -0.4329  0.3166  0.3603
 9658TIP3   OH253168   2.573   6.140   8.528 -0.1141 -0.2247  0.0752
 9658TIP3    H153169   2.564   6.083   8.452  1.6827  0.3379 -0.6212
 9658TIP3    H253170   2.637   6.096   8.584 -0.1877  0.1571  0.4667
 9659TIP3   OH253171   5.574   0.138   5.993 -0.1874 -0.1880 -0.1736
 9659TIP3    H153172   5.538   0.054   6.021 -2.0903  0.6452  0.0497
 9659TIP3    H253173   5.501   0.200   6.005  1.7136  1.8744  1.5167
 9660TIP3   OH253174   6.454   4.194   7.194  0.4042  0.4018 -0.7863
 9660TIP3    H153175   6.535   4.245   7.190 -0.0934  1.1349 -2.5156
 9660TIP3    H253176   6.392   4.251   7.240 -0.3712  1.7795 -3.3776
 9661TIP3   OH253177   2.918   4.480   8.961  0.5838 -0.4167  0.0868
 9661TIP3    H153178   2.896   4.453   8.871 -0.8471  0.9452 -0.0121
 9661TIP3    H253179   2.887   4.408   9.015  0.3285 -0.7137 -0.4391
 9662TIP3   OH253180   4.714   3.379   7.672  0.5916 -0.0062  0.1335
 9662TIP3    H153181   4.686   3.433   7.598  0.9234  0.3743  0.2865
 9662TIP3    H253182   4.703   3.435   7.748 -3.3021 -1.4962  0.9165
 9663TIP3   OH253183   4.683   2.006   7.823  0.4704  0.1711 -0.4508
 9663TIP3    H153184   4.774   1.981   7.839  0.0015 -0.5102  1.3820
 9663TIP3    H253185   4.688   2.073   7.754  2.2668 -0.4957 -1.0191
 9664TIP3   OH253186   1.580   0.186   7.916 -0.0717  0.2936  0.9240
 9664TIP3    H153187   1.663   0.210   7.876  0.0237 -1.6588 -0.2156
 9664TIP3    H253188   1.600   0.107   7.967 -1.7575 -2.5398 -2.3584
 9665TIP3   OH253189   6.065   6.275   7.912 -0.1131 -0.2988  0.0056
 9665TIP3    H153190   6.005   6.223   7.965 -1.2774  1.1547  0.1815
 9665TIP3    H253191   6.036   6.262   7.822  0.1188 -0.5897 -0.0292
 9666TIP3   OH253192   1.659   0.569   7.248 -0.0203 -0.6564  0.0920
 9666TIP3    H153193   1.672   0.490   7.195 -1.8832 -1.4244  0.6913
 9666TIP3    H253194   1.570   0.561   7.281 -0.2539  1.7251  0.1876
 9667TIP3   OH253195   6.534   1.134   7.772  0.0747 -0.3850 -0.4897
 9667TIP3    H153196   6.611   1.133   7.715  0.1702  2.2376 -0.5290
 9667TIP3    H253197   6.570   1.138   7.861 -0.0378 -0.7847 -0.4258
 9668TIP3   OH253198   0.808   1.032   7.538  0.1277  0.1790  0.2767
 9668TIP3    H153199   0.899   1.062   7.525  0.5248 -1.3601 -0.6646
 9668TIP3    H253200   0.816   0.956   7.595 -0.4882 -0.4996 -0.5320
 9669TIP3   OH253201   5.781   2.680   8.186 -0.1635 -0.3801  0.7023
 9669TIP3    H153202   5.870   2.645   8.194  0.2553  0.6357  0.5742
 9669TIP3    H253203   5.727   2.603   8.168  1.0109 -0.7531 -1.6038
 9670TIP3   OH253204   5.931   2.649   8.516  0.0906  0.7066 -0.3636
 9670TIP3    H153205   5.988   2.674   8.443 -0.2404  0.4658 -0.7067
 9670TIP3    H253206   5.955   2.709   8.586  1.8057 -0.3426 -0.0088
 9671TIP3   OH253207   1.348   2.745   9.282  0.2012  0.3749 -0.1596
 9671TIP3    H153208   1.306   2.681   9.224  0.2067  1.5109 -1.4685
 9671TIP3    H253209   1.278   2.808   9.302  0.8267  1.3284 -0.9346
 9672TIP3   OH253210   2.459   4.462   6.081  0.5051 -0.2435  0.0019
 9672TIP3    H153211   2.504   4.543   6.055  2.0386 -0.8310  0.6998
 9672TIP3    H253212   2.372   4.491   6.109  0.9451  1.1362  0.0083
 9673TIP3   OH253213   1.302   4.326   8.439 -0.2946 -0.1506  0.2013
 9673TIP3    H153214   1.289   4.243   8.393  0.8336 -0.1079 -0.2244
 9673TIP3    H253215   1.397   4.332   8.451 -0.5300 -0.2396  2.6987
 9674TIP3   OH253216   6.053   3.754   6.365 -0.1874 -0.2199  0.3924
 9674TIP3    H153217   6.006   3.696   6.426 -1.2546  0.3748  0.1615
 9674TIP3    H253218   5.985   3.786   6.306  0.7911 -0.5888 -0.9727
 9675TIP3   OH253219   0.468   0.214   9.118  0.4211 -0.4161  0.1863
 9675TIP3    H153220   0.487   0.281   9.184 -0.9946 -0.8926  1.1310
 9675TIP3    H253221   0.502   0.133   9.155  0.4815 -0.5253 -0.1050
 9676TIP3   OH253222   1.435   3.182   6.057 -1.0224 -0.3496 -0.3485
 9676TIP3    H153223   1.382   3.197   6.135 -1.3713 -1.2436 -0.4031
 9676TIP3    H253224   1.491   3.259   6.050 -1.0925 -0.2015  0.6997
 9677TIP3   OH253225   1.732   1.214   5.548 -0.3755 -0.3062  0.3336
 9677TIP3    H153226   1.741   1.134   5.600  0.6009 -0.8807 -0.6740
 9677TIP3    H253227   1.780   1.196   5.467  0.1614  1.4233  0.2224
 9678TIP3   OH253228   6.296   3.326   6.539 -0.0934 -0.4606 -0.2395
 9678TIP3    H153229   6.240   3.372   6.602  0.0721 -0.9511  0.2713
 9678TIP3    H253230   6.359   3.279   6.593 -0.4090 -1.4921 -0.7328
 9679TIP3   OH253231   3.212   5.609   6.952 -0.2565 -0.2774  0.3846
 9679TIP3    H153232   3.249   5.666   6.885 -1.7478  1.1203  0.6657
 9679TIP3    H253233   3.151   5.552   6.904  0.7828 -1.2570  0.1896
 9680TIP3   OH253234   2.860   1.792   8.119  0.3433  0.1704 -0.0117
 9680TIP3    H153235   2.834   1.873   8.075 -0.3052  0.3746  0.7286
 9680TIP3    H253236   2.820   1.723   8.067  1.9642  0.2144 -1.4116
 9681TIP3   OH253237   0.079   3.144   8.585 -0.0930  0.3161  0.0560
 9681TIP3    H153238   0.096   3.182   8.671  0.0660 -0.0948  0.2113
 9681TIP3    H253239   0.104   3.052   8.595 -1.8814 -0.1889  0.1267
 9682TIP3   OH253240   3.137   5.066   8.312  0.1832  0.0249 -0.6063
 9682TIP3    H153241   3.150   5.053   8.406  0.2901  1.3662 -0.4074
 9682TIP3    H253242   3.043   5.082   8.302  0.1588 -0.2001 -0.7390
 9683TIP3   OH253243   3.842   0.723   6.458 -0.3401 -0.5778 -0.2502
 9683TIP3    H153244   3.846   0.680   6.544 -1.9781 -0.3413 -0.0157
 9683TIP3    H253245   3.845   0.816   6.479  0.2945 -0.5241 -0.5483
 9684TIP3   OH253246   5.830   6.182   8.707 -0.0916  0.0037 -0.7205
 9684TIP3    H153247   5.924   6.188   8.690  0.0270 -0.3709 -0.2538
 9684TIP3    H253248   5.815   6.242   8.780  0.1269 -1.2531  0.3996
 9685TIP3   OH253249   3.997   0.236   8.285 -0.7835  0.0648  0.3163
 9685TIP3    H153250   4.030   0.296   8.351  0.1143  0.1784 -0.2217
 9685TIP3    H253251   4.044   0.154   8.301  0.0199  0.3171 -0.6427
 9686TIP3   OH253252   6.173   3.923   6.864  0.0491  0.6502  0.0749
 9686TIP3    H153253   6.097   3.969   6.901 -0.0154  0.9773 -0.4632
 9686TIP3    H253254   6.244   3.986   6.870 -0.3005  1.2821 -1.7364
 9687TIP3   OH253255   0.025   2.454   7.360 -0.4622  0.1953  0.0040
 9687TIP3    H153256   0.058   2.525   7.415 -0.2064 -0.0671  0.1899
 9687TIP3    H253257   0.104   2.417   7.320 -0.5712 -0.1765  0.1354
 9688TIP3   OH253258   2.568   1.526   8.290  0.3280  0.6533 -0.1677
 9688TIP3    H153259   2.564   1.489   8.202 -0.1640  1.3864 -0.4591
 9688TIP3    H253260   2.479   1.556   8.308  0.6747  1.5301  0.1352
 9689TIP3   OH253261   0.582   3.075   7.600  0.3127  0.0706  0.4475
 9689TIP3    H153262   0.554   3.029   7.679  0.2054 -1.4542 -0.4281
 9689TIP3    H253263   0.602   3.164   7.629  1.8237 -0.8493  2.4854
 9690TIP3   OH253264   1.233   2.152   5.698  0.3868  0.3286  0.2410
 9690TIP3    H153265   1.297   2.082   5.712  1.2797  1.1718  0.4531
 9690TIP3    H253266   1.283   2.223   5.657 -0.9158  0.1309 -1.8791
 9691TIP3   OH253267   6.473   2.780   7.234 -1.0948  0.9466  0.6975
 9691TIP3    H153268   6.436   2.815   7.315  0.3424  2.6648  0.6866
 9691TIP3    H253269   6.471   2.854   7.173 -1.4990 -0.1176 -0.6296
 9692TIP3   OH253270   4.203   1.584   7.285 -0.2300  0.0467 -0.2132
 9692TIP3    H153271   4.140   1.512   7.279  0.0328 -0.0540 -2.6484
 9692TIP3    H253272   4.152   1.662   7.264 -0.5257  0.6598  2.4711
 9693TIP3   OH253273   4.940   0.422   8.112  0.4096  0.0268  0.2933
 9693TIP3    H153274   4.892   0.363   8.170  0.4585  0.1935  0.5040
 9693TIP3    H253275   4.922   0.389   8.024 -0.2650  0.2220  0.3574
 9694TIP3   OH253276   3.311   4.332   5.412  0.0954 -0.3775  0.1446
 9694TIP3    H153277   3.406   4.323   5.424  0.2990 -0.8806 -1.5024
 9694TIP3    H253278   3.295   4.426   5.418  1.1310  0.0026 -1.9454
 9695TIP3   OH253279   1.917   5.706   6.791  0.0107 -0.0480 -0.3181
 9695TIP3    H153280   1.938   5.707   6.697 -0.2737 -2.0595 -0.4495
 9695TIP3    H253281   1.985   5.651   6.830 -0.4993 -0.1273  0.4755
 9696TIP3   OH253282   0.675   5.249   7.598 -0.3991 -0.1536  0.0659
 9696TIP3    H153283   0.642   5.334   7.626  1.1592  0.2793  0.7415
 9696TIP3    H253284   0.713   5.265   7.511  3.4107  0.9276  1.6896
 9697TIP3   OH253285   5.761   2.281   5.853 -0.3357 -0.0752 -0.5857
 9697TIP3    H153286   5.755   2.188   5.830 -0.5023  0.2251 -1.8290
 9697TIP3    H253287   5.710   2.289   5.933  0.0271 -1.1292 -0.2323
 9698TIP3   OH253288   5.216   0.987   7.429  0.0103  0.6644 -0.3882
 9698TIP3    H153289   5.148   0.949   7.484 -0.0581 -0.9453 -1.5205
 9698TIP3    H253290   5.298   0.969   7.475 -0.1815  0.9663  0.0757
 9699TIP3   OH253291   3.810   2.259   8.180 -0.4114 -0.0861 -0.4406
 9699TIP3    H153292   3.851   2.201   8.244  0.0598 -1.0615 -1.5974
 9699TIP3    H253293   3.816   2.346   8.221 -2.4281 -0.9525  1.9668
 9700TIP3   OH253294   1.179   6.170   7.629 -0.3286  0.6299 -0.1599
 9700TIP3    H153295   1.090   6.165   7.594  0.2157 -0.4079 -1.4689
 9700TIP3    H253296   1.191   6.088   7.677  0.5804 -0.1906 -1.7059
 9701TIP3   OH253297   2.524   4.209   7.267  0.1385 -0.4509  0.3333
 9701TIP3    H153298   2.495   4.118   7.278 -2.7354  0.0033 -2.2607
 9701TIP3    H253299   2.569   4.210   7.183  0.5561  0.4791  0.5526
 9702TIP3   OH253300   1.986   2.070   7.062  0.4651 -0.7757  0.1724
 9702TIP3    H153301   2.064   2.031   7.101 -0.4814 -2.2127  0.7148
 9702TIP3    H253302   1.915   2.010   7.085 -1.2658  1.7419  1.8391
 9703TIP3   OH253303   5.065   4.590   7.759 -0.9355 -0.0129  0.4091
 9703TIP3    H153304   5.070   4.673   7.712 -0.2433 -0.1873  0.1520
 9703TIP3    H253305   5.116   4.603   7.838 -1.1035 -0.0902  0.5305
 9704TIP3   OH253306   4.582   2.389   8.231  0.4838  0.5211  0.1671
 9704TIP3    H153307   4.662   2.381   8.282 -0.7953  1.0620  2.3791
 9704TIP3    H253308   4.515   2.344   8.282 -0.2777 -2.0064 -2.7373
 9705TIP3   OH253309   1.435   2.123   9.259  0.7221 -0.2584 -0.1423
 9705TIP3    H153310   1.452   2.173   9.339 -1.0111  0.9439 -0.4764
 9705TIP3    H253311   1.420   2.189   9.192  1.1738 -1.2516 -1.2516
 9706TIP3   OH253312   4.562   0.150   5.487 -0.1924 -0.5466 -0.2488
 9706TIP3    H153313   4.573   0.172   5.579 -0.7512 -0.6389 -0.1538
 9706TIP3    H253314   4.509   0.070   5.488 -1.2832  0.1459 -0.6730
 9707TIP3   OH253315   2.264   6.208   5.559  0.5367  0.5461  0.2826
 9707TIP3    H153316   2.350   6.227   5.597  0.3956  0.5782  0.5950
 9707TIP3    H253317   2.216   6.291   5.567  0.0317  0.1727  1.3332
 9708TIP3   OH253318   5.887   0.413   6.474  0.1394 -0.0414 -0.0147
 9708TIP3    H153319   5.968   0.365   6.489 -1.1246 -2.5085 -0.6070
 9708TIP3    H253320   5.823   0.374   6.534 -0.9887  0.8361 -0.5908
 9709TIP3   OH253321   6.375   1.429   7.490 -0.5179 -0.1415  0.5634
 9709TIP3    H153322   6.295   1.470   7.522 -0.7823  0.1300 -0.3927
 9709TIP3    H253323   6.410   1.491   7.426 -0.2021 -0.7976  0.0798
 9710TIP3   OH253324   0.471   6.541   6.438 -0.5211 -0.4612 -0.1905
 9710TIP3    H153325   0.527   6.465   6.452 -0.9715 -1.0443 -1.3791
 9710TIP3    H253326   0.391   6.505   6.399 -1.0754  0.5318 -0.0117
 9711TIP3   OH253327   2.637   0.366   6.259  0.3009 -0.1952  0.1951
 9711TIP3    H153328   2.603   0.402   6.341 -0.3088 -2.6248  1.0900
 9711TIP3    H253329   2.641   0.272   6.274  2.5230 -0.4938 -1.7453
 9712TIP3   OH253330   5.024   4.513   7.394  0.6370  0.0053 -0.4197
 9712TIP3    H153331   5.033   4.468   7.478  0.8658  0.6816 -0.0813
 9712TIP3    H253332   5.007   4.442   7.331 -0.7193 -0.4171  0.3687
 9713TIP3   OH253333   5.810   5.495   7.585 -0.5264 -0.4690  0.0081
 9713TIP3    H153334   5.785   5.470   7.674 -1.7446  0.1277 -0.1453
 9713TIP3    H253335   5.847   5.415   7.548 -0.4881 -0.8724  0.8740
 9714TIP3   OH253336   5.133   6.583   5.807  0.1858 -0.0408 -0.0749
 9714TIP3    H153337   5.192   6.654   5.780 -0.6096  1.2120  1.3069
 9714TIP3    H253338   5.059   6.628   5.848 -0.5655 -1.6684  0.4382
 9715TIP3   OH253339   6.006   4.631   7.220  0.4201 -0.1154  0.0490
 9715TIP3    H153340   6.041   4.720   7.214 -0.8591  0.4956  1.2554
 9715TIP3    H253341   5.966   4.626   7.307  0.2874 -1.8066 -0.0784
 9716TIP3   OH253342   3.599   2.220   6.482  0.1592  0.0612  0.2036
 9716TIP3    H153343   3.591   2.131   6.515  0.3673  0.1892  0.6061
 9716TIP3    H253344   3.510   2.254   6.481  0.1976  0.2146  1.0938
 9717TIP3   OH253345   0.678   3.482   6.434  0.0660  0.2589  0.4339
 9717TIP3    H153346   0.625   3.468   6.355 -0.7060 -1.6317  1.2116
 9717TIP3    H253347   0.763   3.512   6.401  0.7038 -3.0857 -1.4071
 9718TIP3   OH253348   4.240   1.210   8.218 -0.1836  0.8287  0.5344
 9718TIP3    H153349   4.221   1.215   8.311  0.1816 -0.4512  0.7043
 9718TIP3    H253350   4.311   1.273   8.204 -0.9012  1.7315  0.9193
 9719TIP3   OH253351   0.764   6.309   8.571  0.6097  0.1301  0.3293
 9719TIP3    H153352   0.674   6.280   8.585  0.1411  2.0028  1.5170
 9719TIP3    H253353   0.768   6.331   8.478 -0.3831  0.7149  0.4125
 9720TIP3   OH253354   3.549   4.595   6.352 -0.6499  0.1516 -0.2050
 9720TIP3    H153355   3.617   4.656   6.321 -0.1775 -0.3749 -0.2251
 9720TIP3    H253356   3.546   4.609   6.447 -1.4103  1.0718 -0.3507
 9721TIP3   OH253357   4.519   1.272   7.194 -0.5864 -0.2350 -0.2376
 9721TIP3    H153358   4.443   1.215   7.201 -0.5943 -0.0932  1.0236
 9721TIP3    H253359   4.481   1.361   7.192 -0.4684 -0.1727  0.2192
 9722TIP3   OH253360   1.844   0.562   8.507  0.0013 -0.1114 -0.4628
 9722TIP3    H153361   1.916   0.498   8.513  1.2623  1.2608 -0.3434
 9722TIP3    H253362   1.856   0.619   8.583 -1.6488 -0.2464 -0.0608
 9723TIP3   OH253363   5.492   5.756   8.356  0.0367 -0.0883 -0.0835
 9723TIP3    H153364   5.553   5.821   8.321  2.7110 -1.2258  2.0497
 9723TIP3    H253365   5.408   5.802   8.361  1.6025  2.9938  0.5704
 9724TIP3   OH253366   5.067   5.431   6.800  0.2387  0.3193  0.3991
 9724TIP3    H153367   5.049   5.490   6.873  0.9852 -1.0431  1.7384
 9724TIP3    H253368   5.000   5.453   6.735 -1.1747  0.8147  1.9432
 9725TIP3   OH253369   6.232   0.390   6.768 -0.0942  0.5593  0.1300
 9725TIP3    H153370   6.150   0.431   6.796  0.0446  1.0723 -0.2036
 9725TIP3    H253371   6.285   0.462   6.735  1.0465  0.4456  1.5962
 9726TIP3   OH253372   4.970   4.451   5.288 -0.0988  0.3679 -0.4518
 9726TIP3    H153373   5.041   4.389   5.304  1.0257  1.3105 -1.5623
 9726TIP3    H253374   4.912   4.440   5.363 -0.0524 -2.1218 -0.7038
 9727TIP3   OH253375   4.244   4.753   6.028  0.3113  0.1766  0.4040
 9727TIP3    H153376   4.313   4.819   6.018 -0.1870  0.4596 -1.4455
 9727TIP3    H253377   4.292   4.671   6.042  0.9939  0.5786  0.5037
 9728TIP3   OH253378   6.058   0.179   6.738 -0.0417 -0.2159  0.3092
 9728TIP3    H153379   6.140   0.228   6.733 -0.0053 -0.4073 -2.4913
 9728TIP3    H253380   5.990   0.246   6.747  0.2335  0.1731 -0.4134
 9729TIP3   OH253381   1.749   2.648   8.401 -0.2213 -0.5108  0.1748
 9729TIP3    H153382   1.726   2.620   8.490  0.9253  1.3764  1.1212
 9729TIP3    H253383   1.793   2.572   8.363  1.6085 -0.5395  2.1683
 9730TIP3   OH253384   4.310   0.216   6.420  0.2456  0.1511  0.3510
 9730TIP3    H153385   4.263   0.140   6.385 -0.6500  0.6156  0.5176
 9730TIP3    H253386   4.390   0.179   6.458  0.4180 -0.5578 -0.6524
 9731TIP3   OH253387   3.706   1.686   8.233 -0.3963 -0.2815 -0.3067
 9731TIP3    H153388   3.639   1.751   8.208  0.3225  0.3403 -0.6394
 9731TIP3    H253389   3.660   1.602   8.227 -1.4149  0.1941  0.3602
 9732TIP3   OH253390   6.394   2.039   8.040 -0.6091  0.0219  0.2763
 9732TIP3    H153391   6.401   2.101   7.967  1.7342 -0.2441  0.1849
 9732TIP3    H253392   6.403   1.953   7.999  0.9329 -0.1199  0.8387
 9733TIP3   OH253393   6.331   4.209   6.601  0.1517  0.1118 -0.2432
 9733TIP3    H153394   6.407   4.226   6.545  0.4588  0.4388  0.2616
 9733TIP3    H253395   6.366   4.159   6.674 -0.1847 -0.0170 -0.1671
 9734TIP3   OH253396   4.839   4.158   8.154  0.2824  0.1590 -0.0258
 9734TIP3    H153397   4.878   4.242   8.128  1.9321 -0.5831 -0.0986
 9734TIP3    H253398   4.901   4.122   8.217  0.0396 -1.4074 -0.6543
 9735TIP3   OH253399   2.331   2.151   6.874 -0.2182 -0.6571 -0.0489
 9735TIP3    H153400   2.376   2.149   6.789  0.4883 -0.0464  0.2979
 9735TIP3    H253401   2.320   2.058   6.897  1.2605 -0.8390  0.0430
 9736TIP3   OH253402   1.688   5.854   6.704  0.1116 -0.0247 -0.3374
 9736TIP3    H153403   1.634   5.776   6.717 -0.6362  0.7559  1.7588
 9736TIP3    H253404   1.778   5.821   6.698 -0.2853 -1.1075 -0.3901
 9737TIP3   OH253405   3.735   5.020   5.619  0.3599 -0.3743  0.0899
 9737TIP3    H153406   3.726   5.114   5.637  0.8247 -0.1868 -0.6257
 9737TIP3    H253407   3.829   5.004   5.620  0.5599 -0.0955 -3.2594
 9738TIP3   OH253408   3.672   5.597   6.356  0.0551 -0.2464  0.2548
 9738TIP3    H153409   3.639   5.575   6.443 -1.0419 -0.0079 -0.0769
 9738TIP3    H253410   3.593   5.611   6.304  0.6992 -0.1286 -0.7134
 9739TIP3   OH253411   3.474   5.787   8.011  0.0125 -0.0245 -0.1803
 9739TIP3    H153412   3.437   5.857   8.064  1.3733  0.7908 -0.2408
 9739TIP3    H253413   3.496   5.828   7.927 -1.7968 -1.2143 -1.3222
 9740TIP3   OH253414   2.194   1.396   8.051 -0.3528  0.4418 -0.0099
 9740TIP3    H153415   2.150   1.313   8.033  0.3286  0.0084  0.2907
 9740TIP3    H253416   2.215   1.393   8.144  1.8328 -0.1247 -0.4694
 9741TIP3   OH253417   3.685   3.905   7.504  0.2470  0.0642  0.1071
 9741TIP3    H153418   3.652   3.863   7.425  1.2000 -0.2708 -0.1294
 9741TIP3    H253419   3.646   3.855   7.576 -0.5930  0.3513 -0.1477
 9742TIP3   OH253420   2.189   4.410   7.051  0.1272 -0.4750  0.1904
 9742TIP3    H153421   2.268   4.436   7.098  0.5442 -0.2200 -0.6249
 9742TIP3    H253422   2.221   4.355   6.979 -0.2052  1.2785 -1.3852
 9743TIP3   OH253423   1.882   4.814   6.062  0.0393 -0.4538  0.0947
 9743TIP3    H153424   1.941   4.888   6.070 -0.4442 -0.1887  1.3199
 9743TIP3    H253425   1.881   4.773   6.148 -1.6426 -0.3755  0.1547
 9744TIP3   OH253426   6.531   4.505   8.064 -0.4983 -0.4099 -0.4359
 9744TIP3    H153427   6.463   4.531   8.003 -0.5372 -1.0395 -0.6653
 9744TIP3    H253428   6.589   4.581   8.069 -1.2531  0.1665 -0.1690
 9745TIP3   OH253429   4.794   0.481   6.925  0.1945 -0.0267  0.4242
 9745TIP3    H153430   4.877   0.524   6.947 -0.6861  2.1826 -0.2251
 9745TIP3    H253431   4.727   0.545   6.951 -1.2058 -0.9137 -0.8446
 9746TIP3   OH253432   0.001   0.351   8.639 -0.1756  0.0174 -0.1784
 9746TIP3    H153433  -0.006   0.264   8.679 -2.4406  0.1456 -0.1584
 9746TIP3    H253434   0.024   0.409   8.711 -2.0643 -0.0836  0.5656
 9747TIP3   OH253435   3.004   4.622   7.749  0.0762 -0.0584 -0.5397
 9747TIP3    H153436   2.920   4.604   7.708  1.0622 -2.9687 -1.5195
 9747TIP3    H253437   2.982   4.648   7.839 -1.8686 -0.6955 -0.7940
 9748TIP3   OH253438   5.697   5.938   8.246  0.5226  0.1539  0.3760
 9748TIP3    H153439   5.725   5.957   8.336 -0.1796  1.2560  0.3802
 9748TIP3    H253440   5.759   5.984   8.190  1.4478 -1.1936  0.2470
 9749TIP3   OH253441   2.676   0.961   6.631 -0.1692 -0.1924 -0.4245
 9749TIP3    H153442   2.632   0.876   6.619  0.1143 -0.7159  1.8106
 9749TIP3    H253443   2.743   0.944   6.697  1.1722  1.3760 -1.3027
 9750TIP3   OH253444   5.569   5.794   8.658  0.4661  0.0526  0.1296
 9750TIP3    H153445   5.624   5.717   8.675 -0.2186 -0.5282 -0.1963
 9750TIP3    H253446   5.494   5.759   8.609 -0.4927  0.7270  1.0790
 9751TIP3   OH253447   4.765   3.292   8.012  0.1313  0.6318  0.0650
 9751TIP3    H153448   4.775   3.373   7.962  1.4150  0.5328  0.1319
 9751TIP3    H253449   4.813   3.308   8.093 -2.5374  1.0742  1.6779
 9752TIP3   OH253450   5.123   0.121   8.096  0.8176 -0.3413  0.0649
 9752TIP3    H153451   5.084   0.038   8.125  0.3805  0.5154  2.1397
 9752TIP3    H253452   5.108   0.181   8.169  0.9297  1.6451 -1.4521
 9753TIP3   OH253453   0.389   2.640   5.938  0.1930  0.1753 -0.1219
 9753TIP3    H153454   0.417   2.558   5.899  1.1753  0.1585  0.5954
 9753TIP3    H253455   0.297   2.625   5.961  0.3414 -0.6885 -0.0678
 9754TIP3   OH253456   0.779   3.850   7.089 -0.5233  0.2631  0.0132
 9754TIP3    H153457   0.712   3.840   7.021 -0.7176  0.8383  0.1086
 9754TIP3    H253458   0.780   3.944   7.107  0.0228  0.2023  0.3088
 9755TIP3   OH253459   5.714   6.669   6.831 -0.4635  0.0072  0.7320
 9755TIP3    H153460   5.775   6.699   6.899  0.2505  1.0969 -0.3487
 9755TIP3    H253461   5.763   6.600   6.785  0.2446  1.2981 -0.5224
 9756TIP3   OH253462   4.792   4.728   8.845 -0.1942 -0.1082 -0.3195
 9756TIP3    H153463   4.707   4.690   8.825 -0.4034  1.8825 -4.1039
 9756TIP3    H253464   4.856   4.662   8.818 -0.4635 -0.8588  0.7925
 9757TIP3   OH253465   3.093   4.948   7.005 -0.4352  0.1988 -0.6015
 9757TIP3    H153466   3.125   5.007   7.074 -1.3337  0.6344 -0.5379
 9757TIP3    H253467   3.127   4.986   6.924  0.5680 -0.2760 -0.4177
 9758TIP3   OH253468   2.548   3.006   5.690  0.0382  0.5588 -0.1150
 9758TIP3    H153469   2.637   3.037   5.707 -0.5821  0.6369  3.7514
 9758TIP3    H253470   2.492   3.082   5.710 -0.9884  0.1342 -1.2720
 9759TIP3   OH253471   3.900   4.493   5.115  0.3759  0.0122 -0.1863
 9759TIP3    H153472   3.934   4.581   5.104  0.9542 -0.3739 -1.7816
 9759TIP3    H253473   3.972   4.444   5.155  0.1054  0.2110  0.5639
 9760TIP3   OH253474   0.297   6.478   8.186  0.1844  0.4045  0.2398
 9760TIP3    H153475   0.208   6.490   8.220  0.4325 -0.7873  1.4025
 9760TIP3    H253476   0.335   6.412   8.244  1.6166  0.4317 -0.6444
 9761TIP3   OH253477   2.059   3.781   7.138  0.6587 -0.0560  0.1247
 9761TIP3    H153478   2.034   3.748   7.052  0.1139 -1.0427  0.6382
 9761TIP3    H253479   2.151   3.754   7.149  1.1259  1.1415 -0.6239
 9762TIP3   OH253480   2.818   4.181   7.372  0.2201  0.3597  0.4931
 9762TIP3    H153481   2.724   4.166   7.368  0.1838  0.8128 -0.7161
 9762TIP3    H253482   2.857   4.093   7.372 -0.1951  0.1779  0.6661
 9763TIP3   OH253483   0.358   5.775   6.798 -0.6076 -0.5255  0.9379
 9763TIP3    H153484   0.445   5.778   6.759 -0.8360  1.3323  0.4761
 9763TIP3    H253485   0.355   5.852   6.855 -2.0895 -0.3424  0.6431
 9764TIP3   OH253486   5.577   0.098   5.351  0.1827 -0.3216  0.8327
 9764TIP3    H153487   5.592   0.193   5.352  0.3711 -0.3195 -0.6233
 9764TIP3    H253488   5.488   0.088   5.319 -0.1369 -0.6270  1.7798
 9765TIP3   OH253489   6.602   2.333   9.390 -0.0642 -0.1043  0.6356
 9765TIP3    H153490   6.652   2.319   9.309 -1.3812  0.2079 -0.2774
 9765TIP3    H253491   6.558   2.249   9.405 -0.5355  0.1083  0.4901
 9766TIP3   OH253492   4.826   5.130   5.903 -0.8200  0.1328  0.4427
 9766TIP3    H153493   4.738   5.136   5.866 -0.4572 -2.5692 -1.0727
 9766TIP3    H253494   4.814   5.083   5.986 -0.7059 -1.5218 -0.4423
 9767TIP3   OH253495   6.205   6.589   7.041 -0.2569  0.1843 -0.4369
 9767TIP3    H153496   6.214   6.603   7.135 -0.3034  2.6524 -0.7386
 9767TIP3    H253497   6.294   6.592   7.008 -0.3891  1.9916 -0.7380
 9768TIP3   OH253498   2.768   5.825   7.784 -0.2463 -0.3692 -0.1302
 9768TIP3    H153499   2.841   5.773   7.748 -0.5429 -2.5389  2.1169
 9768TIP3    H253500   2.691   5.792   7.739 -0.2476 -0.7721  0.1584
 9769TIP3   OH253501   5.441   3.688   7.220 -0.3096  0.5574 -0.1881
 9769TIP3    H153502   5.361   3.732   7.246  0.4069  0.9205  1.5268
 9769TIP3    H253503   5.510   3.732   7.269  0.6820 -1.0856 -0.0237
 9770TIP3   OH253504   0.931   3.809   5.934 -0.2749  0.4275  0.4151
 9770TIP3    H153505   0.915   3.717   5.955  0.2874 -0.2060 -1.6497
 9770TIP3    H253506   0.980   3.806   5.852  0.9157  2.5602  0.9780
 9771TIP3   OH253507   5.330   3.552   5.637 -0.1695  0.3594  0.5593
 9771TIP3    H153508   5.382   3.519   5.710  0.4196  2.1370  1.0145
 9771TIP3    H253509   5.242   3.519   5.652  0.2946 -0.6135  1.1896
 9772TIP3   OH253510   0.487   4.001   6.654 -0.1525 -0.2812 -0.3474
 9772TIP3    H153511   0.427   3.940   6.611  0.7420  0.0062 -2.0916
 9772TIP3    H253512   0.430   4.067   6.693 -1.0480 -1.1467 -0.1515
 9773TIP3   OH253513   1.408   4.669   6.862 -0.8778  0.4790 -0.0380
 9773TIP3    H153514   1.449   4.750   6.892  2.7777 -1.4821  0.8450
 9773TIP3    H253515   1.435   4.660   6.771 -0.8148  0.0225  0.0215
 9774TIP3   OH253516   3.643   0.527   7.869 -0.4424 -0.4682 -0.3029
 9774TIP3    H153517   3.715   0.587   7.849 -0.7714 -0.1633 -0.5920
 9774TIP3    H253518   3.685   0.442   7.881 -0.0951 -0.3946 -0.9794
 9775TIP3   OH253519   3.143   4.343   7.936 -0.0831 -0.2710  0.4307
 9775TIP3    H153520   3.111   4.400   7.866 -0.7574 -0.1218  0.8476
 9775TIP3    H253521   3.219   4.389   7.972  0.1689 -0.2748 -0.0961
 9776TIP3   OH253522   2.806   4.264   5.940 -0.5384  0.3915 -0.5999
 9776TIP3    H153523   2.824   4.203   6.011 -1.7130  0.8174  0.1025
 9776TIP3    H253524   2.719   4.239   5.909 -0.3687  0.7195 -1.3604
 9777TIP3   OH253525   0.284   0.959   8.079  0.2464 -0.4244 -0.1173
 9777TIP3    H153526   0.231   1.014   8.136 -0.5582 -0.6707 -0.6108
 9777TIP3    H253527   0.289   0.875   8.125  0.7179 -0.2264  0.2064
 9778TIP3   OH253528   0.019   6.536   7.620  0.2895  0.2136 -0.1865
 9778TIP3    H153529   0.029   6.459   7.676  0.1224  1.6133  1.8549
 9778TIP3    H253530  -0.041   6.593   7.667  0.4865  1.6604 -1.6045
 9779TIP3   OH253531   0.502   3.440   8.157  0.6401  0.1795  0.0834
 9779TIP3    H153532   0.521   3.380   8.230 -0.1350  1.1509  1.1330
 9779TIP3    H253533   0.492   3.526   8.199  0.9239  0.9103 -1.2811
 9780TIP3   OH253534   2.776   4.131   8.091 -0.2106 -0.6582 -0.0317
 9780TIP3    H153535   2.700   4.099   8.042 -0.2518 -0.6274  0.0119
 9780TIP3    H253536   2.849   4.120   8.031 -0.2984 -0.4076 -0.1858
 9781TIP3   OH253537   2.335   6.357   6.432 -0.1075 -0.3479 -0.5020
 9781TIP3    H153538   2.250   6.313   6.429 -0.1497 -0.2590 -0.6795
 9781TIP3    H253539   2.314   6.447   6.459 -0.2043 -0.0256 -1.5706
 9782TIP3   OH253540   1.218   6.446   5.857 -0.0906 -0.3064  0.4668
 9782TIP3    H153541   1.250   6.369   5.902 -1.8668 -1.7223 -0.5698
 9782TIP3    H253542   1.204   6.511   5.926 -0.7224 -1.6788  1.6718
 9783TIP3   OH253543   2.452   1.719   5.710 -0.5931 -0.4772 -0.3014
 9783TIP3    H153544   2.433   1.766   5.791  0.2881 -0.3939 -0.1325
 9783TIP3    H253545   2.373   1.667   5.693 -1.0895  0.1043  0.1777
 9784TIP3   OH253546   4.946   4.323   7.219 -0.3258  0.1998 -0.4110
 9784TIP3    H153547   5.017   4.275   7.176 -0.4059 -0.0777 -0.2409
 9784TIP3    H253548   4.871   4.311   7.161 -0.0278  1.1968 -1.0117
 9785TIP3   OH253549   6.134   6.235   6.331  0.2834  0.0943 -0.1558
 9785TIP3    H153550   6.163   6.289   6.404  1.3326 -1.2172  0.4228
 9785TIP3    H253551   6.186   6.266   6.256 -0.1246  0.8042 -0.1561
 9786TIP3   OH253552   1.740   0.301   6.485  0.0074  0.7671 -0.4332
 9786TIP3    H153553   1.646   0.293   6.500  0.0891 -1.5818 -0.7968
 9786TIP3    H253554   1.763   0.386   6.523 -2.0396  0.8891  0.6847
 9787TIP3   OH253555   3.344   2.255   7.411 -0.2799 -0.0720  0.3507
 9787TIP3    H153556   3.325   2.316   7.340 -0.6576 -1.2983 -0.6443
 9787TIP3    H253557   3.259   2.234   7.449 -0.6864 -2.7135 -1.6966
 9788TIP3   OH253558   3.951   5.670   7.034 -0.0098 -0.3195  0.3609
 9788TIP3    H153559   3.995   5.722   6.966  1.4333 -1.2541  0.5340
 9788TIP3    H253560   4.000   5.690   7.114  0.3187 -1.5975  0.5080
 9789TIP3   OH253561   5.310   0.920   7.983 -0.4023  0.3848  0.2834
 9789TIP3    H153562   5.328   1.004   8.024 -1.2885  1.1633 -0.8671
 9789TIP3    H253563   5.365   0.858   8.031  2.3845  2.0029 -0.6133
 9790TIP3   OH253564   6.362   4.996   5.411  0.2367 -0.1278 -0.4787
 9790TIP3    H153565   6.433   4.949   5.366  1.7513  0.9329  0.7468
 9790TIP3    H253566   6.405   5.046   5.480 -1.3852  2.5537 -1.2653
 9791TIP3   OH253567   4.807   0.320   5.514 -0.3400  0.0019 -0.4058
 9791TIP3    H153568   4.729   0.266   5.507 -0.7262  0.5637 -0.4951
 9791TIP3    H253569   4.775   0.410   5.504  0.2242  0.2836  0.2267
 9792TIP3   OH253570   5.044   4.920   6.446  0.0219 -0.3243 -0.2381
 9792TIP3    H153571   5.044   4.996   6.388  0.1039 -1.3187 -1.6217
 9792TIP3    H253572   4.969   4.933   6.504 -1.0861 -0.0457 -1.6700
 9793TIP3   OH253573   0.554   4.273   7.350  0.0875 -0.2877 -0.4618
 9793TIP3    H153574   0.502   4.260   7.429  0.7216  0.8135  0.1514
 9793TIP3    H253575   0.566   4.368   7.343  0.3906 -0.3914 -1.6533
 9794TIP3   OH253576   6.631   5.012   6.576 -0.4862  0.1319  0.6473
 9794TIP3    H153577   6.692   5.085   6.573 -2.4300  1.8461 -0.3481
 9794TIP3    H253578   6.677   4.940   6.533  0.7050  1.4473 -0.3785
 9795TIP3   OH253579   3.430   0.718   7.335 -0.1581  0.5273 -0.3078
 9795TIP3    H153580   3.413   0.783   7.404 -2.8343 -1.3426  0.9797
 9795TIP3    H253581   3.407   0.634   7.375  4.3083 -1.5613 -1.4807
 9796TIP3   OH253582   3.094   2.020   6.123  0.2502 -0.3077 -0.0448
 9796TIP3    H153583   3.012   2.068   6.108 -0.4086 -1.4714 -0.2262
 9796TIP3    H253584   3.123   1.996   6.035  2.4831  2.7491 -0.3168
 9797TIP3   OH253585   6.190   5.411   5.697 -0.0666  0.1601 -0.1547
 9797TIP3    H153586   6.151   5.490   5.660 -1.5745  0.0046  0.9954
 9797TIP3    H253587   6.147   5.339   5.652  1.6813 -0.0584 -1.5768
 9798TIP3   OH253588   2.520   6.148   6.976 -0.1939 -0.3344 -0.3986
 9798TIP3    H153589   2.428   6.125   6.978 -0.2075 -0.2873  2.2197
 9798TIP3    H253590   2.565   6.074   7.017  1.0346 -0.5434 -1.9831
 9799TIP3   OH253591   5.183   5.187   8.183 -0.1660  0.5780 -0.0695
 9799TIP3    H153592   5.221   5.213   8.267  0.7233  0.1808 -0.3390
 9799TIP3    H253593   5.257   5.187   8.122 -0.5449 -0.4618 -0.5501
 9800TIP3   OH253594   6.361   6.607   7.924 -0.2574  0.2261  0.6861
 9800TIP3    H153595   6.283   6.586   7.976 -0.2955 -0.1277  0.4919
 9800TIP3    H253596   6.417   6.529   7.932  0.4012  0.7697  1.4232
 9801TIP3   OH253597   2.394   1.846   7.716 -0.2831  0.4160 -0.3873
 9801TIP3    H153598   2.460   1.794   7.672 -0.3450  0.1662 -0.1854
 9801TIP3    H253599   2.397   1.818   7.807 -1.2908 -0.2504 -0.5431
 9802TIP3   OH253600   0.380   0.032   5.888  0.0873  0.3900  0.6272
 9802TIP3    H153601   0.286   0.016   5.900 -0.3138  1.3031 -0.9767
 9802TIP3    H253602   0.413  -0.049   5.849  0.0940 -0.1071  1.6115
 9803TIP3   OH253603   3.223   4.697   7.107  0.1463  0.7199 -0.0648
 9803TIP3    H153604   3.279   4.638   7.056  2.4021  1.3857  1.4788
 9803TIP3    H253605   3.222   4.778   7.056 -0.1165  0.4399 -0.5104
 9804TIP3   OH253606   2.355   3.992   7.070 -0.0387 -0.5991  0.5795
 9804TIP3    H153607   2.430   3.946   7.034  0.2079 -0.6507  1.1531
 9804TIP3    H253608   2.289   3.990   7.000  0.3140 -0.9832  0.2597
 9805TIP3   OH253609   3.563   2.152   7.518 -0.3675  0.1894 -0.1268
 9805TIP3    H153610   3.485   2.193   7.480 -0.3680  2.1774  1.7667
 9805TIP3    H253611   3.635   2.182   7.463 -0.6804  0.5105 -0.3683
 9806TIP3   OH253612   5.418   4.623   5.653  0.0833 -0.3289  0.0054
 9806TIP3    H153613   5.390   4.559   5.586 -0.3841  0.3426 -0.4562
 9806TIP3    H253614   5.346   4.624   5.716  0.6194 -1.1194  0.6505
 9807TIP3   OH253615   1.250   0.659   6.105 -0.2938 -0.3176 -0.0908
 9807TIP3    H153616   1.237   0.581   6.052 -0.1442 -1.8661  2.0600
 9807TIP3    H253617   1.339   0.688   6.084 -0.8975  0.2573 -2.0629
 9808TIP3   OH253618   5.757   4.836   6.660 -0.4985  0.0870 -0.5940
 9808TIP3    H153619   5.824   4.833   6.591  1.0585  1.6905  0.7679
 9808TIP3    H253620   5.795   4.787   6.733 -1.1061  0.4567 -0.0227
 9809TIP3   OH253621   6.160   1.229   6.649  0.3709  0.3304 -0.4855
 9809TIP3    H153622   6.085   1.253   6.596 -0.1769  1.2348  0.6595
 9809TIP3    H253623   6.156   1.133   6.655 -0.9517  0.3994 -0.0738
 9810TIP3   OH253624   0.079   0.610   8.732  0.0364 -0.0850  0.2269
 9810TIP3    H153625   0.081   0.627   8.826  0.1038  0.6144  0.1050
 9810TIP3    H253626   0.170   0.592   8.709  0.2537  1.1370  0.0608
 9811TIP3   OH253627   3.938   1.689   6.370 -0.3114  0.5683 -0.2274
 9811TIP3    H153628   3.877   1.680   6.296 -1.5458  0.3067  0.7804
 9811TIP3    H253629   3.881   1.688   6.447  1.0142 -0.0178  0.7722
 9812TIP3   OH253630   5.509   2.199   8.521 -0.1446 -0.1506  0.1689
 9812TIP3    H153631   5.441   2.133   8.506  1.3577 -1.4789 -1.2760
 9812TIP3    H253632   5.554   2.170   8.600 -0.5617  0.1138  0.5050
 9813TIP3   OH253633   6.251   4.888   7.744  0.2104 -0.2694  0.2337
 9813TIP3    H153634   6.240   4.969   7.695 -0.0551  1.5474  3.0192
 9813TIP3    H253635   6.346   4.874   7.746  0.4690  1.2711  1.4699
 9814TIP3   OH253636   2.319   2.831   7.160 -0.3219 -0.4534  0.3514
 9814TIP3    H153637   2.319   2.755   7.102  0.2117  2.2405 -3.5411
 9814TIP3    H253638   2.243   2.882   7.132  0.1663  1.1867  1.8208
 9815TIP3   OH253639   3.236   4.701   7.645 -0.1963  0.1494 -0.1410
 9815TIP3    H153640   3.274   4.615   7.630 -0.7957 -0.3943  1.2944
 9815TIP3    H253641   3.146   4.684   7.674 -0.2017  1.2191  0.5557
 9816TIP3   OH253642   1.743   4.797   9.277  0.2800  0.0733 -0.1922
 9816TIP3    H153643   1.779   4.709   9.283 -1.1221 -0.5103  0.2484
 9816TIP3    H253644   1.693   4.797   9.195 -0.9668 -0.0721  0.5330
 9817TIP3   OH253645   4.229   4.862   4.956 -0.7248 -1.0168  0.4548
 9817TIP3    H153646   4.148   4.835   4.914 -1.2160 -0.8259  1.2557
 9817TIP3    H253647   4.245   4.950   4.922  0.9625 -2.2523 -2.2786
 9818TIP3   OH253648   0.564   5.783   6.003 -0.1896  1.0731  0.2462
 9818TIP3    H153649   0.600   5.794   5.915 -0.9834 -1.4518 -0.4773
 9818TIP3    H253650   0.469   5.791   5.992 -0.5862 -2.2891  0.1826
 9819TIP3   OH253651   1.891   3.631   6.349  0.1457  0.1994 -0.4131
 9819TIP3    H153652   1.827   3.602   6.414  0.0991 -0.3836 -0.7149
 9819TIP3    H253653   1.946   3.554   6.333  1.4146  0.8859  0.4052
 9820TIP3   OH253654   0.990   2.275   8.884  0.7680  0.1740 -0.4883
 9820TIP3    H153655   1.007   2.197   8.830  2.3158 -0.1142  0.3806
 9820TIP3    H253656   1.074   2.295   8.924 -0.0582  1.1669  0.8033
 9821TIP3   OH253657   3.727   0.528   8.600 -0.2543 -0.1142 -0.3965
 9821TIP3    H153658   3.704   0.444   8.640  0.9382 -1.6210 -2.6590
 9821TIP3    H253659   3.803   0.558   8.650 -0.1498 -0.8264 -0.1086
 9822TIP3   OH253660   0.207   6.672   6.237 -0.2153  0.0234  0.1966
 9822TIP3    H153661   0.225   6.580   6.255 -0.4456 -0.0152  0.2408
 9822TIP3    H253662   0.172   6.672   6.147 -1.6990 -0.1302  0.7509
 9823TIP3   OH253663   4.898   6.294   8.117  0.6808  0.0637 -0.1635
 9823TIP3    H153664   4.852   6.325   8.195 -1.9827 -1.3977 -1.0067
 9823TIP3    H253665   4.832   6.296   8.048  2.6538  0.2718 -2.1444
 9824TIP3   OH253666   0.490   6.276   6.166 -0.8551  0.3815 -0.4600
 9824TIP3    H153667   0.402   6.311   6.180 -1.4778 -1.1248 -0.4041
 9824TIP3    H253668   0.500   6.208   6.233  0.3004  0.4362 -0.5545
 9825TIP3   OH253669   1.169   2.104   8.345  0.1947  0.4875 -0.0548
 9825TIP3    H153670   1.118   2.092   8.264  4.0312 -1.1904 -2.4978
 9825TIP3    H253671   1.227   2.177   8.326 -0.0590  1.2690  1.9878
 9826TIP3   OH253672   3.904   1.747   7.488 -0.3290  0.0428  0.2877
 9826TIP3    H153673   3.941   1.669   7.529 -0.8992  0.0902  0.9165
 9826TIP3    H253674   3.959   1.819   7.517 -1.4409  0.2470  1.9995
 9827TIP3   OH253675   0.092   4.541   6.200 -0.1494 -0.2214  0.2539
 9827TIP3    H153676   0.181   4.511   6.184 -0.7531 -2.1936  0.3880
 9827TIP3    H253677   0.070   4.593   6.123 -0.0546 -2.5395 -1.4098
 9828TIP3   OH253678   0.027   4.962   7.089 -0.2010  0.0628  0.0942
 9828TIP3    H153679  -0.018   4.999   7.013 -0.0767 -1.7752 -0.9175
 9828TIP3    H253680   0.118   4.991   7.079  0.0876 -1.1824 -1.1848
 9829TIP3   OH253681   2.606   5.085   8.194  0.0970 -0.4271  0.5085
 9829TIP3    H153682   2.540   5.152   8.212  1.3239  0.7329  0.8540
 9829TIP3    H253683   2.555   5.005   8.177 -1.3761  0.4073  0.8090
 9830TIP3   OH253684   4.850   0.165   8.278  0.3209  0.0508  0.5369
 9830TIP3    H153685   4.827   0.119   8.197 -0.3608 -1.0385  1.3195
 9830TIP3    H253686   4.780   0.229   8.289  1.6368  1.8680 -0.9256
 9831TIP3   OH253687   2.905   4.546   6.557 -0.5078  0.1491 -0.1267
 9831TIP3    H153688   2.882   4.459   6.591 -0.2987  0.0856 -0.1463
 9831TIP3    H253689   2.985   4.570   6.603  0.3373 -0.3722 -1.2709
 9832TIP3   OH253690   3.894   4.598   8.255 -0.0574  0.6659  0.2829
 9832TIP3    H153691   3.883   4.512   8.295  1.0513  1.5782  2.7290
 9832TIP3    H253692   3.868   4.660   8.323  0.3160  2.3086 -0.9987
 9833TIP3   OH253693   2.416   0.027   8.467  0.0801 -0.0699 -0.4551
 9833TIP3    H153694   2.326   0.060   8.469 -0.3833 -1.2291 -1.1620
 9833TIP3    H253695   2.464   0.087   8.524 -1.5455 -0.6427  1.6755
 9834TIP3   OH253696   1.071   2.890   8.739  0.6277  0.8854  0.3838
 9834TIP3    H153697   1.079   2.979   8.775 -0.1615  0.9421  0.4283
 9834TIP3    H253698   1.011   2.846   8.799  4.1342 -0.9923  2.8664
 9835TIP3   OH253699   2.035   5.239   7.515  0.1247 -0.0251 -0.0205
 9835TIP3    H153700   1.945   5.251   7.483 -0.1784 -0.2852  0.7039
 9835TIP3    H253701   2.028   5.252   7.610  1.3104  2.5416 -0.1972
 9836TIP3   OH253702   1.775   6.659   7.779 -0.5542  0.0284  0.4866
 9836TIP3    H153703   1.818   6.744   7.785  1.1593 -0.6890 -0.5968
 9836TIP3    H253704   1.682   6.678   7.774 -0.2738  1.7595  1.3936
 9837TIP3   OH253705   5.847   4.819   5.779  0.3088 -0.1203 -0.7450
 9837TIP3    H153706   5.896   4.893   5.815 -0.5522 -0.3025  0.9061
 9837TIP3    H253707   5.911   4.769   5.729  1.5097  0.3533  0.2842
 9838TIP3   OH253708   1.788   6.440   7.261 -0.3479  0.1972  0.2124
 9838TIP3    H153709   1.869   6.456   7.309 -0.3178  0.5199  0.0556
 9838TIP3    H253710   1.782   6.513   7.199  1.3860 -1.8728 -2.7063
 9839TIP3   OH253711   6.328   5.808   8.339  0.0346 -0.1259 -0.2889
 9839TIP3    H153712   6.348   5.841   8.426 -1.2154 -0.8255  0.2919
 9839TIP3    H253713   6.368   5.721   8.336  1.3631  0.4761 -0.9856
 9840TIP3   OH253714   4.229   3.838   7.097  0.4315  0.2269  0.0680
 9840TIP3    H153715   4.176   3.836   7.017  1.4787 -0.4670 -0.6469
 9840TIP3    H253716   4.311   3.880   7.069  1.0861 -0.6811  0.5816
 9841TIP3   OH253717   3.193   6.605   5.624  0.1918  0.1391  0.0717
 9841TIP3    H153718   3.259   6.659   5.580  0.9440 -0.2194  0.7402
 9841TIP3    H253719   3.123   6.598   5.560  1.0176  0.0977 -0.8638
 9842TIP3   OH253720   5.959   4.008   9.034 -0.1043 -0.9338 -0.2144
 9842TIP3    H153721   5.953   3.924   8.988 -1.9361 -1.2976  0.5671
 9842TIP3    H253722   5.904   4.067   8.983 -1.3797 -1.0936  0.8978
 9843TIP3   OH253723   2.778   5.984   7.994  0.0516  0.1179 -0.8480
 9843TIP3    H153724   2.769   5.939   7.910 -0.2171  0.3127 -0.9259
 9843TIP3    H253725   2.817   5.919   8.052 -0.5252 -0.2844 -0.8995
 9844TIP3   OH253726   0.272   6.368   6.305 -0.1676  0.6938  0.0110
 9844TIP3    H153727   0.184   6.381   6.341  0.0516 -0.6065  1.0953
 9844TIP3    H253728   0.310   6.299   6.359  1.4331  1.0402 -0.6173
 9845TIP3   OH253729   0.427   1.450   8.014  0.1688  0.1369 -0.5174
 9845TIP3    H153730   0.428   1.356   8.031 -0.2300 -0.1189 -1.8038
 9845TIP3    H253731   0.501   1.464   7.955  1.1573  0.8931  0.8442
 9846TIP3   OH253732   4.806   1.316   9.110 -0.1457  0.2287  0.3430
 9846TIP3    H153733   4.716   1.343   9.090 -0.4600 -1.3005 -0.4696
 9846TIP3    H253734   4.855   1.398   9.113 -0.7236  0.9331 -3.5121
 9847TIP3   OH253735   0.830   0.443   8.397 -0.1475 -0.3171 -0.1887
 9847TIP3    H153736   0.909   0.410   8.354  0.4578  3.1999 -2.1631
 9847TIP3    H253737   0.860   0.469   8.484 -0.2199 -2.8699  0.6803
 9848TIP3   OH253738   0.896   6.679   8.070  0.3537  0.2973 -0.1547
 9848TIP3    H153739   0.902   6.600   8.015  0.4075  0.9787 -1.1616
 9848TIP3    H253740   0.816   6.722   8.040 -0.2161  0.1299  1.0847
 9849TIP3   OH253741   3.597   0.890   6.598  0.0252  0.1476  0.6213
 9849TIP3    H153742   3.613   0.981   6.621  2.9396 -0.3595  1.0030
 9849TIP3    H253743   3.545   0.894   6.518 -1.1428  2.0782  1.4074
 9850TIP3   OH253744   2.186   0.103   6.540 -0.1861  0.2954  0.2794
 9850TIP3    H153745   2.180   0.053   6.459  1.0475  0.5437  0.0228
 9850TIP3    H253746   2.095   0.110   6.571 -0.4740 -1.3639 -0.1193
 9851TIP3   OH253747   1.579   3.520   7.021 -0.0054 -0.3166  0.3259
 9851TIP3    H153748   1.547   3.430   7.024  1.0559 -0.7217 -0.2547
 9851TIP3    H253749   1.583   3.541   6.928  2.7416 -0.7729  0.2754
 9852TIP3   OH253750   0.141   0.356   8.915 -0.7704 -0.2483  0.4491
 9852TIP3    H153751   0.171   0.283   8.969  0.8290 -0.4332 -0.6300
 9852TIP3    H253752   0.189   0.432   8.949 -1.9393  0.2072  1.1434
 9853TIP3   OH253753   5.297   2.645   6.276  0.0913 -0.1291  0.6504
 9853TIP3    H153754   5.249   2.662   6.356 -0.6373  1.8931 -0.1470
 9853TIP3    H253755   5.245   2.580   6.229 -0.6594  0.3415  0.8207
 9854TIP3   OH253756   3.694   4.490   8.065  0.2529 -0.2959  1.0097
 9854TIP3    H153757   3.729   4.540   7.991  0.2462 -2.0470 -0.2525
 9854TIP3    H253758   3.770   4.476   8.122  0.7393 -0.6320  0.3039
 9855TIP3   OH253759   6.214   2.378   7.565  0.3683 -0.0054 -0.4956
 9855TIP3    H153760   6.285   2.343   7.512  0.6580  0.1150 -0.1941
 9855TIP3    H253761   6.172   2.301   7.603 -0.3035 -0.1403 -1.4637
 9856TIP3   OH253762   4.098   2.263   7.793  0.3573 -0.0301 -0.0395
 9856TIP3    H153763   4.031   2.197   7.775  1.7819 -1.5602 -0.0068
 9856TIP3    H253764   4.181   2.219   7.774  1.4942  1.0323  2.0850
 9857TIP3   OH253765   0.847   2.473   9.167  0.3888 -0.2001  0.0111
 9857TIP3    H153766   0.826   2.566   9.166  0.3460 -0.2079  0.2370
 9857TIP3    H253767   0.795   2.436   9.238  0.3406 -0.4130 -0.1315
 9858TIP3   OH253768   0.889   3.325   8.219  0.6268 -0.3327  0.0109
 9858TIP3    H153769   0.948   3.298   8.290  0.6639  1.7021  0.8184
 9858TIP3    H253770   0.801   3.319   8.257  0.7523  2.7872  1.0761
 9859TIP3   OH253771   5.509   4.871   6.742  0.3044 -0.0442 -0.0144
 9859TIP3    H153772   5.472   4.785   6.765  2.0914 -0.7865  0.3424
 9859TIP3    H253773   5.599   4.851   6.715  0.5412  1.6632 -0.5893
 9860TIP3   OH253774   6.683   0.353   7.846 -0.1871 -0.0159 -0.4407
 9860TIP3    H153775   6.758   0.328   7.791  0.9863  2.8268 -0.3388
 9860TIP3    H253776   6.610   0.360   7.785  0.6996  1.4434 -1.4052
 9861TIP3   OH253777   5.456   1.817   7.879 -0.0039 -0.3977  0.1413
 9861TIP3    H153778   5.491   1.853   7.798 -0.5355 -0.2031 -0.0096
 9861TIP3    H253779   5.367   1.790   7.856  0.0889 -1.0053  0.4765
 9862TIP3   OH253780   3.478   5.470   5.920 -0.1687  0.4463 -0.0112
 9862TIP3    H153781   3.529   5.491   5.842  0.1584  0.8365  0.3068
 9862TIP3    H253782   3.533   5.497   5.993 -0.2925 -0.3237  0.3712
 9863TIP3   OH253783   4.959   1.095   8.116  0.0648  0.3224 -0.0396
 9863TIP3    H153784   4.870   1.065   8.132  0.8329 -1.4758  1.2046
 9863TIP3    H253785   4.959   1.187   8.142 -0.9728 -0.1730  1.8291
 9864TIP3   OH253786   2.912   1.799   7.635 -0.5221 -0.3187 -0.1540
 9864TIP3    H153787   3.005   1.779   7.641 -0.1764  1.1206 -0.4419
 9864TIP3    H253788   2.875   1.765   7.716  0.0510 -1.8393 -0.4945
 9865TIP3   OH253789   6.444   1.701   6.582  0.4657  0.7936  0.1753
 9865TIP3    H153790   6.531   1.667   6.562 -0.1150 -0.3511 -0.4883
 9865TIP3    H253791   6.447   1.719   6.676  0.6912 -1.5228  0.6601
 9866TIP3   OH253792   0.540   6.532   5.804  0.1421 -0.0045  0.1086
 9866TIP3    H153793   0.558   6.544   5.710  0.0762 -0.0651  0.0878
 9866TIP3    H253794   0.626   6.532   5.845  0.2509 -1.1320 -0.0800
 9867TIP3   OH253795   0.780   5.769   5.424  0.2654 -0.0855 -0.0152
 9867TIP3    H153796   0.718   5.832   5.460  1.1867  0.2971  0.9248
 9867TIP3    H253797   0.847   5.822   5.382  0.9373 -0.4230  0.6058
 9868TIP3   OH253798   2.069   6.595   8.590 -0.7555  0.2061 -0.1319
 9868TIP3    H153799   1.984   6.554   8.574 -0.1424 -0.6643 -1.2542
 9868TIP3    H253800   2.120   6.529   8.635 -0.7394  0.8253  0.7871
 9869TIP3   OH253801   2.144   1.836   6.371 -0.0848 -0.2846  0.0912
 9869TIP3    H153802   2.178   1.876   6.291  0.3223  0.1542  0.4736
 9869TIP3    H253803   2.085   1.902   6.407 -0.2493 -0.4712  0.1674
 9870TIP3   OH253804   6.075   4.532   7.651  0.1275 -0.1404 -0.0107
 9870TIP3    H153805   6.043   4.592   7.718 -0.6873  0.4258 -0.8732
 9870TIP3    H253806   6.109   4.590   7.582  0.3370 -0.6903 -0.3757
 9871TIP3   OH253807   5.565   6.273   5.427  0.5240 -0.1212 -0.2510
 9871TIP3    H153808   5.485   6.268   5.375 -0.4484 -0.5004  1.2163
 9871TIP3    H253809   5.590   6.365   5.426 -0.5042  0.1708  0.0838
 9872TIP3   OH253810   0.363   0.602   7.008 -0.0715  0.4374  0.0341
 9872TIP3    H153811   0.287   0.660   7.006 -1.5106 -1.3356  0.3558
 9872TIP3    H253812   0.432   0.655   7.049 -1.9056  1.2914  2.2665
 9873TIP3   OH253813   2.825   5.211   7.612  0.6677 -0.2124 -0.1414
 9873TIP3    H153814   2.742   5.251   7.640  0.2919 -1.5086  0.6736
 9873TIP3    H253815   2.833   5.235   7.520 -0.6408 -0.0981 -0.2491
 9874TIP3   OH253816   0.021   4.592   6.807 -0.3549 -0.3678  0.4892
 9874TIP3    H153817   0.066   4.656   6.753  0.4586 -0.9204  0.4903
 9874TIP3    H253818   0.041   4.619   6.897 -0.5200 -0.2724  0.4975
 9875TIP3   OH253819   5.947   0.559   6.228 -0.3021 -0.5972  0.4635
 9875TIP3    H153820   5.865   0.590   6.191  0.0767 -1.7318 -1.4681
 9875TIP3    H253821   5.923   0.520   6.312 -1.8995 -1.6516 -0.4296
 9876TIP3   OH253822   0.682   0.302   8.069  0.1842 -0.6904 -0.3240
 9876TIP3    H153823   0.659   0.212   8.047  2.2201 -1.2696 -0.2476
 9876TIP3    H253824   0.624   0.325   8.141 -0.8009 -1.7051 -0.7693
 9877TIP3   OH253825   6.247   5.060   6.607 -0.1195  0.2818  0.3177
 9877TIP3    H153826   6.281   4.981   6.648 -0.5807 -0.8264 -1.3650
 9877TIP3    H253827   6.224   5.117   6.681 -0.6255 -1.4932  1.5986
 9878TIP3   OH253828   5.867   2.082   8.501 -0.2543  0.7353  0.3305
 9878TIP3    H153829   5.888   2.170   8.532 -0.1714 -0.0200  2.6292
 9878TIP3    H253830   5.827   2.039   8.577 -0.4390 -1.1597 -0.7810
 9879TIP3   OH253831   2.494   1.186   6.612  0.3623 -0.1064  0.0509
 9879TIP3    H153832   2.526   1.100   6.640 -1.4554 -1.2735 -1.2141
 9879TIP3    H253833   2.516   1.190   6.519 -0.5598  0.3088 -0.1580
 9880TIP3   OH253834   2.261   1.540   5.652  0.6795  0.1069 -0.1107
 9880TIP3    H153835   2.300   1.462   5.612  1.7591  1.6845 -2.3684
 9880TIP3    H253836   2.170   1.538   5.624  1.0809  0.4342 -1.5101
 9881TIP3   OH253837   3.031   0.315   5.939  0.1772 -0.2013 -0.1364
 9881TIP3    H153838   3.060   0.239   5.990 -1.1298 -0.6382 -0.0202
 9881TIP3    H253839   3.092   0.319   5.865  1.5184 -0.1216  0.9295
 9882TIP3   OH253840   0.661   6.702   6.094  0.9078  0.3976 -0.3139
 9882TIP3    H153841   0.573   6.722   6.061  0.7900 -1.0780 -1.0006
 9882TIP3    H253842   0.657   6.720   6.188 -0.4631 -0.6286 -0.1398
 9883TIP3   OH253843   3.372   6.499   6.196  0.0026 -0.1816  0.3229
 9883TIP3    H153844   3.463   6.526   6.198  0.0384 -0.3195  0.7842
 9883TIP3    H253845   3.345   6.510   6.105  0.8193 -1.2622 -0.0662
 9884TIP3   OH253846   1.461   5.567   6.833 -0.0677  0.6389 -0.2106
 9884TIP3    H153847   1.457   5.612   6.748  1.5257  0.4366 -0.4182
 9884TIP3    H253848   1.547   5.591   6.869 -1.0785  1.4885  1.7961
 9885TIP3   OH253849   5.818   4.134   7.906  0.1218  0.4165 -0.3524
 9885TIP3    H153850   5.862   4.169   7.828  0.1309  0.7730 -0.1906
 9885TIP3    H253851   5.865   4.054   7.927 -1.3463 -0.9887 -2.1192
 9886TIP3   OH253852   3.420   4.269   8.387 -0.0449 -0.7827 -0.0171
 9886TIP3    H153853   3.439   4.346   8.334  0.0776 -1.3900 -0.8764
 9886TIP3    H253854   3.506   4.232   8.406 -0.0194 -0.0752  1.3958
 9887TIP3   OH253855   3.858   1.482   6.787  0.4343 -0.0589 -0.7700
 9887TIP3    H153856   3.918   1.521   6.851  2.4131  1.0563 -3.1395
 9887TIP3    H253857   3.796   1.552   6.767 -0.1731 -0.4011 -0.0847
 9888TIP3   OH253858   4.634   4.897   8.061  0.0438 -0.0969 -0.6906
 9888TIP3    H153859   4.682   4.978   8.082 -0.4393  0.0780 -0.2443
 9888TIP3    H253860   4.700   4.839   8.025  0.4063  0.4916 -0.9946
 9889TIP3   OH253861   2.088   3.750   7.503  0.7676  0.4181 -0.1101
 9889TIP3    H153862   2.057   3.834   7.467  1.4402 -0.4453 -2.9473
 9889TIP3    H253863   2.166   3.729   7.451 -0.0871 -2.5594 -0.3574
 9890TIP3   OH253864   0.793   5.017   7.327 -0.0224  0.0684  0.3246
 9890TIP3    H153865   0.869   5.016   7.269  0.2365 -0.1462  0.6652
 9890TIP3    H253866   0.813   4.952   7.394 -0.9479 -0.7253 -0.1515
 9891TIP3   OH253867   2.040   5.037   6.662 -0.3976 -0.3808  0.4450
 9891TIP3    H153868   1.978   5.047   6.589 -0.2161  0.0983  0.3497
 9891TIP3    H253869   2.043   5.124   6.702  1.4355  0.0676 -0.5599
 9892TIP3   OH253870   3.918   2.062   6.428  0.1927  0.2489  0.4505
 9892TIP3    H153871   3.901   2.003   6.502 -1.3142  0.7937  0.5734
 9892TIP3    H253872   3.894   2.149   6.460  1.3656  0.8015 -0.0802
 9893TIP3   OH253873   4.231   5.219   7.914  0.0145 -0.2941  0.1705
 9893TIP3    H153874   4.192   5.248   7.831 -0.0841  0.6649  0.5364
 9893TIP3    H253875   4.197   5.131   7.927 -0.7782 -0.0718 -0.3139
 9894TIP3   OH253876   1.144   5.573   5.830  0.1128  0.4531  0.5745
 9894TIP3    H153877   1.097   5.625   5.764  1.3606  1.8709  0.7709
 9894TIP3    H253878   1.096   5.589   5.911  0.3943  1.1581  0.6005
 9895TIP3   OH253879   3.261   5.201   6.409  0.7095  0.0573 -0.3847
 9895TIP3    H153880   3.283   5.288   6.378  1.3912 -0.0385 -0.1913
 9895TIP3    H253881   3.305   5.194   6.494  1.1154 -0.6704 -0.6490
 9896TIP3   OH253882   1.654   1.078   6.872 -0.5491 -0.5093  0.6656
 9896TIP3    H153883   1.579   1.019   6.863 -2.3240  1.4703  1.5816
 9896TIP3    H253884   1.615   1.164   6.885  1.9147  1.0326 -1.2650
 9897TIP3   OH253885   3.551   5.937   7.800 -0.6728  0.3726  0.4029
 9897TIP3    H153886   3.631   5.913   7.752 -0.6100  1.4594 -0.0529
 9897TIP3    H253887   3.515   6.011   7.751 -1.5692  0.3662  1.0332
 9898TIP3   OH253888   0.067   6.164   5.518 -0.0812  0.5751  0.3928
 9898TIP3    H153889   0.015   6.169   5.438  1.7194 -4.2282 -1.4728
 9898TIP3    H253890   0.004   6.136   5.586 -0.6926 -1.8324 -1.0274
 9899TIP3   OH253891   4.724   5.479   7.813 -0.1436 -0.2272  0.3523
 9899TIP3    H153892   4.767   5.459   7.730 -0.3359 -1.9173  0.6192
 9899TIP3    H253893   4.638   5.438   7.805 -1.2718  1.9875  0.3300
 9900TIP3   OH253894   1.262   5.846   6.914 -0.1178  0.1780  0.3347
 9900TIP3    H153895   1.332   5.884   6.861 -0.1600  0.4465  0.4717
 9900TIP3    H253896   1.246   5.760   6.874 -1.1502  0.9496 -0.9924
 9901TIP3   OH253897   0.243   2.342   6.419  0.1589 -0.1972  0.0270
 9901TIP3    H153898   0.304   2.274   6.391  0.1242  0.8886 -2.9673
 9901TIP3    H253899   0.157   2.307   6.397  0.0032  0.0322  0.2724
 9902TIP3   OH253900   6.321   5.016   5.828  0.3682 -0.1208  0.1520
 9902TIP3    H153901   6.314   5.007   5.923  0.8567 -1.2000  0.1094
 9902TIP3    H253902   6.408   5.053   5.813 -0.0348  0.8566  0.1459
 9903TIP3   OH253903   5.442   1.429   6.282  0.2909  0.0623 -0.2704
 9903TIP3    H153904   5.385   1.395   6.350 -0.6008  1.4042 -0.2945
 9903TIP3    H253905   5.489   1.353   6.249 -1.0892 -0.9999  0.1330
 9904TIP3   OH253906   1.029   4.644   5.977  0.4932 -0.0574 -0.1616
 9904TIP3    H153907   0.987   4.598   5.904  0.5162  0.1041 -0.2777
 9904TIP3    H253908   1.073   4.575   6.026 -1.6511 -0.5687  1.1843
 9905TIP3   OH253909   5.546   4.121   8.125 -0.2507  0.2062 -0.3079
 9905TIP3    H153910   5.508   4.038   8.098  0.1680  0.1367 -0.6743
 9905TIP3    H253911   5.470   4.176   8.145 -0.5797  0.2529 -1.5996
 9906TIP3   OH253912   3.029   3.627   5.629 -0.2684 -0.1377  0.1353
 9906TIP3    H153913   3.088   3.615   5.555  0.9417  1.4951  0.7621
 9906TIP3    H253914   3.034   3.721   5.649 -1.8809 -0.2316  1.2134
 9907TIP3   OH253915   3.964   3.399   8.830  0.3258 -0.4336  0.5607
 9907TIP3    H153916   3.989   3.446   8.910 -1.9536  0.1172  1.0215
 9907TIP3    H253917   3.893   3.341   8.857  0.3070 -1.1244 -0.8509
 9908TIP3   OH253918   0.913   6.313   7.733  0.4537  0.0034  0.0909
 9908TIP3    H153919   0.944   6.250   7.798 -0.5218  0.5811  1.1469
 9908TIP3    H253920   0.886   6.259   7.659  3.1723 -0.5701 -0.5880
 9909TIP3   OH253921   6.419   1.847   8.965  0.4695 -0.1502 -0.0781
 9909TIP3    H153922   6.341   1.859   9.019 -1.8047  0.1571 -3.1850
 9909TIP3    H253923   6.456   1.935   8.957 -0.1854  0.1052 -0.3865
 9910TIP3   OH253924   2.244   5.890   8.235 -0.0121  0.1154 -0.0491
 9910TIP3    H153925   2.283   5.869   8.150 -1.8334  3.9734 -2.1334
 9910TIP3    H253926   2.159   5.844   8.234 -0.4688  0.9320 -0.8619
 9911TIP3   OH253927   2.537   3.476   7.360 -0.6990 -0.4000 -0.5550
 9911TIP3    H153928   2.491   3.393   7.373 -0.5088 -0.5307 -0.7245
 9911TIP3    H253929   2.526   3.495   7.267  0.6239 -1.0388 -0.8546
 9912TIP3   OH253930   4.289   3.649   6.397 -0.1122 -0.4271  0.2351
 9912TIP3    H153931   4.276   3.733   6.354  2.9175  0.4727  0.8953
 9912TIP3    H253932   4.282   3.585   6.326  0.0417  0.5930 -0.7216
 9913TIP3   OH253933   2.199   3.088   8.338  0.2246  0.3503 -0.0186
 9913TIP3    H153934   2.265   3.065   8.272  0.4474  0.1906  0.2587
 9913TIP3    H253935   2.244   3.077   8.422 -0.7811 -1.9957  0.3150
 9914TIP3   OH253936   4.305   5.650   5.201 -0.0432 -0.2262  0.0976
 9914TIP3    H153937   4.343   5.568   5.235  0.5191  0.1766  0.4585
 9914TIP3    H253938   4.380   5.709   5.192 -0.0474 -0.4986 -2.4608
 9915TIP3   OH253939   3.157   2.761   6.010  0.3602  0.0614  0.0416
 9915TIP3    H153940   3.088   2.766   5.943  0.5317  0.5040 -0.1046
 9915TIP3    H253941   3.175   2.852   6.032  1.3346 -0.0280 -0.3631
 9916TIP3   OH253942   2.810   3.915   5.855 -0.4923  0.5616  0.3384
 9916TIP3    H153943   2.778   3.879   5.937  1.1849 -1.2368  0.2447
 9916TIP3    H253944   2.731   3.948   5.811 -2.0102 -2.1832  0.8411
 9917TIP3   OH253945   0.083   3.992   8.008 -0.3134  0.3174 -0.3563
 9917TIP3    H153946   0.052   4.082   7.994 -0.3047  0.6143  1.3476
 9917TIP3    H253947   0.176   3.995   7.988 -0.4128  0.5650 -0.7927
 9918TIP3   OH253948   3.804   4.882   7.336  0.3301  0.1631 -0.3345
 9918TIP3    H153949   3.758   4.933   7.269 -1.5782 -1.2964 -0.2318
 9918TIP3    H253950   3.823   4.799   7.293  0.4579 -0.2310  0.4772
 9919TIP3   OH253951   4.737   3.172   7.028 -0.3072  0.3806 -0.1914
 9919TIP3    H153952   4.662   3.113   7.025 -0.8043  1.0127 -1.8549
 9919TIP3    H253953   4.800   3.129   7.085 -1.0710 -1.2362 -0.5067
 9920TIP3   OH253954   0.153   0.056   8.767 -0.6791  0.5684 -0.1369
 9920TIP3    H153955   0.169   0.114   8.842  0.4332 -0.2690  0.3015
 9920TIP3    H253956   0.059   0.060   8.754 -0.7257  1.8702  0.3739
 9921TIP3   OH253957   6.318   3.738   8.409 -0.2808 -0.3709 -0.1449
 9921TIP3    H153958   6.236   3.730   8.456  0.1198  0.6250  0.7693
 9921TIP3    H253959   6.379   3.775   8.473  0.3983  0.6144 -1.3155
 9922TIP3   OH253960   1.163   0.694   6.786 -0.0049 -0.4986  0.0723
 9922TIP3    H153961   1.141   0.729   6.873 -1.3144 -1.9357  0.3692
 9922TIP3    H253962   1.150   0.599   6.795 -0.6446 -0.6211 -1.8163
 9923TIP3   OH253963   0.562   0.423   8.303 -0.3481 -0.4037  0.4884
 9923TIP3    H153964   0.509   0.502   8.288 -0.7986 -0.8432 -0.2839
 9923TIP3    H253965   0.648   0.457   8.327 -0.7412  0.3252  0.9521
 9924TIP3   OH253966   0.091   2.793   6.900  0.0886  0.6129 -0.2176
 9924TIP3    H153967   0.065   2.814   6.990  0.1240 -1.3503  0.2919
 9924TIP3    H253968   0.009   2.775   6.855  0.2117 -1.5778  0.3199
 9925TIP3   OH253969   1.266   0.366   6.369  0.6223 -0.6750  0.5403
 9925TIP3    H153970   1.219   0.433   6.320 -0.9979  0.6069  3.6397
 9925TIP3    H253971   1.355   0.401   6.377  0.7275 -0.5737 -0.7424
 9926TIP3   OH253972   0.350   0.495   6.321 -0.6010 -0.2407 -0.7370
 9926TIP3    H153973   0.319   0.482   6.411 -0.0236  0.9889 -0.3364
 9926TIP3    H253974   0.436   0.537   6.331  0.0811 -1.2924 -1.8575
 9927TIP3   OH253975   4.973   4.603   5.962  0.5628 -0.1226 -0.2917
 9927TIP3    H153976   4.933   4.642   5.884  2.1595 -0.9094 -1.5395
 9927TIP3    H253977   4.913   4.627   6.033 -0.4874  1.3441 -1.6001
 9928TIP3   OH253978   0.126   3.614   5.811  0.0898  0.0261 -0.3430
 9928TIP3    H153979   0.105   3.678   5.879  3.6728  0.3426  0.6585
 9928TIP3    H253980   0.114   3.529   5.854  0.7831  0.1930  0.2025
 9929TIP3   OH253981   1.871   2.172   6.832 -0.1534  0.1552 -0.2780
 9929TIP3    H153982   1.856   2.253   6.880  0.1037  0.0161  0.0373
 9929TIP3    H253983   1.919   2.116   6.893 -1.1696 -0.5951 -0.1524
 9930TIP3   OH253984   5.224   3.330   6.566  0.1102  0.1261  0.0812
 9930TIP3    H153985   5.200   3.242   6.595  0.5462  0.3702  1.2668
 9930TIP3    H253986   5.175   3.389   6.624  0.8836  0.6428  0.2334
 9931TIP3   OH253987   4.422   3.722   5.875  0.0442  0.0789 -0.2403
 9931TIP3    H153988   4.450   3.793   5.933  2.2766 -1.1319  0.2815
 9931TIP3    H253989   4.328   3.736   5.864  0.0593  1.9684  1.4009
 9932TIP3   OH253990   4.934   0.169   8.581 -0.4712  0.0509  0.3459
 9932TIP3    H153991   4.920   0.156   8.488  0.0021 -0.1979  0.3061
 9932TIP3    H253992   5.027   0.151   8.594 -0.9169 -1.9610  1.2005
 9933TIP3   OH253993   3.248   4.076   7.604  0.4632  0.0313 -0.0404
 9933TIP3    H153994   3.246   4.037   7.517  0.8333  0.6380 -0.3252
 9933TIP3    H253995   3.159   4.108   7.618 -0.1334 -1.7705  0.6096
 9934TIP3   OH253996   5.723   0.199   5.772  0.4634 -0.6706 -0.0293
 9934TIP3    H153997   5.658   0.199   5.842 -2.0194  0.6084 -2.1123
 9934TIP3    H253998   5.801   0.236   5.811 -0.9909  0.5355  1.9338
 9935TIP3   OH253999   4.577   2.903   8.810 -0.3159 -0.1000  0.4786
 9935TIP3    H154000   4.527   2.830   8.847 -0.2819 -0.5005 -0.2511
 9935TIP3    H254001   4.511   2.958   8.767 -0.1290 -0.7966 -0.7653
 9936TIP3   OH254002   4.227   2.685   6.156  0.1403  0.4013  0.7593
 9936TIP3    H154003   4.139   2.648   6.169  0.2191 -0.2864 -0.6016
 9936TIP3    H254004   4.253   2.657   6.069  2.1005 -0.1500  1.4701
 9937TIP3   OH254005   4.008   4.181   7.916 -0.1455 -0.5640  0.1032
 9937TIP3    H154006   3.997   4.261   7.865  0.5986 -0.3150  0.3227
 9937TIP3    H254007   4.008   4.111   7.850 -0.6454 -0.3803 -0.1002
 9938TIP3   OH254008   5.207   6.042   7.844  0.5990 -0.2191 -0.5452
 9938TIP3    H154009   5.118   6.077   7.852 -0.1350 -2.3343  3.1583
 9938TIP3    H254010   5.194   5.947   7.834  2.2641 -0.8654  2.2091
 9939TIP3   OH254011   3.846   0.911   7.769  0.2904 -0.5327 -0.3407
 9939TIP3    H154012   3.872   0.884   7.857  2.5188  1.4447 -0.2609
 9939TIP3    H254013   3.867   0.837   7.713  1.4582 -0.8459  0.4754
 9940TIP3   OH254014   1.052   1.684   8.570  0.2195 -0.1068 -0.0447
 9940TIP3    H154015   1.027   1.765   8.613  0.5105  0.1933 -0.4355
 9940TIP3    H254016   1.112   1.641   8.630 -0.8781 -0.6255  0.7108
 9941TIP3   OH254017   5.588   4.013   5.482 -0.1651 -0.1420 -0.3627
 9941TIP3    H154018   5.581   3.919   5.467 -0.6170 -0.1991  0.2024
 9941TIP3    H254019   5.526   4.031   5.552  1.0049  0.3266  0.5807
 9942TIP3   OH254020   6.611   5.879   5.375 -0.0872  0.0970 -0.3795
 9942TIP3    H154021   6.582   5.790   5.356 -1.3465  0.0171  1.6849
 9942TIP3    H254022   6.536   5.921   5.417  1.1325  1.5021  0.5003
 9943TIP3   OH254023   2.052   5.537   7.509 -0.4960 -0.1994  0.4953
 9943TIP3    H154024   2.038   5.446   7.481  0.4686  0.0180 -0.7995
 9943TIP3    H254025   2.002   5.545   7.590  0.9084 -2.4461  1.7012
 9944TIP3   OH254026   6.300   3.979   7.323  0.2519 -0.0799  0.1718
 9944TIP3    H154027   6.361   4.043   7.287 -1.6562  0.6371 -1.9806
 9944TIP3    H254028   6.247   3.951   7.249 -2.1813 -0.5118  1.9508
 9945TIP3   OH254029   3.200   2.340   8.196  0.3309  0.3200 -0.0673
 9945TIP3    H154030   3.236   2.422   8.161  1.3181  0.0337  0.2430
 9945TIP3    H254031   3.139   2.310   8.130  1.7531  0.0716 -1.3114
 9946TIP3   OH254032   3.324   1.166   8.235  0.0419  0.0874  0.1522
 9946TIP3    H154033   3.392   1.219   8.194 -0.7855  0.3545 -0.8961
 9946TIP3    H254034   3.359   1.147   8.323  1.9096 -0.6174 -0.6790
 9947TIP3   OH254035   4.853   4.382   5.530 -0.6526 -0.6459 -0.0783
 9947TIP3    H154036   4.921   4.344   5.585  1.0940  0.0642 -1.6595
 9947TIP3    H254037   4.811   4.448   5.587 -0.1695 -1.2210  0.9805
 9948TIP3   OH254038   3.624   6.127   7.386  0.5069  0.2495  0.5899
 9948TIP3    H154039   3.598   6.105   7.297 -0.0648  2.1802  0.2271
 9948TIP3    H254040   3.648   6.044   7.426  1.1434 -0.6031 -1.4685
 9949TIP3   OH254041   2.764   2.988   6.387  0.8408 -0.0452 -0.2634
 9949TIP3    H154042   2.806   3.016   6.306 -0.9163 -0.2187 -1.2912
 9949TIP3    H254043   2.790   2.896   6.396 -0.2514 -0.5260 -1.5732
 9950TIP3   OH254044   0.400   2.238   8.788  0.0858  0.1843  0.5864
 9950TIP3    H154045   0.423   2.280   8.705 -1.9890 -0.9029 -0.6224
 9950TIP3    H254046   0.470   2.174   8.802  1.0531  1.1351  0.2956
 9951TIP3   OH254047   3.168   4.186   8.479  0.1551 -0.5391 -0.2643
 9951TIP3    H154048   3.243   4.235   8.445 -1.0932  2.1537  0.5896
 9951TIP3    H254049   3.205   4.125   8.542  1.8505 -1.2115 -1.8057
 9952TIP3   OH254050   5.896   2.519   7.936 -0.2486  0.4186 -0.3046
 9952TIP3    H154051   5.919   2.467   8.014 -0.8390  1.4505  0.5856
 9952TIP3    H254052   5.909   2.459   7.863  0.2579 -0.6074  0.5920
 9953TIP3   OH254053   1.576   2.561   7.944 -0.2715  0.3945  0.3401
 9953TIP3    H154054   1.614   2.562   7.857  2.0068 -3.2525  1.0842
 9953TIP3    H254055   1.641   2.606   7.999 -0.8191  1.0427  0.4744
 9954TIP3   OH254056   0.126   6.236   7.735  0.1434 -0.5007 -0.2770
 9954TIP3    H154057   0.060   6.272   7.795 -0.1565 -0.1275 -0.8218
 9954TIP3    H254058   0.209   6.269   7.769  0.1407 -1.5583  0.8377
 9955TIP3   OH254059   2.048   4.411   6.413 -0.7842  0.5883  0.1289
 9955TIP3    H154060   2.135   4.439   6.383 -0.6207  0.9375  0.8995
 9955TIP3    H254061   2.064   4.325   6.454 -1.2106 -0.4820 -1.8334
 9956TIP3   OH254062   3.113   4.550   8.384 -0.1875  0.8888 -0.2023
 9956TIP3    H154063   3.075   4.479   8.331 -1.3934  0.8895  0.6254
 9956TIP3    H254064   3.117   4.624   8.324 -0.6854  0.6428 -0.5471
 9957TIP3   OH254065   4.234   0.318   7.610 -0.5137  0.8287  0.0809
 9957TIP3    H154066   4.235   0.385   7.678 -0.1820  0.1482  0.7656
 9957TIP3    H254067   4.302   0.256   7.636 -0.7141  0.3029 -0.6102
 9958TIP3   OH254068   4.530   4.239   6.835 -0.2841 -0.7017 -0.1703
 9958TIP3    H154069   4.486   4.227   6.751  0.6842 -0.9719 -0.6551
 9958TIP3    H254070   4.623   4.244   6.813 -0.1530  1.2411  0.6841
 9959TIP3   OH254071   1.263   3.772   8.595 -0.1993  0.0938 -0.0545
 9959TIP3    H154072   1.325   3.838   8.623  1.3814 -1.3730  0.0522
 9959TIP3    H254073   1.281   3.759   8.502  0.3483 -1.0233  0.1909
 9960TIP3   OH254074   4.486   2.114   8.604 -1.0424 -0.2885  0.4561
 9960TIP3    H154075   4.449   2.045   8.659 -0.5732 -0.5377  0.4701
 9960TIP3    H254076   4.481   2.193   8.658 -3.9223  0.2695 -0.4844
 9961TIP3   OH254077   1.698   5.640   9.272  0.0948  0.0954  0.8699
 9961TIP3    H154078   1.618   5.591   9.253  0.3367 -0.0847  0.2786
 9961TIP3    H254079   1.735   5.596   9.349  0.4046 -0.7831  0.2411
 9962TIP3   OH254080   1.783   4.452   5.675 -0.0819 -0.1829  0.2807
 9962TIP3    H154081   1.690   4.460   5.655 -0.0018  0.0483 -0.0130
 9962TIP3    H254082   1.794   4.498   5.758 -0.1073  0.3899 -0.0332
 9963TIP3   OH254083   5.269   5.931   8.387 -0.2111 -0.1692 -0.4383
 9963TIP3    H154084   5.213   6.004   8.360  1.3494  1.1244 -0.3538
 9963TIP3    H254085   5.290   5.949   8.479 -0.4476 -1.1803 -0.1721
 9964TIP3   OH254086   1.625   4.245   7.850 -0.3357  0.1073 -0.4439
 9964TIP3    H154087   1.678   4.256   7.770 -0.1137  0.0325 -0.3092
 9964TIP3    H254088   1.690   4.243   7.921 -0.6026  1.3472 -0.1455
 9965TIP3   OH254089   3.928   5.461   7.383 -0.3370 -0.2716  0.1729
 9965TIP3    H154090   3.881   5.435   7.303  0.3836 -0.1094 -0.3088
 9965TIP3    H254091   3.968   5.545   7.361 -1.4009  0.5589  1.2249
 9966TIP3   OH254092   6.054   2.105   6.146 -0.8806  0.3752  0.2650
 9966TIP3    H154093   6.006   2.155   6.212 -3.2482  0.6209 -1.4862
 9966TIP3    H254094   6.110   2.170   6.103 -0.0260  0.3994  1.3868
 9967TIP3   OH254095   0.405   2.267   7.625 -0.2864  0.1300  0.4279
 9967TIP3    H154096   0.410   2.339   7.562 -1.1368  0.6175  0.8996
 9967TIP3    H254097   0.408   2.188   7.571  0.4790  0.5182 -0.1093
 9968TIP3   OH254098   3.944   3.979   5.776 -0.0247 -0.0261  0.5854
 9968TIP3    H154099   3.907   3.896   5.747  2.0347 -0.9537  0.4172
 9968TIP3    H254100   4.035   3.958   5.801  0.1166  1.8847  1.9669
 9969TIP3   OH254101   5.639   5.207   8.333  0.3072  0.4797  0.4415
 9969TIP3    H154102   5.588   5.287   8.318  1.5480  1.3415  0.6798
 9969TIP3    H254103   5.721   5.237   8.371  1.3049 -0.7878 -0.5805
 9970TIP3   OH254104   5.803   4.203   7.092  0.1814  0.1407 -0.0867
 9970TIP3    H154105   5.739   4.212   7.163 -1.5409  2.4365 -1.7558
 9970TIP3    H254106   5.866   4.273   7.108  0.1881  0.2074 -0.3961
 9971TIP3   OH254107   6.187   5.034   8.001 -0.1653  0.1413  0.3605
 9971TIP3    H154108   6.226   4.982   7.931 -1.8036 -0.4406 -0.1756
 9971TIP3    H254109   6.134   4.972   8.051 -1.5382  1.1139  0.1754
 9972TIP3   OH254110   1.254   5.199   7.484  0.0724 -0.7935 -0.2633
 9972TIP3    H154111   1.284   5.142   7.412  0.2754 -2.0306  0.7628
 9972TIP3    H254112   1.314   5.180   7.556 -0.6482 -0.2053  0.5135
 9973TIP3   OH254113   4.110   6.264   7.526  0.3734 -0.3133 -0.4767
 9973TIP3    H154114   4.119   6.179   7.482  1.6294 -0.4800  0.0498
 9973TIP3    H254115   4.038   6.251   7.587 -0.0636 -0.7016 -1.0608
 9974TIP3   OH254116   5.753   0.707   7.575 -0.0913  0.1411  0.0356
 9974TIP3    H154117   5.719   0.624   7.607 -2.4763  2.2103  3.5783
 9974TIP3    H254118   5.731   0.709   7.482 -1.8134 -2.2930  0.3120
 9975TIP3   OH254119   6.556   6.183   7.556  0.1049 -0.6258  0.5279
 9975TIP3    H154120   6.528   6.260   7.605 -1.0112 -0.7062  0.0469
 9975TIP3    H254121   6.518   6.194   7.469  0.1250 -1.5973  0.3805
 9976TIP3   OH254122   2.851   0.361   7.120 -0.1133  0.0008  0.1774
 9976TIP3    H154123   2.759   0.378   7.137 -0.5496 -1.4750 -0.5918
 9976TIP3    H254124   2.853   0.322   7.032  1.3650  1.1057 -0.3309
 9977TIP3   OH254125   5.396   4.683   6.907  0.4955 -0.1722 -0.0760
 9977TIP3    H154126   5.388   4.625   6.831  0.4816 -0.5766  0.2288
 9977TIP3    H254127   5.453   4.635   6.968 -0.0636 -0.1645  0.4649
 9978TIP3   OH254128   6.156   2.931   8.108  0.0323 -0.1892 -0.0743
 9978TIP3    H154129   6.138   2.979   8.027 -1.9003 -1.0406 -0.1969
 9978TIP3    H254130   6.164   2.840   8.081 -1.0908 -0.5455  0.7140
 9979TIP3   OH254131   2.398   5.907   7.335 -0.1133  0.3540 -0.2281
 9979TIP3    H154132   2.468   5.967   7.309  0.4495 -0.5070 -0.7398
 9979TIP3    H254133   2.423   5.823   7.297 -0.5589 -0.3654  1.0210
 9980TIP3   OH254134   2.714   3.703   8.102 -0.6116  0.2275 -0.4530
 9980TIP3    H154135   2.774   3.745   8.039 -0.6361 -0.1071 -0.7013
 9980TIP3    H254136   2.629   3.705   8.059 -0.9044  1.2105  0.1347
 9981TIP3   OH254137   5.448   6.252   8.334 -0.2382  0.3816  0.4900
 9981TIP3    H154138   5.366   6.227   8.377 -0.7936  1.6487  0.2240
 9981TIP3    H254139   5.423   6.265   8.242  0.7085 -1.2487 -0.0317
 9982TIP3   OH254140   1.892   5.513   9.047 -0.1812  0.1068  0.0420
 9982TIP3    H154141   1.936   5.578   9.102 -0.1557  1.2700 -1.3068
 9982TIP3    H254142   1.799   5.531   9.059 -0.2115 -0.3196  0.4867
 9983TIP3   OH254143   1.410   4.156   8.831  0.4357 -0.3462  0.5345
 9983TIP3    H154144   1.370   4.079   8.871  0.4776 -0.8729 -0.4138
 9983TIP3    H254145   1.385   4.229   8.888 -1.6907 -0.6947  0.1097
 9984TIP3   OH254146   4.507   2.693   6.176 -0.4513 -0.2564  0.7385
 9984TIP3    H154147   4.414   2.695   6.198 -0.5488  0.3308  0.2829
 9984TIP3    H254148   4.528   2.599   6.169 -1.1584 -0.3816  0.2172
 9985TIP3   OH254149   5.922   1.502   8.694 -0.1874 -0.3995  0.2256
 9985TIP3    H154150   5.968   1.458   8.766 -2.0666  1.6318  2.8681
 9985TIP3    H254151   5.960   1.590   8.692 -1.6908  0.2663  0.2794
 9986TIP3   OH254152   1.419   3.410   7.724 -0.2379  0.2684  0.2206
 9986TIP3    H154153   1.490   3.464   7.688 -0.8339  0.6165 -0.4431
 9986TIP3    H254154   1.461   3.325   7.742 -0.3213 -0.7193 -3.3922
 9987TIP3   OH254155   0.888   1.391   7.640 -0.7017  0.2481 -0.8680
 9987TIP3    H154156   0.842   1.383   7.723 -0.5087 -0.1515 -0.7970
 9987TIP3    H254157   0.831   1.348   7.576 -0.9753  0.7902 -0.9931
 9988TIP3   OH254158   2.214   0.586   5.349  0.2902 -0.3216 -0.5198
 9988TIP3    H154159   2.175   0.527   5.284  0.7559 -1.8705  0.5364
 9988TIP3    H254160   2.275   0.530   5.398 -0.8200  0.4936  1.9529
 9989TIP3   OH254161   2.051   1.201   5.909  0.2481  0.1204 -0.0067
 9989TIP3    H154162   1.994   1.272   5.939 -0.1077 -0.2672  0.2466
 9989TIP3    H254163   2.131   1.245   5.881  0.0565  0.6181  0.2118
 9990TIP3   OH254164   5.276   2.057   6.624  0.3198 -0.4822  0.2005
 9990TIP3    H154165   5.366   2.059   6.654  0.1890  2.5668  0.6818
 9990TIP3    H254166   5.224   2.087   6.699 -0.7141  0.8193 -0.9698
 9991TIP3   OH254167   6.620   3.837   7.794  0.0267 -0.4969  0.4488
 9991TIP3    H154168   6.624   3.924   7.755 -0.1885 -0.1846  1.1021
 9991TIP3    H254169   6.687   3.786   7.748  0.6788  0.2262  0.5859
 9992TIP3   OH254170   1.259   5.462   8.331 -0.1062  0.4329 -0.3013
 9992TIP3    H154171   1.235   5.387   8.276 -0.7934  0.2012  0.2950
 9992TIP3    H254172   1.318   5.424   8.397 -1.3889  0.1540  0.7195
 9993TIP3   OH254173   0.061   3.488   7.282  0.2980 -0.6724 -0.5094
 9993TIP3    H154174  -0.007   3.533   7.231 -1.6999 -1.0979  1.5741
 9993TIP3    H254175   0.113   3.558   7.320 -2.1058  0.0230  1.8283
 9994TIP3   OH254176   1.896   2.121   8.317 -0.4237 -0.1084 -0.1163
 9994TIP3    H154177   1.973   2.091   8.270 -0.7023  0.0440 -0.6716
 9994TIP3    H254178   1.823   2.078   8.274 -0.7870  0.9520 -0.5916
 9995TIP3   OH254179   6.410   3.831   7.012  0.3603  0.4164  0.2300
 9995TIP3    H154180   6.435   3.924   7.012 -2.8176  1.3710 -0.6190
 9995TIP3    H254181   6.431   3.800   6.924  1.6002  0.2136  0.5709
 9996TIP3   OH254182   3.775   0.468   7.113 -0.3409 -0.0255 -0.2842
 9996TIP3    H154183   3.823   0.456   7.031 -1.0123 -0.5009 -0.6241
 9996TIP3    H254184   3.754   0.561   7.116  0.5278  0.1725 -0.1648
 9997TIP3   OH254185   6.049   0.371   5.322 -0.0037  0.1837  0.1321
 9997TIP3    H154186   6.023   0.294   5.372 -0.7106 -0.1823 -0.7716
 9997TIP3    H254187   6.066   0.438   5.388 -0.7682 -0.3317  0.8723
 9998TIP3   OH254188   3.733   2.208   7.306 -0.1164 -0.7660  0.5225
 9998TIP3    H154189   3.781   2.127   7.293 -1.0180 -1.0434 -1.5121
 9998TIP3    H254190   3.666   2.208   7.237 -1.5945  0.6427  1.8517
 9999TIP3   OH254191   6.683   1.746   5.541  0.0812  0.7900 -0.6066
 9999TIP3    H154192   6.671   1.840   5.548  2.0743  0.9742  1.7801
 9999TIP3    H254193   6.774   1.735   5.512  0.2514 -0.3571  0.2860
10000TIP3   OH254194   4.557   3.356   6.893 -0.3125 -0.4318 -0.6078
10000TIP3    H154195   4.564   3.428   6.956 -0.6109 -0.8986 -0.0340
10000TIP3    H254196   4.605   3.284   6.933 -1.4721 -1.1019 -0.3647
10001TIP3   OH254197   1.008   2.045   8.747  0.3347  0.1864 -0.5054
10001TIP3    H154198   0.947   2.027   8.676  0.8483 -1.7577 -0.5020
10001TIP3    H254199   1.092   2.012   8.716  0.1157 -3.0783  1.8783
10002TIP3   OH254200   6.164   4.313   8.905  0.4471  0.4538  0.1260
10002TIP3    H154201   6.246   4.286   8.946  0.8043  0.6866 -0.4239
10002TIP3    H254202   6.110   4.345   8.978 -0.5428 -2.9035  1.0796
10003TIP3   OH254203   4.555   4.232   5.004 -0.1737 -0.2864 -0.5984
10003TIP3    H154204   4.483   4.173   4.981 -0.3667 -0.5936  0.6616
10003TIP3    H254205   4.632   4.195   4.961 -0.8955  0.5657 -2.7284
10004TIP3   OH254206   1.058   4.953   7.286 -0.0661 -0.5644  0.2420
10004TIP3    H154207   1.039   4.983   7.374  0.6296  0.7260 -0.0182
10004TIP3    H254208   1.114   4.877   7.297  1.7805  0.8353  0.9292
10005TIP3   OH254209   6.420   3.719   5.908 -0.4891  0.1429 -0.1745
10005TIP3    H154210   6.366   3.773   5.851 -0.5248 -0.2654 -0.5396
10005TIP3    H254211   6.458   3.780   5.971  1.5772  1.0649 -2.1446
10006TIP3   OH254212   4.384   2.950   5.852 -0.2842 -0.3345 -0.0398
10006TIP3    H154213   4.461   2.921   5.901 -0.1198  0.9756  0.5327
10006TIP3    H254214   4.379   3.044   5.870 -0.7494  0.0258 -1.8318
10007TIP3   OH254215   3.325   5.554   7.994  0.2805 -0.0266 -0.3610
10007TIP3    H154216   3.360   5.642   7.976 -0.2514  0.1451 -0.5804
10007TIP3    H254217   3.299   5.558   8.086  2.7676 -0.8267  0.4500
10008TIP3   OH254218   0.093   4.425   6.443 -0.2611  0.4372 -0.0881
10008TIP3    H154219   0.030   4.357   6.420  1.9208 -1.8442  0.3101
10008TIP3    H254220   0.103   4.476   6.362  0.6772 -1.9546 -1.5686
10009TIP3   OH254221   3.779   3.372   6.909 -0.1068  0.0461 -0.3855
10009TIP3    H154222   3.732   3.429   6.970 -1.0577 -0.6786 -0.4156
10009TIP3    H254223   3.710   3.333   6.855  0.4382 -1.7548  0.1692
10010TIP3   OH254224   1.592   1.894   6.175  0.4766 -0.0113  0.2318
10010TIP3    H154225   1.564   1.829   6.109 -0.4267 -1.0393  1.5605
10010TIP3    H254226   1.610   1.842   6.253 -0.1620  1.3276  1.3145
10011TIP3   OH254227   4.286   2.716   6.866  0.4728  0.3049 -0.0051
10011TIP3    H154228   4.208   2.685   6.821  0.7062  0.4508 -0.5164
10011TIP3    H254229   4.357   2.661   6.832  0.5537 -0.0414  0.6880
10012TIP3   OH254230   4.986   5.842   7.016  0.0787  0.5555 -0.0103
10012TIP3    H154231   5.004   5.748   7.011  0.5818  0.6768 -0.5001
10012TIP3    H254232   4.927   5.860   6.943  0.7011  0.7858 -0.4560
10013TIP3   OH254233   5.040   5.325   5.868 -0.4268  0.7300 -0.4593
10013TIP3    H154234   4.954   5.361   5.846  0.0372  2.0044 -0.2911
10013TIP3    H254235   5.021   5.242   5.910 -1.7324  2.0807  1.8033
10014TIP3   OH254236   6.659   3.063   7.343  0.5857 -0.2914  0.0545
10014TIP3    H154237   6.725   3.117   7.300 -0.9928  2.6713  1.1215
10014TIP3    H254238   6.577   3.109   7.330 -0.7111 -1.8659  2.0027
10015TIP3   OH254239   4.107   1.314   7.305  0.1488  0.2528 -0.3487
10015TIP3    H154240   4.112   1.275   7.218  2.0712  0.9808 -0.6164
10015TIP3    H254241   4.081   1.242   7.362 -2.1559 -0.0188 -1.6161
10016TIP3   OH254242   4.048   4.282   5.444 -0.7759 -0.2247 -0.4481
10016TIP3    H154243   3.990   4.212   5.416  1.9698 -2.1772 -1.6835
10016TIP3    H254244   4.105   4.298   5.368  0.4792  1.4151  0.7493
10017TIP3   OH254245   0.902   3.568   6.301 -0.2733  0.3393  1.0939
10017TIP3    H154246   0.913   3.524   6.216  1.4803 -1.8419  2.3586
10017TIP3    H254247   0.943   3.654   6.288  4.2288 -1.5592  0.8506
10018TIP3   OH254248   4.315   1.708   8.043  0.1045  0.0911  0.8888
10018TIP3    H154249   4.380   1.721   7.975 -0.8330 -0.2489 -0.0914
10018TIP3    H254250   4.366   1.679   8.119  0.9108 -2.7429 -0.5961
10019TIP3   OH254251   4.534   3.857   8.641 -0.4161  0.1599  0.2467
10019TIP3    H154252   4.538   3.786   8.705  2.2233  0.9797  1.1478
10019TIP3    H254253   4.448   3.848   8.601 -1.6099 -1.3164  2.8404
10020TIP3   OH254254   3.712   3.436   8.513 -0.3191 -0.7362  0.3706
10020TIP3    H154255   3.688   3.364   8.571 -1.6152 -1.4371 -0.9404
10020TIP3    H254256   3.680   3.408   8.427  3.1542 -0.6039 -1.1207
10021TIP3   OH254257   4.611   0.431   7.761 -0.4480 -0.5102 -0.0998
10021TIP3    H154258   4.577   0.507   7.714  0.2021 -0.1752 -0.0370
10021TIP3    H254259   4.554   0.423   7.837 -0.6073 -0.1681 -0.1805
10022TIP3   OH254260   3.900   2.290   7.506  0.4773  0.1317  0.6197
10022TIP3    H154261   3.830   2.248   7.457  1.7428 -1.0289 -0.2619
10022TIP3    H254262   3.980   2.242   7.481  2.0402  3.0586 -0.5219
10023TIP3   OH254263   4.138   3.727   6.069 -0.1245 -0.8586  0.3987
10023TIP3    H154264   4.120   3.750   5.978  0.1068  2.1278  1.0197
10023TIP3    H254265   4.230   3.702   6.070  0.0652 -0.1964 -0.0688
10024TIP3   OH254266   1.965   1.651   6.694 -0.3632  0.3622  0.6332
10024TIP3    H154267   1.936   1.683   6.609 -0.7902 -1.4112  0.0670
10024TIP3    H254268   2.061   1.657   6.690 -0.3179 -0.7679 -0.4366
10025TIP3   OH254269   4.601   5.355   6.509  0.1895 -0.4348 -0.0977
10025TIP3    H154270   4.525   5.350   6.451 -0.5757  0.0865  0.8374
10025TIP3    H254271   4.580   5.426   6.570  1.6446  0.0453 -0.1279
10026TIP3   OH254272   1.633   5.122   5.624 -0.0001 -0.3242 -0.4228
10026TIP3    H154273   1.632   5.181   5.549 -0.6496  2.6782  1.7447
10026TIP3    H254274   1.717   5.076   5.618  0.9883  1.5455 -1.7666
10027TIP3   OH254275   2.357   0.282   6.188  0.0249  0.2026 -0.2033
10027TIP3    H154276   2.365   0.378   6.187  1.2327  0.1042 -0.5121
10027TIP3    H254277   2.388   0.254   6.103 -0.4341 -0.4738 -0.1574
10028TIP3   OH254278   0.455   0.873   6.875  0.0860  1.0257  0.5338
10028TIP3    H154279   0.448   0.803   6.810  0.8167  1.4949 -0.0738
10028TIP3    H254280   0.369   0.875   6.917  0.1598 -0.4725  0.8229
10029TIP3   OH254281   1.909   5.843   7.292  0.6327 -0.4415 -0.3309
10029TIP3    H154282   1.838   5.907   7.300 -0.3289 -1.4741 -0.4136
10029TIP3    H254283   1.958   5.852   7.374  0.1541 -0.0199 -0.0840
10030TIP3   OH254284   2.846   3.937   6.464 -0.3775 -0.1392  0.4031
10030TIP3    H154285   2.871   4.017   6.512  0.7359 -0.3184  0.1498
10030TIP3    H254286   2.855   3.867   6.528  0.1660 -0.2544  0.2054
10031TIP3   OH254287   3.988   3.021   8.570  0.0151 -0.0443  0.0493
10031TIP3    H154288   4.012   3.113   8.566 -1.1964  0.2709 -0.3959
10031TIP3    H254289   3.924   3.015   8.641  0.6852 -0.6994  0.6206
10032TIP3   OH254290   5.491   6.138   8.835 -0.2863  0.2810 -0.6103
10032TIP3    H154291   5.473   6.199   8.764 -2.1323  1.2247  0.5909
10032TIP3    H254292   5.559   6.182   8.887  1.0957 -0.4290 -1.7505
10033TIP3   OH254293   0.642   4.631   6.211  0.7353 -0.2875  0.1409
10033TIP3    H154294   0.685   4.576   6.145  3.6455  1.6126  0.2619
10033TIP3    H254295   0.651   4.720   6.176 -2.0018  0.3619  0.8968
10034TIP3   OH254296   1.063   0.421   7.407  0.7149  0.2665  0.3689
10034TIP3    H154297   1.157   0.436   7.417  0.9231 -0.7905  0.0461
10034TIP3    H254298   1.056   0.350   7.343 -0.1942 -1.3477  2.1660
10035TIP3   OH254299   1.967   6.141   8.049  0.4205 -0.8376 -0.1388
10035TIP3    H154300   1.884   6.098   8.028  0.1047  0.1770 -1.0941
10035TIP3    H254301   1.944   6.233   8.060  1.4032 -0.5650 -0.2808
10036TIP3   OH254302   4.547   1.182   6.626 -0.6770  0.2520  0.3329
10036TIP3    H154303   4.535   1.091   6.652  1.4184  0.2558  1.4561
10036TIP3    H254304   4.505   1.233   6.695  0.3033  0.1744  0.9882
10037TIP3   OH254305   0.960   5.790   8.557 -0.2905  0.2219  0.0934
10037TIP3    H154306   0.931   5.880   8.541 -1.7600  0.2102  2.1784
10037TIP3    H254307   0.885   5.736   8.530 -0.2962 -0.1815  0.8810
10038TIP3   OH254308   6.261   0.752   7.379 -0.0778  0.0923  0.5245
10038TIP3    H154309   6.221   0.777   7.462 -1.0862  1.0438 -0.2184
10038TIP3    H254310   6.338   0.808   7.371  0.7475 -0.8867  1.3884
10039TIP3   OH254311   1.494   0.313   6.176  0.3993 -0.3091  0.3432
10039TIP3    H154312   1.495   0.378   6.245  0.6065 -0.6604  0.6742
10039TIP3    H254313   1.571   0.332   6.123  0.6524 -0.4984  0.6415
10040TIP3   OH254314   5.504   3.357   6.541  0.0350 -0.0216 -0.1249
10040TIP3    H154315   5.410   3.345   6.552  0.3140 -0.4041  2.3219
10040TIP3    H254316   5.513   3.394   6.453 -2.0640 -3.5890 -2.1018
10041TIP3   OH254317   3.073   1.044   7.694 -0.2014  0.7442 -0.1657
10041TIP3    H154318   3.027   1.112   7.743 -1.4113  1.1507 -1.7901
10041TIP3    H254319   3.108   1.089   7.617  0.8331 -0.0649 -0.1944
10042TIP3   OH254320   3.041   0.911   8.463 -0.1076  0.1532 -0.8298
10042TIP3    H154321   3.129   0.946   8.479  0.4505 -1.3646 -0.3459
10042TIP3    H254322   3.027   0.925   8.369  0.6188  0.4738 -0.9028
10043TIP3   OH254323   6.708   2.311   6.295  0.1081  0.8025  0.4716
10043TIP3    H154324   6.740   2.317   6.205 -0.3686  1.9213  0.3591
10043TIP3    H254325   6.619   2.277   6.286  0.6805 -0.8651  0.6789
10044TIP3   OH254326   2.922   3.825   7.962 -0.6135 -0.0257 -0.8123
10044TIP3    H154327   2.988   3.894   7.971 -0.9394  0.1973  0.0219
10044TIP3    H254328   2.897   3.826   7.870  0.2252  0.1845 -1.0437
10045TIP3   OH254329   2.624   1.047   8.166 -0.3802 -0.2542 -0.1976
10045TIP3    H154330   2.681   0.984   8.211 -0.2870 -1.2214 -1.6257
10045TIP3    H254331   2.609   1.116   8.231 -1.0339 -2.0671  1.6667
10046TIP3   OH254332   4.763   3.177   8.413  0.4268  0.0065 -0.3077
10046TIP3    H154333   4.728   3.185   8.502  0.8007  1.9751 -0.2924
10046TIP3    H254334   4.856   3.198   8.422  1.0687 -2.2977 -0.8074
10047TIP3   OH254335   5.511   6.695   6.293  0.6159 -0.7771 -0.0353
10047TIP3    H154336   5.481   6.631   6.229 -0.2282 -0.9337  0.5034
10047TIP3    H254337   5.479   6.662   6.377  1.5390 -0.4766  0.4450
10048TIP3   OH254338   0.107   0.423   6.868  0.1057 -0.5042 -0.1456
10048TIP3    H154339   0.042   0.356   6.888  0.2490 -0.6666 -0.2149
10048TIP3    H254340   0.184   0.397   6.919  0.3745 -0.7543 -0.6667
10049TIP3   OH254341   4.073   4.253   6.609 -0.0937 -0.9843 -0.6935
10049TIP3    H154342   4.053   4.322   6.672 -1.5269 -1.7111 -0.3096
10049TIP3    H254343   4.033   4.283   6.527 -2.8553 -2.3854  0.0467
10050TIP3   OH254344   0.622   2.846   9.444 -0.3158  0.1724 -0.1845
10050TIP3    H154345   0.667   2.902   9.507  2.9257 -2.1623 -0.1109
10050TIP3    H254346   0.574   2.783   9.498  0.4186 -0.3000 -0.0585
10051TIP3   OH254347   3.122   6.389   7.322 -0.6196 -0.0961  0.5351
10051TIP3    H154348   3.178   6.324   7.279 -0.3530  1.0248 -0.8975
10051TIP3    H254349   3.170   6.414   7.401  1.7976  2.0162 -1.4435
10052TIP3   OH254350   0.038   1.130   5.655 -0.0827  0.1516  0.2334
10052TIP3    H154351   0.096   1.186   5.603  0.6084  0.2224  1.0686
10052TIP3    H254352  -0.050   1.154   5.626  0.2512  0.9306 -0.1602
10053TIP3   OH254353   6.509   6.613   6.509 -0.0007 -0.2899 -0.1172
10053TIP3    H154354   6.422   6.620   6.469 -0.2326 -0.4847  0.3478
10053TIP3    H254355   6.565   6.668   6.454 -0.7148  1.0515  0.4499
10054TIP3   OH254356   1.447   1.747   6.014  0.2308 -0.1275 -0.2142
10054TIP3    H154357   1.402   1.831   6.002 -1.6560 -0.9474  0.6117
10054TIP3    H254358   1.456   1.711   5.926 -1.2481 -0.1432 -0.3891
10055TIP3   OH254359   5.122   4.534   6.787  0.6270 -0.0035  0.7354
10055TIP3    H154360   5.196   4.550   6.730 -1.7503  2.7246 -1.8880
10055TIP3    H254361   5.112   4.614   6.838 -2.2714  1.1172 -1.3150
10056TIP3   OH254362   0.018   5.975   7.766 -0.6032  0.1911 -0.1583
10056TIP3    H154363   0.060   6.056   7.738 -0.2751 -0.1229 -0.5926
10056TIP3    H254364   0.085   5.930   7.817 -0.4249 -0.2693 -0.7765
10057TIP3   OH254365   0.822   3.632   7.558  0.2704 -0.3209 -0.0257
10057TIP3    H154366   0.841   3.715   7.602  2.1383 -0.8148  0.1442
10057TIP3    H254367   0.726   3.628   7.556  0.1504  1.3007  0.9670
10058TIP3   OH254368   6.618   5.713   8.502  0.4115 -0.4267 -0.0735
10058TIP3    H154369   6.547   5.659   8.535  0.6460 -0.5874  0.1704
10058TIP3    H254370   6.647   5.765   8.577  0.1999  0.0258 -0.3019
10059TIP3   OH254371   0.137   5.493   8.546  0.0733 -0.1234  0.1391
10059TIP3    H154372   0.085   5.507   8.467  0.5200 -0.0950 -0.1556
10059TIP3    H254373   0.163   5.581   8.573 -0.4075 -0.1018  0.5482
10060TIP3   OH254374   2.518   4.524   7.772 -0.8662  0.2789  0.0146
10060TIP3    H154375   2.487   4.434   7.768 -1.7197  0.3921  2.5534
10060TIP3    H254376   2.439   4.577   7.763 -0.1485  1.0068 -4.0839
10061TIP3   OH254377   6.148   4.745   7.520 -0.2181  0.1553  0.3588
10061TIP3    H154378   6.179   4.796   7.445 -2.8913  0.9542 -0.3116
10061TIP3    H254379   6.181   4.792   7.596  0.0531  1.0270 -0.2825
10062TIP3   OH254380   2.148   6.178   8.484 -0.8127  0.3889  0.2827
10062TIP3    H154381   2.216   6.202   8.547 -0.3584 -2.3020  0.9364
10062TIP3    H254382   2.183   6.206   8.400  1.1484 -0.9366  0.6002
10063TIP3   OH254383   5.828   1.138   7.341  0.5422  0.7344  0.4892
10063TIP3    H154384   5.863   1.197   7.274  0.6492 -0.7755 -0.8564
10063TIP3    H254385   5.896   1.070   7.351  0.1086  0.4248  1.4508
10064TIP3   OH254386   5.188   3.520   8.181  0.2235 -0.0478 -0.2899
10064TIP3    H154387   5.154   3.486   8.263 -0.1948 -0.3202 -0.5679
10064TIP3    H254388   5.202   3.443   8.127 -0.5475  0.1905 -0.8595
10065TIP3   OH254389   0.871   5.101   6.557 -0.3422 -0.0040 -0.0114
10065TIP3    H154390   0.786   5.078   6.521 -0.5510 -1.6170  1.3792
10065TIP3    H254391   0.852   5.135   6.645  0.2392  2.6957 -0.8484
10066TIP3   OH254392   2.002   5.317   8.878 -0.4100  0.0787 -0.7251
10066TIP3    H154393   1.966   5.368   8.950 -0.4808  0.3574 -0.9541
10066TIP3    H254394   2.069   5.262   8.918  0.3099  1.0161 -0.6196
10067TIP3   OH254395   1.850   1.128   7.898 -0.2713  0.4331 -0.1015
10067TIP3    H154396   1.778   1.074   7.929 -0.0160  0.1953  0.0859
10067TIP3    H254397   1.822   1.218   7.915  1.4917  0.3598  4.8695
10068TIP3   OH254398   5.667   2.502   8.785  0.4466 -0.4172 -0.1072
10068TIP3    H154399   5.600   2.506   8.717  0.9515  1.2457 -0.5566
10068TIP3    H254400   5.688   2.409   8.793 -0.8738 -0.8174 -0.9636
10069TIP3   OH254401   4.145   6.698   6.512  0.2081 -0.0947 -0.0144
10069TIP3    H154402   4.145   6.623   6.453  0.8103  1.5515 -2.2612
10069TIP3    H254403   4.059   6.738   6.501  0.9975  1.3472 -1.4106
10070TIP3   OH254404   5.330   3.269   8.042 -0.1023  0.2488  0.5774
10070TIP3    H154405   5.399   3.292   8.104 -0.5406 -1.3236  1.7311
10070TIP3    H254406   5.374   3.221   7.972  0.2976  1.4383 -0.0088
10071TIP3   OH254407   6.024   4.893   8.161  0.3166 -0.0979 -0.1952
10071TIP3    H154408   5.944   4.841   8.163 -0.2484  0.7488 -0.4573
10071TIP3    H254409   6.064   4.878   8.246 -1.5412  1.6566  1.0523
10072TIP3   OH254410   6.000   5.584   5.564  0.3061 -0.0553 -0.1868
10072TIP3    H154411   5.973   5.561   5.475  1.1954  0.7421 -0.6725
10072TIP3    H254412   6.060   5.657   5.553  0.4968 -0.0055  1.0699
10073TIP3   OH254413   0.210   1.028   7.285 -0.2079 -0.1499 -0.0098
10073TIP3    H154414   0.157   0.951   7.264 -1.7364  1.1310 -1.0402
10073TIP3    H254415   0.249   1.055   7.202  0.3692  0.1561  0.3513
10074TIP3   OH254416   0.320   1.820   6.720  0.0217 -0.2468 -0.5626
10074TIP3    H154417   0.403   1.868   6.712  0.0698 -0.5369 -2.2246
10074TIP3    H254418   0.261   1.865   6.660 -1.0687 -0.0087  0.6495
10075TIP3   OH254419   0.761   0.733   6.171  0.0799  0.6686  0.1469
10075TIP3    H154420   0.824   0.804   6.160  0.6446  0.1431 -0.1099
10075TIP3    H254421   0.784   0.670   6.103  0.7689 -0.5879  1.4684
10076TIP3   OH254422   6.414   5.321   6.788 -0.2167 -0.6243  0.6697
10076TIP3    H154423   6.381   5.408   6.810  2.4886  0.3284  1.2944
10076TIP3    H254424   6.494   5.337   6.739  0.3942 -2.7805  0.8645
10077TIP3   OH254425   5.193   3.935   6.491 -0.2014 -0.1364  0.0510
10077TIP3    H154426   5.173   4.028   6.502 -1.1317 -0.4567  1.3637
10077TIP3    H254427   5.181   3.898   6.579 -0.0662 -1.5332 -0.4991
10078TIP3   OH254428   2.176   1.391   6.499  0.1373  0.7697 -0.3114
10078TIP3    H154429   2.254   1.444   6.484  0.3106  0.0987 -2.0318
10078TIP3    H254430   2.201   1.328   6.566  0.5524  1.5861  0.3087
10079TIP3   OH254431   2.722   3.344   8.309 -0.1261 -0.2017 -0.3812
10079TIP3    H154432   2.648   3.388   8.268 -0.1211 -1.3297 -1.6508
10079TIP3    H254433   2.691   3.321   8.397  0.0402  2.6845  0.5360
10080TIP3   OH254434   1.513   0.706   6.031 -0.7213  0.3817 -0.0986
10080TIP3    H154435   1.585   0.663   5.986  0.2208  0.5231  1.2326
10080TIP3    H254436   1.553   0.750   6.106 -2.3410 -0.6722  1.4841
10081TIP3   OH254437   6.481   6.496   5.662 -0.3065  0.4935 -0.1879
10081TIP3    H154438   6.427   6.573   5.682 -1.2491  0.2249 -1.5330
10081TIP3    H254439   6.458   6.475   5.571 -0.4971 -1.7083  0.3287
10082TIP3   OH254440   4.253   5.295   6.094  0.3433  0.0212 -0.1670
10082TIP3    H154441   4.182   5.281   6.031  0.2776 -0.9214  0.1008
10082TIP3    H254442   4.311   5.220   6.082  1.1082  0.5967 -0.1275
10083TIP3   OH254443   5.402   5.675   8.891 -0.2426 -1.1031  0.0605
10083TIP3    H154444   5.487   5.638   8.867  0.7037  0.7230  0.4162
10083TIP3    H254445   5.386   5.642   8.979  1.3523  0.4955  1.0105
10084TIP3   OH254446   0.642   5.210   5.536  0.7783 -0.4416  0.0916
10084TIP3    H154447   0.634   5.290   5.587 -0.3896 -0.5439  0.1048
10084TIP3    H254448   0.732   5.210   5.503  0.5501  1.3004 -0.6160
10085TIP3   OH254449   2.135   6.453   5.583  0.0616  0.9408  0.3983
10085TIP3    H154450   2.054   6.460   5.634 -0.9180 -0.6716 -0.8152
10085TIP3    H254451   2.111   6.482   5.495  0.4323 -0.6542 -0.2728
10086TIP3   OH254452   5.511   6.540   7.018 -0.1933 -0.1835  0.1065
10086TIP3    H154453   5.568   6.470   7.050 -0.3216  0.1593  1.1130
10086TIP3    H254454   5.567   6.593   6.961  0.6709  0.4430  1.4738
10087TIP3   OH254455   2.820   2.706   6.373 -0.4980 -0.1893  0.0261
10087TIP3    H154456   2.817   2.657   6.290  1.5330  1.7136 -1.2947
10087TIP3    H254457   2.893   2.666   6.421 -0.2120  0.1494 -0.1209
10088TIP3   OH254458   5.592   1.314   7.881  0.4057  0.5723  0.0095
10088TIP3    H154459   5.530   1.290   7.812  0.7861 -1.4545  0.2814
10088TIP3    H254460   5.541   1.369   7.941 -0.5091  0.6963 -0.8509
10089TIP3   OH254461   6.485   4.495   5.816  0.0137  0.5839 -0.3313
10089TIP3    H154462   6.540   4.545   5.755 -0.4385  0.4873 -0.8356
10089TIP3    H254463   6.414   4.556   5.838  0.3244  0.7141  0.3258
10090TIP3   OH254464   2.565   6.382   8.014  0.6077  0.3514  0.2255
10090TIP3    H154465   2.544   6.333   7.935  1.7639  2.2222 -1.3293
10090TIP3    H254466   2.501   6.454   8.016  1.9204  1.5937 -0.2954
10091TIP3   OH254467   0.874   4.558   9.217 -0.3405  0.0949  0.3303
10091TIP3    H154468   0.916   4.613   9.283 -0.5789 -0.1740  0.7130
10091TIP3    H254469   0.888   4.469   9.248  1.6498 -0.2125 -1.2006
10092TIP3   OH254470   2.150   4.225   8.242  0.2741 -0.0925  0.1795
10092TIP3    H154471   2.083   4.192   8.181 -0.0943 -0.8197  0.9557
10092TIP3    H254472   2.155   4.319   8.224  0.6948 -0.4027 -1.4671
10093TIP3   OH254473   2.414   1.996   7.340  0.2515  0.1485  0.0973
10093TIP3    H154474   2.503   2.030   7.333  0.3114 -0.1521 -0.6354
10093TIP3    H254475   2.423   1.915   7.389  0.6461 -0.8513 -1.5699
10094TIP3   OH254476   5.496   2.700   5.951  0.2473  0.0178 -0.0169
10094TIP3    H154477   5.577   2.727   5.995 -0.1298  0.5260  0.3782
10094TIP3    H254478   5.512   2.610   5.924  0.9982  0.1593 -0.0650
10095TIP3   OH254479   1.895   2.537   7.769  0.2170 -0.2604 -0.2689
10095TIP3    H154480   1.812   2.553   7.724  0.0745 -1.6424 -0.5110
10095TIP3    H254481   1.950   2.494   7.705  0.3517 -1.3718  0.5633
10096TIP3   OH254482   5.638   6.042   7.973  0.0361 -0.4278 -0.6933
10096TIP3    H154483   5.576   6.099   7.928 -0.7523  0.0426  0.9076
10096TIP3    H254484   5.590   6.009   8.048  0.9442 -2.1037 -0.8010
10097TIP3   OH254485   4.579   1.925   8.109 -0.5819 -0.7255 -0.0109
10097TIP3    H154486   4.572   1.958   8.020 -0.2170  3.4101  1.2667
10097TIP3    H254487   4.490   1.930   8.143 -0.1704  1.8716  0.9641
10098TIP3   OH254488   5.571   1.865   7.642 -0.8858 -0.0009  0.1419
10098TIP3    H154489   5.518   1.795   7.602 -0.3467 -0.1645 -0.3025
10098TIP3    H254490   5.533   1.946   7.607  0.3163 -0.1758 -1.6839
10099TIP3   OH254491   2.327   0.024   7.453  0.3369  0.4081 -0.5050
10099TIP3    H154492   2.411   0.019   7.498  0.4675  0.1328 -0.7731
10099TIP3    H254493   2.262   0.017   7.522  0.5092 -1.9452 -0.5005
10100TIP3   OH254494   4.897   4.209   4.982 -0.0866  0.2835  0.3810
10100TIP3    H154495   4.853   4.128   4.956  0.6100  0.6671 -2.2481
10100TIP3    H254496   4.980   4.181   5.020  0.8646 -0.2959 -1.9387
10101TIP3   OH254497   5.924   5.963   7.353 -0.0667  0.0180 -0.3369
10101TIP3    H154498   5.912   5.976   7.447  1.5008 -0.0488 -0.0864
10101TIP3    H254499   5.890   5.875   7.336  0.9642 -0.5700  0.4849
10102TIP3   OH254500   4.101   5.662   7.293  0.2143 -0.3332 -0.0969
10102TIP3    H154501   4.110   5.710   7.375  1.5547 -0.5260 -0.1001
10102TIP3    H254502   4.172   5.598   7.295  1.0607  0.4637 -1.9358
10103TIP3   OH254503   3.520   2.250   8.091  0.3652  0.7480 -0.3380
10103TIP3    H154504   3.469   2.200   8.154  1.2590  0.3765  0.1138
10103TIP3    H254505   3.606   2.261   8.133  0.3168  2.3296 -0.5852
10104TIP3   OH254506   0.715   4.302   5.586 -0.0170  0.4440  0.2501
10104TIP3    H154507   0.806   4.306   5.556 -0.1464  1.9547  0.0035
10104TIP3    H254508   0.677   4.229   5.537  1.2769 -0.8066  1.0324
10105TIP3   OH254509   5.442   3.344   6.894 -0.1531  0.5111  0.0246
10105TIP3    H154510   5.478   3.277   6.836  1.0410  0.2985  0.9901
10105TIP3    H254511   5.373   3.299   6.942 -0.3960  0.3962 -0.4221
10106TIP3   OH254512   6.701   0.667   6.854 -0.3090  0.3037  0.1828
10106TIP3    H154513   6.746   0.588   6.884 -0.0099  0.6422  0.6487
10106TIP3    H254514   6.748   0.693   6.775  0.3788  0.6903  0.7026
10107TIP3   OH254515   1.172   4.626   5.709 -0.1236  0.4376  0.4854
10107TIP3    H154516   1.190   4.685   5.636 -0.5505  0.5287  0.4497
10107TIP3    H254517   1.224   4.660   5.782 -0.7739  1.1787  0.6176
10108TIP3   OH254518   6.469   0.187   7.323  0.4050 -0.0674 -0.9315
10108TIP3    H154519   6.405   0.254   7.299  1.1468  1.2739  0.6603
10108TIP3    H254520   6.531   0.232   7.381  0.0628 -2.4734  1.5219
10109TIP3   OH254521   0.733   1.027   8.368  0.2444 -1.0181  0.4745
10109TIP3    H154522   0.722   1.027   8.273  2.6267  1.3611  0.0914
10109TIP3    H254523   0.664   1.085   8.400 -0.7675 -2.0747  0.2944
10110TIP3   OH254524   3.277   3.087   7.325  0.0438 -0.7968 -0.2365
10110TIP3    H154525   3.260   3.152   7.256 -1.5407  0.3220  1.1304
10110TIP3    H254526   3.258   3.133   7.406  3.6082 -1.4944  1.1625
10111TIP3   OH254527   4.785   6.649   7.303 -0.0742  0.6676  0.2669
10111TIP3    H154528   4.869   6.630   7.262  0.6277  1.8575  1.0982
10111TIP3    H254529   4.807   6.701   7.380 -1.6162  1.4815  0.1996
10112TIP3   OH254530   0.672   4.665   8.459  0.2860 -0.2842 -0.0802
10112TIP3    H154531   0.713   4.609   8.525  0.8340 -0.9338 -0.9520
10112TIP3    H254532   0.594   4.617   8.431  0.2025 -0.1369 -0.1024
10113TIP3   OH254533   0.782   6.158   6.170 -0.6154  0.4617  0.2126
10113TIP3    H154534   0.714   6.214   6.132 -1.9179 -0.3506  1.2185
10113TIP3    H254535   0.734   6.081   6.202  0.8661 -0.3841  0.5030
10114TIP3   OH254536   6.621   5.237   7.659 -0.2369  0.1889 -0.1660
10114TIP3    H154537   6.691   5.302   7.654 -0.6561  0.7883  1.2504
10114TIP3    H254538   6.665   5.155   7.681  0.1935  0.1574 -1.0791
10115TIP3   OH254539   1.174   1.169   6.004  0.4176  0.1016  0.0250
10115TIP3    H154540   1.088   1.175   6.044  0.0680 -1.7141 -0.3585
10115TIP3    H254541   1.192   1.075   5.999  1.8488  0.3876 -1.1107
10116TIP3   OH254542   0.612   3.353   7.430  0.5758 -0.1668  0.3756
10116TIP3    H154543   0.563   3.417   7.482 -1.5803  0.1519 -1.8953
10116TIP3    H254544   0.674   3.315   7.493 -0.8172  1.2444  2.7844
10117TIP3   OH254545   4.663   2.265   7.663  0.3432 -0.2483 -0.0047
10117TIP3    H154546   4.681   2.292   7.753  3.0323 -2.8079  0.3971
10117TIP3    H254547   4.672   2.345   7.611  1.4004  0.8056  1.7196
10118TIP3   OH254548   2.844   3.616   8.329 -0.2681  0.2089 -0.0337
10118TIP3    H154549   2.813   3.671   8.257 -0.0278 -0.2565 -0.5015
10118TIP3    H254550   2.834   3.527   8.296  0.1795  0.0043  0.3776
10119TIP3   OH254551   3.676   2.684   6.167 -0.1462 -0.0542 -0.2063
10119TIP3    H154552   3.616   2.720   6.102  0.1494  0.9118  0.0521
10119TIP3    H254553   3.620   2.634   6.226 -0.6690  0.6326 -0.1101
10120TIP3   OH254554   1.746   0.953   5.646  0.2513  0.2848  0.0630
10120TIP3    H154555   1.736   0.870   5.601 -0.8410 -0.1610  1.0554
10120TIP3    H254556   1.835   0.952   5.681  1.0549  0.5729 -1.8874
10121TIP3   OH254557   0.973   2.979   8.464 -0.3115 -0.0901 -0.6105
10121TIP3    H154558   1.005   2.934   8.542  0.1389  1.5591  0.2130
10121TIP3    H254559   0.918   2.915   8.419  1.1792 -1.7932 -0.1045
10122TIP3   OH254560   4.754   0.862   6.108  0.0275 -0.2441  0.1879
10122TIP3    H154561   4.732   0.836   6.197  1.1010  0.4234  0.6716
10122TIP3    H254562   4.782   0.954   6.116 -1.8423  0.5069 -1.1577
10123TIP3   OH254563   0.348   2.289   8.214  0.0880  0.1439  0.0795
10123TIP3    H154564   0.401   2.368   8.205 -0.3819  0.4278 -0.1789
10123TIP3    H254565   0.412   2.218   8.212  0.5483  0.5288  0.6979
10124TIP3   OH254566   3.731   4.181   6.791  0.2344 -0.2381  0.3179
10124TIP3    H154567   3.812   4.172   6.740  0.1941 -0.4876  0.2975
10124TIP3    H254568   3.715   4.093   6.826  0.4762  0.0116  1.0865
10125TIP3   OH254569   1.702   5.075   8.349 -0.1359  0.0819  0.3135
10125TIP3    H154570   1.668   5.160   8.321  1.5019  0.1926 -1.5886
10125TIP3    H254571   1.744   5.039   8.271  1.9443 -1.0738  1.8376
10126TIP3   OH254572   2.395   0.283   5.698  0.4461 -0.0107  0.4477
10126TIP3    H154573   2.408   0.341   5.623  0.4237  0.9919  1.1984
10126TIP3    H254574   2.349   0.336   5.762  2.2541 -0.1885  1.9676
10127TIP3   OH254575   0.461   2.880   7.133  0.3973  0.6001  0.1010
10127TIP3    H154576   0.401   2.925   7.073  0.9068  1.0396 -0.0909
10127TIP3    H254577   0.459   2.934   7.213 -0.7738 -0.3367  0.7348
10128TIP3   OH254578   1.832   6.151   5.628  0.5991 -0.5799 -0.2695
10128TIP3    H154579   1.746   6.185   5.604  0.3927 -1.9570 -1.6538
10128TIP3    H254580   1.886   6.229   5.643 -0.8596  0.2932  0.6093
10129TIP3   OH254581   4.467   5.996   7.781 -0.0242 -0.1234 -0.5534
10129TIP3    H154582   4.397   6.060   7.769 -0.3007 -0.2725  0.2618
10129TIP3    H254583   4.544   6.038   7.742 -0.2947  0.5280 -0.3939
10130TIP3   OH254584   4.117   4.483   7.358 -0.1826  0.5060 -0.2646
10130TIP3    H154585   4.193   4.527   7.397 -1.9139  1.8092  1.9126
10130TIP3    H254586   4.114   4.513   7.268  1.9664  0.2448 -0.4655
10131TIP3   OH254587   0.212   3.112   7.540  0.4431  0.4354 -0.0276
10131TIP3    H154588   0.171   3.034   7.578  0.5562  1.4621  2.4216
10131TIP3    H254589   0.183   3.184   7.596  0.9883  2.0582 -1.7277
10132TIP3   OH254590   2.863   5.712   6.962  0.6941  0.0673  0.5252
10132TIP3    H154591   2.872   5.621   6.989 -0.7934 -1.2860 -3.0465
10132TIP3    H254592   2.945   5.731   6.917 -0.0681 -0.5030 -1.1680
10133TIP3   OH254593   0.256   5.274   7.132 -0.1693  0.7239 -0.1698
10133TIP3    H154594   0.273   5.367   7.117 -0.9327  0.7294 -1.1457
10133TIP3    H254595   0.231   5.240   7.045  1.3324 -0.6649 -0.1020
10134TIP3   OH254596   1.849   0.846   6.721  0.4939  0.2680 -0.6463
10134TIP3    H154597   1.870   0.899   6.644  2.0618  1.1135  0.3096
10134TIP3    H254598   1.760   0.815   6.705 -0.2790  2.6915 -1.5354
10135TIP3   OH254599   2.268   5.429   8.099  0.4460 -0.4088  0.2617
10135TIP3    H154600   2.251   5.355   8.041 -0.9701 -0.9579  1.3261
10135TIP3    H254601   2.337   5.398   8.158  0.6150 -0.4747  0.0341
10136TIP3   OH254602   1.094   4.757   7.663  0.4884  0.2414 -0.1626
10136TIP3    H154603   1.058   4.714   7.740 -1.8528  0.2697 -1.1521
10136TIP3    H254604   1.116   4.686   7.603 -0.8946  0.3020 -0.7661
10137TIP3   OH254605   4.819   1.636   6.947 -0.2189 -0.3420  0.2538
10137TIP3    H154606   4.745   1.628   6.888  1.5170 -1.7646 -1.8890
10137TIP3    H254607   4.824   1.730   6.966 -1.3882  0.0346 -1.1191
10138TIP3   OH254608   0.268   0.190   6.434 -0.1059  0.3587  0.3476
10138TIP3    H154609   0.209   0.183   6.509 -0.5269 -1.8105 -0.1122
10138TIP3    H254610   0.215   0.161   6.360  0.5096  1.8037 -0.6996
10139TIP3   OH254611   1.187   1.040   7.731 -0.4681 -0.5171  0.1063
10139TIP3    H154612   1.124   0.987   7.780 -0.5353 -0.6241 -0.0959
10139TIP3    H254613   1.151   1.046   7.643 -0.3218 -0.3660  0.0551
10140TIP3   OH254614   0.309   5.985   6.968 -0.1731 -0.4614  0.0212
10140TIP3    H154615   0.296   6.016   7.058 -1.2992  1.3035 -0.7003
10140TIP3    H254616   0.274   6.055   6.913  2.7548 -0.3192 -1.9122
10141TIP3   OH254617   3.244   0.308   7.572 -0.5314  0.1719 -0.4473
10141TIP3    H154618   3.306   0.241   7.543  2.7261  2.9730 -0.5081
10141TIP3    H254619   3.279   0.339   7.655 -3.5944 -0.0789  1.0747
10142TIP3   OH254620   2.203   4.248   9.042 -0.1067 -0.4142 -0.2196
10142TIP3    H154621   2.174   4.339   9.046  1.9222  0.2746  0.1764
10142TIP3    H254622   2.132   4.198   9.084 -0.8698  1.0849  0.3459
10143TIP3   OH254623   2.909   6.490   7.173 -0.1245 -0.0589  0.1589
10143TIP3    H154624   2.846   6.538   7.227 -0.4844 -1.6276  1.2125
10143TIP3    H254625   2.977   6.461   7.235  2.3264  2.5136 -1.1003
10144TIP3   OH254626   1.060   6.402   7.300  0.4821 -0.0140  0.3588
10144TIP3    H154627   1.108   6.321   7.320  2.0039  0.2575 -1.7151
10144TIP3    H254628   1.081   6.461   7.372  1.6139 -0.6011  0.5410
10145TIP3   OH254629   1.452   6.454   7.715  0.4998 -0.3235  0.7338
10145TIP3    H154630   1.454   6.481   7.624 -0.5857  2.9728  1.5417
10145TIP3    H254631   1.526   6.500   7.756  1.2493 -2.0898  1.5162
10146TIP3   OH254632   3.570   4.723   8.419 -0.5475  0.0207  0.0891
10146TIP3    H154633   3.638   4.744   8.483 -0.6335  2.1303 -0.4431
10146TIP3    H254634   3.491   4.762   8.455 -0.5265  1.5584 -1.4431
10147TIP3   OH254635   5.590   1.303   8.532  0.2531  0.0653  0.1955
10147TIP3    H154636   5.592   1.270   8.442  0.0705  0.7166 -0.0561
10147TIP3    H254637   5.498   1.302   8.556  0.3594 -0.6477  0.5850
10148TIP3   OH254638   1.280   3.419   6.993 -0.2209  0.5487  0.0191
10148TIP3    H154639   1.231   3.488   7.037 -0.6848  0.3749 -0.2217
10148TIP3    H254640   1.325   3.463   6.921  1.8262  1.1512  1.5597
10149TIP3   OH254641   3.392   4.447   5.825  0.0582 -0.1356  0.4129
10149TIP3    H154642   3.448   4.473   5.897  2.9682  0.7663 -1.9652
10149TIP3    H254643   3.360   4.530   5.788  0.6330 -0.4178 -0.7723
10150TIP3   OH254644   1.696   1.001   8.473 -0.5602  0.9432  0.3712
10150TIP3    H154645   1.640   0.923   8.480  0.8545 -0.2046 -0.5495
10150TIP3    H254646   1.667   1.058   8.545  0.7383 -1.9874  3.4999
10151TIP3   OH254647   4.107   5.056   6.312 -0.3153 -0.0719  0.1237
10151TIP3    H154648   4.079   4.988   6.373  0.7394 -1.9923 -1.4040
10151TIP3    H254649   4.193   5.027   6.282 -1.1960  0.1678 -3.0213
10152TIP3   OH254650   4.637   4.843   7.035  0.9880 -0.3510  0.1386
10152TIP3    H154651   4.608   4.930   7.010  2.5984  0.0288 -0.5325
10152TIP3    H254652   4.706   4.858   7.100 -0.3122 -1.2198  1.8055
10153TIP3   OH254653   4.457   2.865   7.785  0.2501 -0.1529 -0.0441
10153TIP3    H154654   4.437   2.937   7.724 -1.5580 -0.5799 -0.0248
10153TIP3    H254655   4.549   2.877   7.808 -0.1746  2.5632  0.4996
10154TIP3   OH254656   1.821   2.481   7.223  0.0230 -0.1399 -0.1215
10154TIP3    H154657   1.822   2.480   7.127  0.4939  1.7531 -0.1723
10154TIP3    H254658   1.912   2.497   7.248 -0.4193  1.5214  0.5517
10155TIP3   OH254659   6.504   2.856   7.800 -0.1398 -0.1701  0.3953
10155TIP3    H154660   6.594   2.875   7.775 -0.1938  0.8363  0.9401
10155TIP3    H254661   6.462   2.828   7.718  0.1775  1.2071 -0.2594
10156TIP3   OH254662   6.633   5.697   6.507  0.4673 -0.9052 -0.3641
10156TIP3    H154663   6.561   5.644   6.541 -0.1316  0.0205 -0.1568
10156TIP3    H254664   6.667   5.646   6.433  1.6297 -2.8461  1.3835
10157TIP3   OH254665   6.244   3.941   8.219  0.3726  0.0151  0.1951
10157TIP3    H154666   6.316   3.932   8.157  1.2748 -0.5184  1.2755
10157TIP3    H254667   6.265   3.880   8.289 -0.2975  1.0145  1.3119
10158TIP3   OH254668   5.287   2.603   8.798 -0.4945  0.0597  0.5831
10158TIP3    H154669   5.263   2.566   8.713 -1.0999 -3.0440  1.9669
10158TIP3    H254670   5.204   2.634   8.835 -0.7144 -0.9698  1.0202
10159TIP3   OH254671   3.310   2.418   7.170  0.1611 -0.5538 -0.0552
10159TIP3    H154672   3.310   2.511   7.148 -1.9708 -0.1622  1.3143
10159TIP3    H254673   3.217   2.394   7.172  0.6163 -2.4281  0.7605
10160TIP3   OH254674   5.138   5.783   5.867 -0.2001  0.2631 -0.6475
10160TIP3    H154675   5.198   5.836   5.920 -1.0733  1.1023 -0.4642
10160TIP3    H254676   5.052   5.826   5.878 -0.8606 -0.9863 -0.7871
10161TIP3   OH254677   3.204   2.443   6.877  0.5664  0.0804  0.4556
10161TIP3    H154678   3.276   2.477   6.931  1.1721 -2.2028  1.1913
10161TIP3    H254679   3.131   2.434   6.937  0.4834 -0.1451  0.3215
10162TIP3   OH254680   4.870   3.374   7.154 -0.2704 -0.2403 -0.4386
10162TIP3    H154681   4.926   3.306   7.192  1.0474  0.2696 -1.3878
10162TIP3    H254682   4.822   3.329   7.084 -1.8344 -0.9022  0.9737
10163TIP3   OH254683   0.009   5.634   7.169  0.1189  0.8705 -0.5982
10163TIP3    H154684   0.096   5.594   7.172  0.2416  1.1390  2.0340
10163TIP3    H254685  -0.051   5.561   7.183  0.0650  0.9466 -0.4231
10164TIP3   OH254686   3.191   5.331   7.166 -0.1928 -0.2835 -0.2017
10164TIP3    H154687   3.115   5.283   7.198 -0.5682 -0.5863 -1.5034
10164TIP3    H254688   3.253   5.328   7.238 -0.9779 -1.0056  0.4636
10165TIP3   OH254689   1.091   2.378   8.552 -0.0865 -0.5777 -0.2818
10165TIP3    H154690   1.053   2.415   8.631 -0.0485 -0.2536 -0.4143
10165TIP3    H254691   1.021   2.324   8.515 -0.2145 -0.4664 -0.2032
10166TIP3   OH254692   0.751   1.453   7.975  0.1553 -0.1597 -0.2235
10166TIP3    H154693   0.759   1.357   7.974  0.7633 -0.1248 -1.5693
10166TIP3    H254694   0.758   1.477   8.067 -0.1781 -1.4271  0.1506
10167TIP3   OH254695   4.313   0.489   6.486  0.4053 -0.2701 -0.5103
10167TIP3    H154696   4.330   0.407   6.440  0.5066 -0.1284 -0.7269
10167TIP3    H254697   4.367   0.554   6.440 -0.5441  0.1444 -1.0676
10168TIP3   OH254698   3.365   1.606   7.829 -0.3640  0.3826 -0.1488
10168TIP3    H154699   3.430   1.553   7.784  0.8157  0.7211  1.0931
10168TIP3    H254700   3.411   1.687   7.850 -1.5600  1.1154 -0.3016
10169TIP3   OH254701   5.328   5.395   5.545  0.3171  0.1678 -0.1817
10169TIP3    H154702   5.308   5.434   5.460 -0.8726 -0.0576 -0.0255
10169TIP3    H254703   5.290   5.455   5.609 -2.2607 -1.5298  0.0382
10170TIP3   OH254704   5.397   5.678   6.953 -0.0618  0.6515 -0.6844
10170TIP3    H154705   5.356   5.597   6.982  1.7807 -0.2310 -0.3833
10170TIP3    H254706   5.371   5.743   7.019 -1.6162  0.3493 -0.9789
10171TIP3   OH254707   2.010   5.505   8.688  0.1319 -0.2564 -0.1035
10171TIP3    H154708   1.986   5.451   8.764  2.6755 -1.7475 -0.2573
10171TIP3    H254709   2.102   5.526   8.702  0.2185  0.8105 -2.0039
10172TIP3   OH254710   3.164   3.375   6.389  0.4102  0.3162  0.1541
10172TIP3    H154711   3.151   3.358   6.296  1.7499 -0.1099  0.0316
10172TIP3    H254712   3.118   3.303   6.433  0.6729 -0.0771 -0.2067
10173TIP3   OH254713   4.337   5.167   5.002 -0.4602 -0.3373 -0.2151
10173TIP3    H154714   4.258   5.211   5.034 -0.2296 -0.2249  0.2020
10173TIP3    H254715   4.319   5.152   4.909 -0.7800  0.1185 -0.2334
10174TIP3   OH254716   5.168   1.278   8.778 -0.0846  0.1802  0.0432
10174TIP3    H154717   5.097   1.226   8.815 -0.2126  1.7037  2.1211
10174TIP3    H254718   5.237   1.275   8.845  0.3416  1.7234 -0.2889
10175TIP3   OH254719   2.177   2.733   8.310 -0.4980 -0.2182 -0.2581
10175TIP3    H154720   2.216   2.805   8.261  0.0442 -0.5438 -0.3150
10175TIP3    H254721   2.249   2.671   8.322 -0.9339 -0.7050 -0.1302
10176TIP3   OH254722   0.112   3.447   8.090  0.3137  0.4698 -0.0172
10176TIP3    H154723   0.172   3.401   8.032  1.6071  1.1435  0.7160
10176TIP3    H254724   0.127   3.540   8.072 -0.6241  0.6520  0.0808
10177TIP3   OH254725   4.025   6.057   7.330 -0.2114 -0.2612 -0.2530
10177TIP3    H154726   4.084   5.988   7.361 -1.8965 -1.3946  0.5631
10177TIP3    H254727   3.961   6.011   7.275 -1.2229  0.6724  0.1040
10178TIP3   OH254728   2.767   2.658   7.527  0.3067 -0.1547  0.4148
10178TIP3    H154729   2.786   2.592   7.460  0.2860 -0.6049  0.8523
10178TIP3    H254730   2.678   2.686   7.509  0.6712  0.5208 -0.4194
10179TIP3   OH254731   3.097   1.802   6.616 -0.2101 -0.2239  0.0623
10179TIP3    H154732   3.168   1.800   6.551 -1.8579 -0.2731 -1.8413
10179TIP3    H254733   3.129   1.748   6.688  2.0859  0.6192 -0.2509
10180TIP3   OH254734   5.613   5.033   5.628 -0.2457  0.1552  0.4926
10180TIP3    H154735   5.528   5.026   5.584  0.7750  1.4367 -1.9210
10180TIP3    H254736   5.642   4.942   5.638 -2.0197 -0.3270  1.7612
10181TIP3   OH254737   2.966   1.486   7.157  0.0675 -0.2266 -0.4489
10181TIP3    H154738   2.879   1.447   7.161  0.3536 -0.9231  3.4397
10181TIP3    H254739   2.956   1.572   7.199  0.7774  1.0589 -2.7217
10182TIP3   OH254740   4.542   4.836   7.399  0.1039 -0.0675 -0.0917
10182TIP3    H154741   4.539   4.931   7.405  1.6934 -0.0523  1.5659
10182TIP3    H254742   4.630   4.816   7.368 -0.2253 -1.0087 -0.4721
10183TIP3   OH254743   6.001   5.492   5.987  0.0398 -0.0044 -0.5234
10183TIP3    H154744   5.978   5.485   6.080  0.4679 -1.2448 -0.4934
10183TIP3    H254745   6.092   5.466   5.982 -0.1145 -0.4400 -1.3588
10184TIP3   OH254746   3.455   1.574   6.601 -1.1366  0.2065  0.1128
10184TIP3    H154747   3.396   1.500   6.586 -0.4476 -0.1529 -1.0051
10184TIP3    H254748   3.402   1.652   6.584 -1.7105 -0.0488  0.7045
10185TIP3   OH254749   2.826   2.518   6.897 -0.1842  0.1169  0.0766
10185TIP3    H154750   2.884   2.455   6.855  0.6222  0.6694  0.3303
10185TIP3    H254751   2.749   2.522   6.839 -0.8461 -2.0178  0.7077
10186TIP3   OH254752   1.165   3.061   6.662  0.6454  0.0442  0.2082
10186TIP3    H154753   1.189   3.097   6.748  2.7482 -0.6685 -0.0104
10186TIP3    H254754   1.141   2.971   6.680 -2.0613  0.7392  0.4116
10187TIP3   OH254755   6.374   0.766   6.342  0.5751  0.5863  0.0623
10187TIP3    H154756   6.361   0.673   6.325 -0.9336  0.3603  2.0598
10187TIP3    H254757   6.469   0.776   6.349  0.8582 -0.4583 -1.6945
10188TIP3   OH254758   1.326   3.784   5.880  0.0471 -0.2969  0.9694
10188TIP3    H154759   1.374   3.708   5.847  1.7739  0.8531  0.7030
10188TIP3    H254760   1.283   3.752   5.960  0.6581 -1.5694  0.8156
10189TIP3   OH254761   5.196   1.512   6.489 -0.2459  0.2547  0.0670
10189TIP3    H154762   5.151   1.563   6.423  0.0506  1.0417  0.4657
10189TIP3    H254763   5.137   1.439   6.507  0.1939 -0.6755 -1.9305
10190TIP3   OH254764   0.125   3.293   6.228 -0.1291 -0.0666  0.2609
10190TIP3    H154765   0.198   3.240   6.259  2.3901  2.2073 -1.2740
10190TIP3    H254766   0.142   3.381   6.262 -2.8066  0.3722  0.7376
10191TIP3   OH254767   0.664   0.451   7.017  0.3425  0.5549 -0.3814
10191TIP3    H154768   0.583   0.441   7.068  0.6579 -0.9303 -0.1196
10191TIP3    H254769   0.727   0.485   7.080  0.3308  0.1802 -0.1625
10192TIP3   OH254770   0.258   0.865   5.664 -0.0872 -0.2252 -0.0860
10192TIP3    H154771   0.179   0.816   5.688  0.0411 -0.3523  0.0847
10192TIP3    H254772   0.270   0.928   5.735 -0.0066 -0.2392 -0.0873
10193TIP3   OH254773   4.261   6.589   8.252 -0.4542  0.1824 -0.0263
10193TIP3    H154774   4.274   6.667   8.198 -1.6382  1.1660  1.0705
10193TIP3    H254775   4.187   6.610   8.308  0.3543 -1.0587  1.5742
10194TIP3   OH254776   5.780   3.246   8.221 -0.2494 -0.1029  0.3241
10194TIP3    H154777   5.804   3.311   8.287  1.5602 -1.2576  0.8758
10194TIP3    H254778   5.786   3.162   8.266  1.1383 -0.9331 -1.2800
10195TIP3   OH254779   3.466   5.972   6.067  0.4463  0.0889 -0.8892
10195TIP3    H154780   3.508   6.058   6.069  0.4133  0.1122  1.4950
10195TIP3    H254781   3.539   5.910   6.072  0.3528  0.0798  0.7618
10196TIP3   OH254782   2.333   0.704   7.086 -1.3939  0.0249 -0.3562
10196TIP3    H154783   2.247   0.745   7.087 -0.6934  1.5503  0.8928
10196TIP3    H254784   2.372   0.725   7.171  0.8594  0.7954 -1.4795
10197TIP3   OH254785   1.814   2.622   8.045 -0.1918  0.5228  0.5523
10197TIP3    H154786   1.833   2.574   8.125  1.2842  0.6600  0.3084
10197TIP3    H254787   1.891   2.609   7.990 -0.9110  0.9489 -0.5977
10198TIP3   OH254788   5.243   2.932   7.085 -0.3628  0.1788  0.1056
10198TIP3    H154789   5.177   2.892   7.141 -0.1591  0.6245  0.6770
10198TIP3    H254790   5.285   2.859   7.040  2.0793 -0.6420  3.3272
10199TIP3   OH254791   2.746   4.613   7.146 -0.2583  0.1564  0.0179
10199TIP3    H154792   2.808   4.656   7.087 -0.4244 -0.1721 -0.3955
10199TIP3    H254793   2.801   4.565   7.207 -0.1120 -0.9868 -0.9844
10200TIP3   OH254794   5.175   3.469   6.016  0.1194  0.0786 -0.2391
10200TIP3    H154795   5.205   3.549   6.059  1.0694 -0.3543 -0.0712
10200TIP3    H254796   5.147   3.498   5.929  0.2322  0.6285 -0.0962
10201TIP3   OH254797   0.601   5.841   5.739 -0.3387 -0.0191  0.0697
10201TIP3    H154798   0.537   5.801   5.681 -1.3450  0.2585  0.9540
10201TIP3    H254799   0.598   5.934   5.718 -1.8363  0.3164  1.5684
10202TIP3   OH254800   6.291   3.377   6.949 -0.4308 -0.0502 -0.1231
10202TIP3    H154801   6.279   3.452   7.008  0.7193 -0.4308  0.6321
10202TIP3    H254802   6.221   3.385   6.885 -1.2515  0.8167  0.8495
10203TIP3   OH254803   4.798   4.446   5.092  0.2436 -0.0584 -0.2887
10203TIP3    H154804   4.832   4.368   5.049  0.6537 -0.3288  0.5071
10203TIP3    H254805   4.860   4.463   5.163  1.3279  2.1951 -1.6768
10204TIP3   OH254806   5.057   1.728   5.771  0.4994  0.5606  0.2370
10204TIP3    H154807   5.054   1.637   5.742  2.0384  0.3519  0.6588
10204TIP3    H254808   5.095   1.725   5.859 -1.4943  1.4312  1.2104
10205TIP3   OH254809   4.871   4.763   7.995  0.2848 -0.0567 -0.1698
10205TIP3    H154810   4.918   4.846   7.987  1.5206 -0.7996 -0.7193
10205TIP3    H254811   4.902   4.726   8.078 -0.9943  0.4415  0.5784
10206TIP3   OH254812   3.906   3.581   7.345  0.2359  0.6990 -0.1336
10206TIP3    H154813   3.870   3.493   7.338 -0.7345  0.9937  0.8346
10206TIP3    H254814   3.911   3.612   7.255  2.0867 -0.8863 -0.6547
10207TIP3   OH254815   5.534   0.717   7.800  0.0294  0.5473 -0.1513
10207TIP3    H154816   5.526   0.643   7.740  0.4971  0.8821 -0.6345
10207TIP3    H254817   5.500   0.791   7.752  0.3923  0.8167  0.0006
10208TIP3   OH254818   5.226   6.046   6.575  0.4787  0.5405 -0.4053
10208TIP3    H154819   5.155   6.080   6.628  0.3516  0.1986 -0.3507
10208TIP3    H254820   5.193   5.962   6.542  1.6791 -0.7506  1.4629
10209TIP3   OH254821   2.416   4.224   8.173  0.6364 -0.0313 -0.4295
10209TIP3    H154822   2.455   4.180   8.248  1.0265  1.5172  0.3065
10209TIP3    H254823   2.324   4.237   8.198 -0.1364 -2.4741 -1.6223
10210TIP3   OH254824   1.191   3.372   5.764  0.0444 -0.1433  0.7969
10210TIP3    H154825   1.160   3.297   5.814  1.3313  0.6365  2.9248
10210TIP3    H254826   1.115   3.428   5.754 -0.5409 -0.9445  0.6604
10211TIP3   OH254827   1.501   3.143   6.588 -0.4217  0.1602 -0.3694
10211TIP3    H154828   1.472   3.055   6.611 -0.5704  0.7888  2.1739
10211TIP3    H254829   1.425   3.183   6.545 -0.5576 -0.7138 -0.9817
10212TIP3   OH254830   0.902   2.241   8.390 -0.1943  0.3223 -0.0928
10212TIP3    H154831   0.930   2.151   8.373  1.7444  0.4878  1.7899
10212TIP3    H254832   0.871   2.273   8.305 -2.1173 -2.4549 -0.5861
10213TIP3   OH254833   2.398   3.997   6.124 -0.1059 -0.6484 -0.2259
10213TIP3    H154834   2.438   3.926   6.173  0.6422 -1.3207 -1.7217
10213TIP3    H254835   2.306   3.971   6.116 -0.0793 -0.8825  0.1993
10214TIP3   OH254836   1.932   0.915   8.602  0.3972 -0.4072  0.6289
10214TIP3    H154837   1.887   0.924   8.518  3.1938 -1.8152 -1.1851
10214TIP3    H254838   1.915   0.825   8.629  1.7815 -0.8932  0.0235
10215TIP3   OH254839   0.470   3.296   5.669 -0.1179  0.3613 -0.7620
10215TIP3    H154840   0.549   3.249   5.643  0.0267 -0.9257  1.7491
10215TIP3    H254841   0.401   3.230   5.669 -0.8118  1.0679 -1.1100
10216TIP3   OH254842   3.224   3.083   6.066  0.1738  0.5595  0.0722
10216TIP3    H154843   3.266   3.082   5.980  0.0946 -1.5365  0.0173
10216TIP3    H254844   3.292   3.114   6.126  1.1763 -0.8265 -0.3175
10217TIP3   OH254845   0.653   4.719   8.054 -0.2095  0.0592 -0.0797
10217TIP3    H154846   0.572   4.742   8.009  0.2632 -2.5193 -2.4856
10217TIP3    H254847   0.722   4.760   8.001  0.2063 -0.3139  0.1685
10218TIP3   OH254848   0.170   3.977   7.664 -0.1156 -0.2658 -0.4401
10218TIP3    H154849   0.180   3.960   7.757  0.8286  2.8030  0.1245
10218TIP3    H254850   0.256   3.956   7.627 -0.0531 -0.1318 -0.3710
10219TIP3   OH254851   3.648   2.493   7.330 -0.4406 -0.1247  0.1785
10219TIP3    H154852   3.597   2.477   7.410  0.1174  0.4583  0.6741
10219TIP3    H254853   3.673   2.406   7.299 -0.6743 -0.3589  0.6342
10220TIP3   OH254854   4.571   3.723   7.423 -0.0696  0.6018 -0.0381
10220TIP3    H154855   4.582   3.773   7.342  2.0069 -0.4033 -0.4450
10220TIP3    H254856   4.650   3.743   7.474 -0.1970 -0.6597  0.6848
10221TIP3   OH254857   0.722   0.440   6.045  0.5716 -0.1091  0.0905
10221TIP3    H154858   0.635   0.479   6.042  0.6166 -0.0387 -0.3205
10221TIP3    H254859   0.743   0.421   5.954  0.6414 -0.8893  0.2591
10222TIP3   OH254860   5.928   4.232   7.686 -0.3180  0.3436 -0.1092
10222TIP3    H154861   5.917   4.195   7.598 -0.0700  1.3015 -0.5560
10222TIP3    H254862   5.951   4.323   7.670  0.9365  0.2276  0.9337
10223TIP3   OH254863   4.575   1.540   7.620 -0.3869  0.2207 -0.3989
10223TIP3    H154864   4.614   1.526   7.534  0.8283 -1.0966  0.3222
10223TIP3    H254865   4.484   1.509   7.611  0.3293 -1.9758 -0.6825
10224TIP3   OH254866   1.294   3.606   7.871 -1.3068 -0.1862  0.1572
10224TIP3    H154867   1.241   3.628   7.794 -0.5658 -0.1786 -0.3525
10224TIP3    H254868   1.369   3.559   7.836 -0.5232  0.5724  0.7912
10225TIP3   OH254869   0.640   3.754   8.830 -0.1214  0.3225 -0.1857
10225TIP3    H154870   0.575   3.737   8.898 -2.9021  0.7060 -2.5563
10225TIP3    H254871   0.722   3.769   8.878 -1.5987 -0.7830  2.9364
10226TIP3   OH254872   0.769   1.493   9.382 -0.7443  0.0657 -0.1844
10226TIP3    H154873   0.803   1.557   9.320 -1.2754  0.1809 -0.3588
10226TIP3    H254874   0.677   1.517   9.393 -1.6262 -2.0552 -2.0771
10227TIP3   OH254875   6.171   1.990   6.477 -0.0223  0.0881  0.1423
10227TIP3    H154876   6.206   1.935   6.407  0.1590  0.7901 -0.3171
10227TIP3    H254877   6.193   1.941   6.557 -1.9224 -1.6845 -0.3381
10228TIP3   OH254878   1.034   0.608   5.577  0.0922  0.2243  0.0978
10228TIP3    H154879   1.034   0.523   5.620  1.8043  0.7097  1.1665
10228TIP3    H254880   1.117   0.648   5.603 -0.3969  1.9771 -0.8678
10229TIP3   OH254881   4.356   4.585   8.247  0.6056 -0.0264 -0.3496
10229TIP3    H154882   4.324   4.647   8.182 -0.4402 -0.4607 -0.2681
10229TIP3    H254883   4.450   4.602   8.253  0.4204  1.1704 -0.7202
10230TIP3   OH254884   0.115   6.664   5.978 -0.6838  0.1304  0.4107
10230TIP3    H154885   0.073   6.601   5.918 -0.3292 -0.4186  0.7392
10230TIP3    H254886   0.041   6.713   6.016 -1.1301 -1.5443  1.7925
10231TIP3   OH254887   2.705   3.983   6.766  0.0056 -0.4015 -0.2647
10231TIP3    H154888   2.784   4.029   6.737  1.8661 -1.1860  3.0000
10231TIP3    H254889   2.733   3.893   6.781 -1.3824 -0.6199  1.3202
10232TIP3   OH254890   4.869   5.808   8.061 -0.3154 -0.1986 -0.2254
10232TIP3    H154891   4.784   5.790   8.022 -0.4599  0.5598 -0.2645
10232TIP3    H254892   4.850   5.866   8.135  0.2276  0.4979 -0.6235
10233TIP3   OH254893   4.102   4.029   5.200  0.3410 -0.0816 -0.0082
10233TIP3    H154894   4.052   3.968   5.254 -1.8727  1.6183  0.0324
10233TIP3    H254895   4.036   4.074   5.147  1.8956  1.8889 -0.3949
10234TIP3   OH254896   3.181   3.249   8.147  0.0298  0.1212  0.2448
10234TIP3    H154897   3.101   3.229   8.195  0.4034 -2.5546 -0.0844
10234TIP3    H254898   3.243   3.183   8.175  1.4823  0.8623 -1.0582
10235TIP3   OH254899   3.252   3.232   6.697 -0.3850  0.4970  0.1554
10235TIP3    H154900   3.230   3.150   6.652 -0.6530 -0.8322  2.5389
10235TIP3    H254901   3.210   3.225   6.783  0.4171  2.7154  0.8134
10236TIP3   OH254902   3.238   5.188   5.543 -0.1398  0.0166  0.4468
10236TIP3    H154903   3.222   5.258   5.480 -1.9531  0.2592  1.1053
10236TIP3    H254904   3.324   5.207   5.579  0.6666  0.2284 -1.4596
10237TIP3   OH254905   3.704   1.919   7.971 -0.7271  0.2486  0.7290
10237TIP3    H154906   3.747   2.001   7.948 -1.2635  0.4634  0.4730
10237TIP3    H254907   3.763   1.851   7.939 -2.0664  0.4940 -2.6791
10238TIP3   OH254908   3.897   1.448   7.902 -0.1704 -0.1481  0.1551
10238TIP3    H154909   3.946   1.366   7.901 -0.2301 -0.2092  1.2040
10238TIP3    H254910   3.807   1.421   7.923 -0.3287  0.1193 -0.1808
10239TIP3   OH254911   2.288   2.533   5.928 -0.3530  0.0097  0.9499
10239TIP3    H154912   2.330   2.499   5.849 -0.6583 -0.0054  0.7910
10239TIP3    H254913   2.333   2.615   5.947 -1.2906  0.8187 -0.1371
10240TIP3   OH254914   2.136   2.706   6.315 -0.3969 -0.0901 -0.2324
10240TIP3    H154915   2.044   2.680   6.311 -0.6441  0.7547 -0.2971
10240TIP3    H254916   2.144   2.754   6.397  0.3164 -1.3324  0.4467
10241TIP3   OH254917   4.818   4.843   7.250  0.3304 -0.2776  0.1677
10241TIP3    H154918   4.885   4.850   7.318 -0.8369 -0.4121  1.3629
10241TIP3    H254919   4.816   4.750   7.228  2.5744  0.0970 -2.0443
10242TIP3   OH254920   1.140   4.469   7.284  0.2794 -0.3795 -0.2289
10242TIP3    H154921   1.078   4.541   7.271 -1.0027 -1.5110 -0.5665
10242TIP3    H254922   1.215   4.493   7.230 -0.0044  0.8277 -0.1224
10243TIP3   OH254923   0.601   6.314   6.534  0.0742  0.1116  0.2748
10243TIP3    H154924   0.685   6.285   6.500  0.4319  1.4280  0.0043
10243TIP3    H254925   0.575   6.245   6.596  0.9636 -0.6868 -0.2274
10244TIP3   OH254926   1.514   3.015   8.560 -0.1524 -0.0388  0.4055
10244TIP3    H154927   1.443   2.966   8.519  1.3920 -0.8070 -1.5231
10244TIP3    H254928   1.471   3.093   8.597 -1.8617  0.0703 -1.6208
10245TIP3   OH254929   1.103   3.793   6.279 -0.2532  0.0085 -0.1674
10245TIP3    H154930   1.078   3.852   6.208  0.1026  0.5116  0.1181
10245TIP3    H254931   1.174   3.740   6.242 -1.1633 -0.8676 -0.7146
10246TIP3   OH254932   4.150   5.497   5.557 -0.3436  0.0133 -0.0371
10246TIP3    H154933   4.115   5.525   5.642 -1.6361  0.4264 -0.6840
10246TIP3    H254934   4.235   5.460   5.578  0.5149  2.4608  1.1335
10247TIP3   OH254935   0.370   3.425   8.567  0.5321 -0.0723 -0.0483
10247TIP3    H154936   0.313   3.454   8.638  2.3556  1.2881  0.9104
10247TIP3    H254937   0.430   3.498   8.552  0.2354 -0.2854 -3.0254
10248TIP3   OH254938   0.366   1.384   8.309 -0.4876  0.0755 -0.4181
10248TIP3    H154939   0.402   1.353   8.392  0.7869  1.3687 -0.4682
10248TIP3    H254940   0.415   1.336   8.242  1.1260  1.7386 -0.4830
10249TIP3   OH254941   0.869   5.351   6.106  0.3334  0.1164 -0.4503
10249TIP3    H154942   0.876   5.255   6.108 -0.9946 -0.0929 -2.5679
10249TIP3    H254943   0.787   5.370   6.151  0.8492  0.3379  0.4273
10250TIP3   OH254944   2.686   1.389   7.181 -0.6974 -0.4227 -0.1997
10250TIP3    H154945   2.635   1.308   7.184  1.8474 -2.1205  0.4048
10250TIP3    H254946   2.660   1.431   7.099 -3.4954 -0.8031  0.3976
10251TIP3   OH254947   6.128   4.420   6.075 -0.3778 -0.1254 -0.4020
10251TIP3    H154948   6.181   4.374   6.141  1.2556 -0.9965 -2.2037
10251TIP3    H254949   6.076   4.483   6.125  2.0558  0.4902  1.5762
10252TIP3   OH254950   3.516   4.594   7.605  0.0049 -0.4241  0.2427
10252TIP3    H154951   3.590   4.560   7.656 -0.6742 -0.7493  1.0336
10252TIP3    H254952   3.495   4.525   7.543  0.5947 -0.1793 -0.2408
10253TIP3   OH254953   2.270   1.713   6.571  0.1069 -0.0256 -0.5142
10253TIP3    H154954   2.347   1.770   6.569 -0.7031  1.1322  0.3689
10253TIP3    H254955   2.233   1.720   6.483  1.0059 -0.6343 -0.9652
10254TIP3   OH254956   5.698   0.348   5.404  0.3367  0.2387  0.0788
10254TIP3    H154957   5.705   0.418   5.469  2.2907 -0.8575  1.1300
10254TIP3    H254958   5.778   0.355   5.352 -0.7226  0.4456 -1.6146
10255TIP3   OH254959   2.717   5.412   8.700 -0.5117 -0.0609  0.1012
10255TIP3    H154960   2.673   5.457   8.772 -0.2400  0.5275 -0.0898
10255TIP3    H254961   2.711   5.472   8.626  1.1666  0.3479  0.2460
10256TIP3   OH254962   4.414   2.253   8.398  0.1922 -0.1419 -0.3029
10256TIP3    H154963   4.458   2.204   8.468  1.0614  0.4214 -0.4353
10256TIP3    H254964   4.323   2.223   8.401  0.0311  0.4032  1.5734
10257TIP3   OH254965   0.669   3.621   5.824  0.8910  0.3926 -0.1924
10257TIP3    H154966   0.613   3.556   5.782 -1.8391  3.5297 -1.9456
10257TIP3    H254967   0.615   3.658   5.895  2.3873  0.6969  0.8422
10258TIP3   OH254968   1.430   0.700   7.386 -0.7989 -0.3523 -0.1620
10258TIP3    H154969   1.429   0.621   7.440  0.5200 -0.8667 -0.8311
10258TIP3    H254970   1.438   0.772   7.449 -0.3875 -0.8673  0.3920
10259TIP3   OH254971   5.841   6.092   7.606  0.5535  0.0781  0.0474
10259TIP3    H154972   5.844   6.013   7.659 -1.8894 -1.2927 -1.6886
10259TIP3    H254973   5.749   6.100   7.580  0.9296  2.8961 -0.7523
10260TIP3   OH254974   2.221   2.658   5.504 -0.2423 -0.3555 -0.5496
10260TIP3    H154975   2.301   2.698   5.538 -0.1158 -1.1213  0.0875
10260TIP3    H254976   2.239   2.641   5.412 -0.1800  0.7394 -0.7502
10261TIP3   OH254977   3.106   3.705   7.081  0.2264 -0.0370 -0.1962
10261TIP3    H154978   3.199   3.694   7.098  0.1166 -1.9006 -0.6551
10261TIP3    H254979   3.065   3.625   7.114 -1.1864  0.6070 -0.2834
10262TIP3   OH254980   0.589   0.518   7.405 -0.7729 -1.0617  0.5754
10262TIP3    H154981   0.640   0.471   7.339 -0.0423 -0.4227  0.6729
10262TIP3    H254982   0.649   0.528   7.479 -0.5947  0.8408  0.2069
10263TIP3   OH254983   3.873   3.028   6.647  0.4570 -0.3551 -0.4171
10263TIP3    H154984   3.925   3.080   6.586 -0.1217 -1.2962 -1.7774
10263TIP3    H254985   3.784   3.059   6.635  0.3864 -0.2855  0.2541
10264TIP3   OH254986   0.035   4.687   7.059  0.2210  0.1938  0.3171
10264TIP3    H154987   0.120   4.673   7.102  0.8906  0.3882 -0.8891
10264TIP3    H254988   0.023   4.782   7.062  1.0890  0.3985 -1.3489
10265TIP3   OH254989   1.171   5.242   7.814  0.0556  0.2005 -0.4259
10265TIP3    H154990   1.193   5.160   7.769  0.2870  0.3242 -0.5376
10265TIP3    H254991   1.148   5.214   7.903  1.2992  0.1259 -0.1136
10266TIP3   OH254992   0.158   4.062   6.292 -0.2743 -0.2267 -0.0302
10266TIP3    H154993   0.074   4.018   6.283 -1.1981  1.1737  1.2168
10266TIP3    H254994   0.162   4.123   6.219 -1.0095  0.6805  0.6580
10267TIP3   OH254995   2.115   0.672   5.654  0.1849  0.3077  0.4848
10267TIP3    H154996   2.114   0.676   5.558  3.0345  0.7346  0.3604
10267TIP3    H254997   2.206   0.693   5.677  0.0225 -1.4997  3.2115
10268TIP3   OH254998   1.281   1.537   5.978  0.1044 -0.1614 -0.7471
10268TIP3    H154999   1.288   1.471   6.047 -1.0482 -0.0114 -0.4598
10268TIP3    H255000   1.322   1.615   6.016  1.1241 -0.5904 -0.9415
10269TIP3   OH255001   1.746   6.171   6.373 -0.1440  0.1914 -0.1935
10269TIP3    H155002   1.696   6.205   6.298 -0.2165  0.0613 -0.2047
10269TIP3    H255003   1.753   6.245   6.433  0.8886  0.6194 -0.8282
10270TIP3   OH255004   5.338   4.219   7.915 -0.0641 -0.1307  0.1793
10270TIP3    H155005   5.415   4.165   7.893 -0.0156  0.8965 -2.6783
10270TIP3    H255006   5.350   4.298   7.862 -2.6728  0.4412  0.3512
10271TIP3   OH255007   3.524   5.158   7.308  0.1514  0.5615 -0.0615
10271TIP3    H155008   3.542   5.167   7.401  1.2273  1.1343 -0.3078
10271TIP3    H255009   3.610   5.152   7.267 -0.3142 -0.5034 -0.9493
10272TIP3   OH255010   3.777   5.462   7.103  0.3304  0.0509  0.2599
10272TIP3    H155011   3.821   5.546   7.095  1.2640 -0.3649  0.8262
10272TIP3    H255012   3.698   5.470   7.049  0.3353  1.3282  0.4238
10273TIP3   OH255013   0.973   1.518   8.822  0.3654 -0.0330  0.2546
10273TIP3    H155014   0.979   1.611   8.846 -0.4614  0.2113 -0.4208
10273TIP3    H255015   1.016   1.472   8.893  2.2386  0.9718 -0.1707
10274TIP3   OH255016   3.640   5.875   7.297 -0.3021 -0.3283  0.0137
10274TIP3    H155017   3.625   5.811   7.367 -1.9364  1.2444  1.2105
10274TIP3    H255018   3.558   5.878   7.248  0.6475 -1.0192 -1.6963
10275TIP3   OH255019   2.371   2.461   8.770 -0.2820  0.2444  0.1109
10275TIP3    H155020   2.410   2.466   8.857  0.3349  0.9797 -0.1981
10275TIP3    H255021   2.445   2.472   8.710 -0.7081 -0.2022 -0.5104
10276TIP3   OH255022   5.279   0.611   7.933 -0.0771 -0.5627 -0.4110
10276TIP3    H155023   5.228   0.589   7.855  1.1463 -0.8990 -1.1290
10276TIP3    H255024   5.355   0.657   7.900  0.2564 -0.3492  0.6283
10277TIP3   OH255025   3.384   1.766   8.442  0.0431 -0.0337  0.2039
10277TIP3    H155026   3.381   1.682   8.487 -1.7846  0.1397  0.4797
10277TIP3    H255027   3.378   1.744   8.349 -0.7231 -0.2153  0.2893
10278TIP3   OH255028   3.360   3.769   8.333 -0.1792 -0.0841  0.0584
10278TIP3    H155029   3.434   3.730   8.286 -0.4088 -0.2981 -0.1316
10278TIP3    H255030   3.399   3.840   8.384 -0.0291  0.6413 -1.0354
10279TIP3   OH255031   2.308   5.661   7.484 -0.1074  0.4928 -0.5609
10279TIP3    H155032   2.308   5.707   7.400  0.4647  1.0842 -0.2548
10279TIP3    H255033   2.219   5.629   7.494  0.0348 -0.3677 -1.8073
10280TIP3   OH255034   0.675   3.261   7.786 -0.2938  0.3193 -0.0618
10280TIP3    H155035   0.701   3.192   7.847 -1.0580 -2.1248 -2.3176
10280TIP3    H255036   0.753   3.316   7.777  0.1668  0.1064  2.1974
10281TIP3   OH255037   1.944   0.818   8.017 -0.0130 -0.4458  0.4183
10281TIP3    H155038   1.852   0.840   8.033  0.0034 -1.0105  1.3873
10281TIP3    H255039   1.946   0.722   8.015  0.7406 -0.4957  1.7953
10282TIP3   OH255040   0.456   5.167   6.079 -0.5758 -0.1102 -0.1107
10282TIP3    H155041   0.402   5.151   6.157 -0.4117  2.2318  0.5487
10282TIP3    H255042   0.444   5.088   6.026 -2.0406 -1.0565  1.4952
10283TIP3   OH255043   0.582   3.603   8.595 -0.2216  0.2047 -0.0057
10283TIP3    H155044   0.611   3.664   8.663 -1.5982  1.2702 -0.3375
10283TIP3    H255045   0.652   3.607   8.529  0.9528 -0.5748  1.1424
10284TIP3   OH255046   0.505   2.120   6.479  0.1465 -0.1811 -0.1203
10284TIP3    H155047   0.493   2.082   6.566 -1.7727 -0.2509 -0.3673
10284TIP3    H255048   0.542   2.207   6.495  1.2693 -0.7727  0.6463
10285TIP3   OH255049   3.008   5.698   7.658  0.2584  0.6612 -0.6044
10285TIP3    H155050   3.050   5.760   7.718 -1.0621  1.5437 -0.5522
10285TIP3    H255051   3.064   5.621   7.660 -0.6555 -0.1461  3.2897
10286TIP3   OH255052   1.200   0.085   6.271  0.0793  0.5215  0.6758
10286TIP3    H155053   1.263   0.155   6.290  0.1655  0.5524  0.2929
10286TIP3    H255054   1.145   0.080   6.349  1.6674 -0.7039  1.7973
10287TIP3   OH255055   4.978   1.255   6.484 -0.0086  0.1321  0.4661
10287TIP3    H155056   4.901   1.248   6.429 -0.3189 -1.3689  1.0505
10287TIP3    H255057   4.947   1.233   6.572  0.9391  0.2314  0.8422
10288TIP3   OH255058   6.178   2.736   7.575  0.3209  0.2627 -0.0711
10288TIP3    H155059   6.092   2.700   7.557  0.6849  0.5400 -2.8305
10288TIP3    H255060   6.215   2.680   7.643 -1.8727 -0.0376  0.9313
10289TIP3   OH255061   1.924   4.698   6.318 -0.3820 -0.0225  0.0319
10289TIP3    H155062   1.899   4.608   6.342 -1.7779  0.9844  2.8489
10289TIP3    H255063   2.013   4.708   6.351 -0.7045 -0.0086  0.9342
10290TIP3   OH255064   3.558   4.253   7.077  0.4285  0.4650 -0.2109
10290TIP3    H155065   3.527   4.193   7.010  1.7875  0.5943 -0.9923
10290TIP3    H255066   3.647   4.223   7.097  0.1008  0.5070  1.4532
10291TIP3   OH255067   0.182   5.072   7.984  0.0143 -0.4131  0.0597
10291TIP3    H155068   0.123   5.079   8.060  1.2633 -0.7712  1.1019
10291TIP3    H255069   0.165   5.152   7.934  0.0479  0.4520  1.3790
10292TIP3   OH255070   2.391   2.055   8.080  0.5945  0.0700  0.0393
10292TIP3    H155071   2.428   1.977   8.122  1.1891 -0.2336 -1.0163
10292TIP3    H255072   2.414   2.046   7.987 -1.3387  0.3203 -0.5186
10293TIP3   OH255073   3.814   4.313   6.486  0.3581 -0.2170 -0.2422
10293TIP3    H155074   3.781   4.334   6.398 -1.3525 -0.3459  0.3272
10293TIP3    H255075   3.809   4.218   6.491 -1.5750 -0.1289  0.6678
10294TIP3   OH255076   6.447   0.601   6.668 -0.7427 -0.2742  0.1883
10294TIP3    H155077   6.480   0.553   6.592 -0.4317 -1.1998  0.8925
10294TIP3    H255078   6.526   0.625   6.717 -0.9787 -0.4310  0.6512
10295TIP3   OH255079   6.565   4.239   6.451 -0.1050  0.5032  0.1611
10295TIP3    H155080   6.598   4.168   6.395 -0.7358  0.8866 -0.7205
10295TIP3    H255081   6.595   4.217   6.538  0.4359 -0.4076 -0.2462
10296TIP3   OH255082   5.095   6.226   7.113 -0.0760  0.4046  0.8927
10296TIP3    H155083   5.183   6.194   7.134 -0.2448 -0.8654 -0.1468
10296TIP3    H255084   5.109   6.294   7.047  0.1013 -0.9229 -0.5104
10297TIP3   OH255085   3.792   0.713   6.917 -0.0506 -0.1565  0.2076
10297TIP3    H155086   3.761   0.804   6.910 -2.0649 -0.7416  0.8976
10297TIP3    H255087   3.785   0.678   6.828  0.2519  0.1875  0.0416
10298TIP3   OH255088   2.563   6.392   6.239 -0.2595 -0.6276 -0.3223
10298TIP3    H155089   2.503   6.358   6.306 -1.2247  0.9919 -0.3010
10298TIP3    H255090   2.650   6.373   6.272 -0.6830 -3.7084 -0.6919
10299TIP3   OH255091   5.653   5.420   5.550  0.1107  0.4343 -0.1949
10299TIP3    H155092   5.689   5.505   5.575 -0.4646  0.7969 -0.5571
10299TIP3    H255093   5.566   5.418   5.591 -0.0949  0.2529 -0.6322
10300TIP3   OH255094   4.414   5.417   6.945 -0.5961 -0.4577 -0.1769
10300TIP3    H155095   4.322   5.411   6.919 -0.1620  0.4302 -2.1320
10300TIP3    H255096   4.433   5.511   6.943  0.6057 -0.6927 -0.8620
10301TIP3   OH255097   2.835   0.869   5.399  0.0955 -0.1042  0.2678
10301TIP3    H155098   2.911   0.927   5.394 -0.0550  0.0821  0.0922
10301TIP3    H255099   2.854   0.810   5.472  0.9803 -0.8674 -0.5410
10302TIP3   OH255100   4.879   0.190   8.997 -0.4224 -0.3332 -0.2453
10302TIP3    H155101   4.858   0.256   9.063  0.8267 -0.2433  0.1044
10302TIP3    H255102   4.825   0.213   8.922 -2.0884 -0.6125  0.8321
10303TIP3   OH255103   5.450   6.197   7.823 -0.2168  0.2356  0.1775
10303TIP3    H155104   5.425   6.277   7.778 -3.0027  0.5005  1.9876
10303TIP3    H255105   5.370   6.144   7.826  0.7778 -1.3038  1.6803
10304TIP3   OH255106   4.819   3.674   8.273  0.0895  0.1550  0.4028
10304TIP3    H155107   4.738   3.625   8.290  0.7726 -0.5981  1.6227
10304TIP3    H255108   4.794   3.766   8.286 -0.9934  0.0930 -1.0352
10305TIP3   OH255109   5.626   5.686   7.503  0.7986 -0.4021  0.0925
10305TIP3    H155110   5.682   5.609   7.511 -0.4329 -1.3447 -0.2348
10305TIP3    H255111   5.590   5.698   7.591  2.8946  1.3442  0.8201
10306TIP3   OH255112   2.791   3.722   6.988 -0.2691  0.0639 -0.2881
10306TIP3    H155113   2.778   3.814   7.010 -2.8889 -0.4981  1.0857
10306TIP3    H255114   2.870   3.696   7.036 -1.0306  1.0110  1.6112
10307TIP3   OH255115   5.411   1.953   5.935 -0.3975  0.5145  0.6503
10307TIP3    H155116   5.403   2.033   5.883  0.8212  0.8881  1.0015
10307TIP3    H255117   5.479   1.903   5.891 -0.5056  0.0897  0.9617
10308TIP3   OH255118   0.476   3.653   6.466  0.5087  0.1819 -0.1041
10308TIP3    H155119   0.556   3.600   6.463 -0.5555 -1.4982 -0.3075
10308TIP3    H255120   0.488   3.718   6.396  1.1565 -0.8861 -1.0296
10309TIP3   OH255121   0.133   2.827   7.612 -0.3710  0.5281  0.2529
10309TIP3    H155122   0.187   2.772   7.556 -0.2258  0.5110  0.4108
10309TIP3    H255123   0.062   2.770   7.641 -0.1791  0.4047  0.4769
10310TIP3   OH255124   5.343   1.342   7.680 -0.1019  0.1892  0.3485
10310TIP3    H155125   5.329   1.261   7.729  1.3294 -0.5571 -0.3824
10310TIP3    H255126   5.306   1.324   7.593 -0.0179  0.4066  0.2665
10311TIP3   OH255127   5.002   3.733   7.608  0.0405  0.1567  0.3350
10311TIP3    H155128   5.053   3.654   7.621  0.2352  0.1385 -0.4815
10311TIP3    H255129   5.062   3.805   7.626  0.5267  0.1449 -1.1093
10312TIP3   OH255130   0.708   0.910   7.290  0.2127 -0.0893 -0.0610
10312TIP3    H155131   0.714   0.970   7.364 -0.0075 -0.3536  0.1748
10312TIP3    H255132   0.777   0.938   7.230  0.8495 -0.2925  0.5579
10313TIP3   OH255133   6.358   0.734   7.982 -0.4541  0.0273 -0.1899
10313TIP3    H155134   6.440   0.751   8.027  0.3984  0.0069 -1.6783
10313TIP3    H255135   6.292   0.780   8.034  0.6986  1.3161  0.1877
10314TIP3   OH255136   4.273   2.398   6.407 -0.3224 -0.4004  0.0678
10314TIP3    H155137   4.195   2.344   6.392 -1.0741  1.0522 -1.5079
10314TIP3    H255138   4.239   2.486   6.421  1.0374  0.6026 -2.3443
10315TIP3   OH255139   6.448   1.731   7.236  0.1777  0.8554  0.2030
10315TIP3    H155140   6.383   1.799   7.252  0.8575  1.6063 -0.1552
10315TIP3    H255141   6.493   1.722   7.320  2.6089  3.5936 -0.6197
10316TIP3   OH255142   0.645   5.900   7.409 -0.5868  0.1675  0.1661
10316TIP3    H155143   0.630   5.943   7.494 -1.8148 -1.5316  0.8732
10316TIP3    H255144   0.740   5.905   7.396 -0.4705  1.1827  1.2299
10317TIP3   OH255145   3.177   1.606   6.786  0.3098 -0.0617 -0.3555
10317TIP3    H155146   3.135   1.649   6.860  0.0993  1.0365 -1.0752
10317TIP3    H255147   3.138   1.519   6.782  1.3220 -0.6435  1.6341
10318TIP3   OH255148   0.662   6.585   5.548 -0.3989  0.2059 -0.2507
10318TIP3    H155149   0.609   6.660   5.574 -2.2514 -1.4353  1.0020
10318TIP3    H255150   0.658   6.584   5.452  0.3743  2.1285 -0.3420
10319TIP3   OH255151   0.879   0.865   6.456 -0.2819 -0.5773 -0.2613
10319TIP3    H155152   0.858   0.790   6.511  0.3762 -0.4911  0.1257
10319TIP3    H255153   0.892   0.828   6.369 -2.2288 -0.5932 -0.5684
10320TIP3   OH255154   4.921   2.110   5.718  0.2181  0.1830 -0.3685
10320TIP3    H155155   4.868   2.066   5.785  1.2511 -0.8139 -0.1908
10320TIP3    H255156   4.856   2.144   5.656 -0.6528 -0.8794 -0.0788
10321TIP3   OH255157   1.486   0.133   6.367 -0.1306  0.3768 -0.2351
10321TIP3    H155158   1.483   0.178   6.451  2.2109 -0.6318  0.4608
10321TIP3    H255159   1.491   0.204   6.302 -0.9834  1.1424  0.5084
10322TIP3   OH255160   3.316   0.565   5.683  0.0916 -0.5512  0.1072
10322TIP3    H155161   3.354   0.648   5.712 -0.7442  0.1156 -0.6452
10322TIP3    H255162   3.310   0.512   5.763 -0.7195  0.6703  0.8931
10323TIP3   OH255163   3.179   0.981   6.676 -0.1863 -0.0032 -0.8093
10323TIP3    H155164   3.140   0.894   6.680 -1.1354  0.3860 -1.2801
10323TIP3    H255165   3.213   0.988   6.586 -0.5777  0.3016 -0.9357
10324TIP3   OH255166   2.955   3.420   7.015  0.1894 -0.2350 -0.0112
10324TIP3    H155167   2.937   3.426   6.921  0.2987 -0.8555 -0.0726
10324TIP3    H255168   2.868   3.424   7.055  0.1079 -0.4588 -0.1637
10325TIP3   OH255169   2.354   3.190   5.748  0.8933 -0.1766  0.1018
10325TIP3    H155170   2.331   3.254   5.815 -1.1267 -0.3133 -0.4109
10325TIP3    H255171   2.285   3.197   5.682  1.0770 -2.2565 -0.4045
10326TIP3   OH255172   2.482   2.126   7.792  0.1710 -0.2237 -0.4580
10326TIP3    H155173   2.544   2.183   7.747  1.0912  0.3743  1.4863
10326TIP3    H255174   2.436   2.081   7.721 -0.2837  2.5552 -2.0696
10327TIP3   OH255175   4.821   5.115   7.151  0.3097  0.1425  0.6195
10327TIP3    H155176   4.817   5.027   7.189 -1.6773 -0.4350 -0.7975
10327TIP3    H255177   4.886   5.107   7.081  0.7557  0.0418  1.0393
10328TIP3   OH255178   3.657   1.321   7.904  0.0460 -0.0541 -0.1844
10328TIP3    H155179   3.627   1.231   7.890  1.8930 -0.5231 -1.5075
10328TIP3    H255180   3.605   1.352   7.978 -3.1689 -0.9434 -1.9168
10329TIP3   OH255181   6.690   1.846   6.742  0.4273  0.7147  0.4394
10329TIP3    H155182   6.666   1.935   6.717  0.5840  1.4077  2.6052
10329TIP3    H255183   6.647   1.832   6.826  0.8983 -1.0534  0.4253
10330TIP3   OH255184   0.820   0.601   6.849 -0.2484 -0.3186  0.4234
10330TIP3    H155185   0.769   0.539   6.901  0.6570 -1.4604 -0.0149
10330TIP3    H255186   0.900   0.554   6.826  2.5841  2.2803  3.6733
10331TIP3   OH255187   5.109   1.254   5.506  0.4173 -0.1651 -0.1021
10331TIP3    H155188   5.085   1.332   5.556  0.1718  0.4625 -1.1685
10331TIP3    H255189   5.167   1.286   5.438 -0.3758 -0.7674 -1.0983
10332TIP3   OH255190   2.045   2.152   6.210 -0.5056 -0.1253  0.2825
10332TIP3    H155191   2.114   2.217   6.220 -1.0993  0.4664  0.6438
10332TIP3    H255192   1.968   2.203   6.183 -1.1759 -0.5725  1.3100
10333TIP3   OH255193   1.792   0.592   7.501  0.0801  0.1089 -0.6576
10333TIP3    H155194   1.721   0.655   7.490 -0.8112 -0.6196  0.6404
10333TIP3    H255195   1.866   0.645   7.530  0.1902  0.9210 -2.3020
10334TIP3   OH255196   4.156   3.130   6.649  0.0154 -0.3954 -0.0389
10334TIP3    H155197   4.116   3.111   6.734  0.1523 -3.2556 -0.5060
10334TIP3    H255198   4.235   3.076   6.647  0.6255  0.4762 -1.5572
10335TIP3   OH255199   0.184   6.672   7.199 -0.0264  0.4345 -0.0777
10335TIP3    H155200   0.110   6.728   7.223 -1.7667 -1.9526  0.4746
10335TIP3    H255201   0.171   6.592   7.250  2.9150 -0.1144 -0.0546
10336TIP3   OH255202   3.604   5.263   6.804  0.2927  0.1143 -0.2859
10336TIP3    H155203   3.557   5.254   6.887  0.1488  0.9256 -0.2701
10336TIP3    H255204   3.561   5.338   6.760  1.8615  1.1818 -0.0610
10337TIP3   OH255205   0.330   1.454   7.637 -0.4709 -0.3603 -0.5191
10337TIP3    H155206   0.405   1.460   7.696  1.1309  0.1728 -2.5315
10337TIP3    H255207   0.366   1.429   7.553 -2.6803 -0.9481 -1.3716
10338TIP3   OH255208   5.600   3.545   7.025 -0.3167 -0.0302 -0.5913
10338TIP3    H155209   5.583   3.473   6.964 -1.9206 -1.1966  1.1341
10338TIP3    H255210   5.555   3.520   7.105  0.1289  2.3414  0.4846
10339TIP3   OH255211   1.055   5.711   7.281  0.2144 -0.3988 -0.1409
10339TIP3    H155212   1.103   5.631   7.260 -0.4457 -0.9280  0.3210
10339TIP3    H255213   1.109   5.755   7.346 -0.0468 -1.1227  0.5805
10340TIP3   OH255214   2.578   5.714   5.814  0.3836  1.1344 -0.2577
10340TIP3    H155215   2.566   5.783   5.879  0.3924  0.3631  0.5840
10340TIP3    H255216   2.663   5.733   5.774  0.0254  2.0561 -0.5976
10341TIP3   OH255217   2.758   4.541   5.575 -0.0963 -0.3102 -0.2739
10341TIP3    H155218   2.704   4.604   5.622  0.1188 -0.2560 -0.0941
10341TIP3    H255219   2.720   4.537   5.487 -1.0012 -1.0258  0.1439
10342TIP3   OH255220   2.753   6.432   5.824 -0.4973 -0.2302 -0.6829
10342TIP3    H155221   2.829   6.420   5.767 -0.3185 -0.7183 -0.3427
10342TIP3    H255222   2.771   6.377   5.900 -0.5281  0.7815  0.0612
10343TIP3   OH255223   1.708   2.661   6.343  0.1673  0.1525  0.2105
10343TIP3    H155224   1.763   2.588   6.372 -0.3815 -0.6659 -0.7760
10343TIP3    H255225   1.715   2.661   6.248 -0.2080  1.1098  0.1686
10344TIP3   OH255226   4.934   5.418   6.237  0.3211 -0.1336  1.2369
10344TIP3    H155227   4.902   5.505   6.260 -1.0682 -0.0410 -0.8633
10344TIP3    H255228   5.015   5.434   6.190 -0.3540  0.0986  0.1298
10345TIP3   OH255229   1.208   5.492   6.902  0.1926  0.3612  0.2600
10345TIP3    H155230   1.174   5.467   6.816  0.6425 -1.9316  0.6832
10345TIP3    H255231   1.297   5.523   6.884  0.0070  0.6587 -0.1730
10346TIP3   OH255232   4.326   4.095   6.979  0.3364 -0.8786  0.3244
10346TIP3    H155233   4.255   4.062   6.924 -1.0655  0.3786  1.2936
10346TIP3    H255234   4.384   4.141   6.918 -1.0296  0.2383 -0.1783
10347TIP3   OH255235   5.337   4.875   7.899 -0.5913  0.1241 -0.0187
10347TIP3    H155236   5.270   4.809   7.917 -0.0369 -0.3301  0.4074
10347TIP3    H255237   5.400   4.866   7.971  0.8723 -0.6878 -1.3271
10348TIP3   OH255238   4.276   5.908   6.651 -0.2046  0.7413  0.3037
10348TIP3    H155239   4.258   5.996   6.685  0.1407  1.5776 -1.5658
10348TIP3    H255240   4.211   5.896   6.581  0.8660  0.2265 -0.6244
10349TIP3   OH255241   2.602   4.478   6.860  0.0399  0.1656 -0.3543
10349TIP3    H155242   2.577   4.570   6.870  1.2336  0.3758  0.9807
10349TIP3    H255243   2.532   4.429   6.903 -0.7078  0.4255 -1.2561
10350TIP3   OH255244   4.508   5.599   6.622 -0.0696 -0.1594  0.5117
10350TIP3    H155245   4.545   5.684   6.644  0.9430 -0.3479 -0.3651
10350TIP3    H255246   4.421   5.618   6.587 -0.7285  0.3220  2.3020
10351TIP3   OH255247   1.143   1.797   5.797 -0.2063 -0.2575 -0.2717
10351TIP3    H155248   1.146   1.707   5.763  0.3320  0.0247 -0.9882
10351TIP3    H255249   1.217   1.841   5.755 -0.0642  0.3456  0.5880
10352TIP3   OH255250   2.247   2.315   6.128  0.0667 -0.7057 -0.0010
10352TIP3    H155251   2.254   2.257   6.052  1.9737  0.1830 -0.5532
10352TIP3    H255252   2.290   2.396   6.102  1.3098 -0.5651  2.1939
10353TIP3   OH255253   6.050   0.687   7.576  0.4126  0.0365  0.1713
10353TIP3    H155254   6.008   0.708   7.492 -0.3498 -0.5872  0.3896
10353TIP3    H255255   5.980   0.696   7.640  0.7474 -0.4861  0.6128
10354TIP3   OH255256   3.006   6.556   8.362  0.0950 -0.0688  0.5425
10354TIP3    H155257   3.029   6.463   8.373  0.2195  0.0209  1.0876
10354TIP3    H255258   3.078   6.603   8.404  0.4418  0.3014 -0.4534
10355TIP3   OH255259   0.649   1.566   6.494  0.3381 -0.1967  0.1520
10355TIP3    H155260   0.742   1.573   6.517  0.3302 -0.2070  0.1866
10355TIP3    H255261   0.610   1.514   6.564  0.1093  0.6559  0.6735
10356TIP3   OH255262   3.640   4.393   5.144 -0.5877  0.4094 -0.0185
10356TIP3    H155263   3.723   4.422   5.106  0.3323 -0.1338  1.4616
10356TIP3    H255264   3.590   4.473   5.159  0.5877  0.9838  1.0503
10357TIP3   OH255265   3.056   6.452   6.492 -0.0648 -0.4083 -0.1449
10357TIP3    H155266   3.120   6.420   6.427 -0.8671  1.0598 -1.7136
10357TIP3    H255267   3.097   6.530   6.529  0.0790 -0.8493  0.6605
10358TIP3   OH255268   5.637   6.538   5.364 -0.0791 -0.2980  0.0376
10358TIP3    H155269   5.633   6.633   5.353 -0.7021 -0.4082 -0.7959
10358TIP3    H255270   5.731   6.517   5.360 -0.0085  0.1661 -0.9327
10359TIP3   OH255271   1.575   0.815   7.153 -0.2128 -0.4071  0.6273
10359TIP3    H155272   1.512   0.813   7.081 -0.7042 -2.1755  1.0552
10359TIP3    H255273   1.549   0.742   7.210  1.9963 -0.9608  1.0216
10360TIP3   OH255274   3.517   2.469   7.572  0.3104 -0.3455  0.2179
10360TIP3    H155275   3.511   2.564   7.567 -0.2824 -0.4114 -0.3862
10360TIP3    H255276   3.433   2.441   7.608  0.2024 -0.6814 -0.2784
10361TIP3   OH255277   6.616   6.419   7.844 -0.3540 -0.2564 -0.1341
10361TIP3    H155278   6.607   6.400   7.937  0.8265 -1.9761 -0.3184
10361TIP3    H255279   6.528   6.412   7.809 -0.8229  0.4946  0.8657
10362TIP3   OH255280   5.084   5.787   6.471 -0.5407 -0.1670  0.1956
10362TIP3    H155281   5.092   5.691   6.474  1.2343 -0.0675 -0.1781
10362TIP3    H255282   5.022   5.803   6.400 -0.2433 -1.0409 -0.2855
10363TIP3   OH255283   2.703   4.926   5.944 -0.3127  0.4168  0.1842
10363TIP3    H155284   2.703   4.989   6.015  1.0925  1.8598 -1.0008
10363TIP3    H255285   2.791   4.933   5.906 -0.6526 -1.0965 -0.9912
10364TIP3   OH255286   1.235   5.891   5.695 -0.3665 -0.2940 -0.6137
10364TIP3    H155287   1.222   5.969   5.641  0.3001  0.7327  0.6651
10364TIP3    H255288   1.155   5.840   5.684 -2.2487  2.0864  0.9835
10365TIP3   OH255289   3.863   2.987   5.853  0.8263 -0.0469  0.0806
10365TIP3    H155290   3.874   2.901   5.893 -0.2131  0.0291  0.5646
10365TIP3    H255291   3.858   2.969   5.759  0.9520 -0.4748  0.1521
10366TIP3   OH255292   1.471   0.845   8.598  0.1645 -0.4073  0.3469
10366TIP3    H155293   1.376   0.850   8.606 -0.0269  0.3592 -1.7679
10366TIP3    H255294   1.495   0.767   8.648 -1.2926  0.5488  2.7309
10367TIP3   OH255295   1.552   3.275   8.300  0.0038 -0.0769  0.0262
10367TIP3    H155296   1.544   3.352   8.356  0.9833 -0.1620  0.3030
10367TIP3    H255297   1.645   3.252   8.303 -0.3802 -1.7436  0.5882
10368TIP3   OH255298   6.556   3.570   9.271  0.2280  0.3632  0.0844
10368TIP3    H155299   6.607   3.650   9.258  0.1160  0.3483 -0.4711
10368TIP3    H255300   6.465   3.598   9.263  0.2113 -0.0349 -1.5083
10369TIP3   OH255301   1.448   1.385   7.733  0.1017 -0.2897 -0.2888
10369TIP3    H155302   1.478   1.335   7.808  1.0427 -0.4073 -0.7250
10369TIP3    H255303   1.369   1.430   7.763  0.4165 -0.4120  0.7305
10370TIP3   OH255304   5.241   3.889   6.760  0.0689  0.3634 -0.0747
10370TIP3    H155305   5.215   3.877   6.851  2.8024 -2.3172  0.5117
10370TIP3    H255306   5.320   3.942   6.765  0.0118  0.5356 -0.9192
10371TIP3   OH255307   5.114   0.533   8.277  0.0425  0.0956 -0.5085
10371TIP3    H155308   5.053   0.521   8.203 -0.0681 -0.5252 -0.3238
10371TIP3    H255309   5.163   0.451   8.280  0.5160  0.3864 -0.3128
10372TIP3   OH255310   5.104   1.453   5.684  0.1530 -0.5603 -0.2418
10372TIP3    H155311   5.061   1.392   5.744 -0.1706 -0.5243 -0.4335
10372TIP3    H255312   5.189   1.470   5.724 -0.7118  0.8206  1.1125
10373TIP3   OH255313   5.759   0.761   7.959  0.2704  0.6779  0.4787
10373TIP3    H155314   5.687   0.740   7.900  1.4163  0.3205 -0.8492
10373TIP3    H255315   5.758   0.857   7.965 -0.7500  0.6435  1.0729
10374TIP3   OH255316   0.115   0.246   8.381  0.1661  0.0246 -0.0901
10374TIP3    H155317   0.074   0.252   8.467 -1.3830 -0.1200 -0.7826
10374TIP3    H255318   0.206   0.226   8.399  0.1755  1.3924  1.5409
10375TIP3   OH255319   4.186   1.008   7.553  0.0674  0.0994  0.5397
10375TIP3    H155320   4.186   0.980   7.645 -0.4826  1.6752  1.0622
10375TIP3    H255321   4.215   1.099   7.557 -0.4251  0.3279 -0.8070
10376TIP3   OH255322   4.468   4.277   7.713 -0.0482  0.2079  0.0734
10376TIP3    H155323   4.413   4.352   7.690  0.0470  0.4292  0.5733
10376TIP3    H255324   4.424   4.236   7.787 -1.2894 -1.5269 -1.5199
10377TIP3   OH255325   0.903   4.605   5.461 -0.2497  0.4707  0.3951
10377TIP3    H155326   0.957   4.684   5.457  0.5948 -0.1117 -0.0269
10377TIP3    H255327   0.817   4.636   5.490  0.3024  1.4174  1.0857
10378TIP3   OH255328   0.743   4.905   6.968  0.0150 -0.2698  0.2995
10378TIP3    H155329   0.703   4.925   6.884 -1.1431 -2.1461  0.3515
10378TIP3    H255330   0.803   4.978   6.983 -0.7706  0.8268 -1.4673
10379TIP3   OH255331   4.397   3.939   9.100  0.2609  0.0393 -0.1276
10379TIP3    H155332   4.357   4.016   9.059 -0.3668 -0.8893 -1.3112
10379TIP3    H255333   4.323   3.882   9.123  0.7865 -1.8443 -2.6269
10380TIP3   OH255334   0.075   2.950   5.946  0.3246  0.0200 -0.0032
10380TIP3    H155335   0.115   2.892   5.881  1.6101  1.9380 -0.9975
10380TIP3    H255336   0.137   3.023   5.955 -0.7209  0.7297  2.0003
10381TIP3   OH255337   2.173   1.662   7.064 -0.6249 -0.4140 -0.5368
10381TIP3    H155338   2.248   1.603   7.054  0.7449  0.9855  0.8675
10381TIP3    H255339   2.179   1.693   7.155 -2.2114  0.6821 -0.7568
10382TIP3   OH255340   4.718   4.820   5.463 -0.3687  0.1313 -0.6050
10382TIP3    H155341   4.794   4.773   5.429  0.0782  0.6744 -0.3640
10382TIP3    H255342   4.755   4.890   5.516 -1.0459  0.1493 -0.1542
10383TIP3   OH255343   1.437   6.391   7.196  0.1384 -0.5299 -0.8541
10383TIP3    H155344   1.520   6.344   7.184 -0.0637 -1.6926  1.6500
10383TIP3    H255345   1.373   6.322   7.214 -1.2970  0.3922 -2.2706
10384TIP3   OH255346   0.660   2.161   8.552  0.7028 -0.1543  0.1197
10384TIP3    H155347   0.754   2.173   8.539  0.6730 -2.3740 -3.2185
10384TIP3    H255348   0.653   2.094   8.620  1.4373  0.9394  1.3093
10385TIP3   OH255349   0.741   5.617   8.585 -0.0537 -0.2184  0.0919
10385TIP3    H155350   0.811   5.555   8.606 -1.7154 -2.3235 -0.2784
10385TIP3    H255351   0.708   5.645   8.670  1.7372  1.5286  0.3042
10386TIP3   OH255352   1.297   1.010   7.366  0.0642 -0.2504 -0.0617
10386TIP3    H155353   1.390   1.026   7.351  0.1338 -1.2681 -0.8209
10386TIP3    H255354   1.295   0.942   7.434 -0.1180 -0.4975 -0.3129
10387TIP3   OH255355   5.497   1.528   8.030  0.2460  0.4336  0.4485
10387TIP3    H155356   5.406   1.523   8.002  0.7929  0.3631 -1.4165
10387TIP3    H255357   5.525   1.616   8.006  0.8347  0.2674  0.5039
10388TIP3   OH255358   4.874   2.918   8.947 -0.1756  0.0709 -0.5537
10388TIP3    H155359   4.895   3.012   8.954  2.0243 -0.2192 -2.1338
10388TIP3    H255360   4.780   2.916   8.930 -0.7884  1.8106  2.1495
10389TIP3   OH255361   5.520   0.112   7.981  0.3464 -0.2289  0.5929
10389TIP3    H155362   5.538   0.120   7.887 -1.7972 -0.8990  0.0683
10389TIP3    H255363   5.478   0.195   8.004  1.3860  0.1644  1.1131
10390TIP3   OH255364   4.499   1.383   8.066 -0.3798 -0.5644 -0.1222
10390TIP3    H155365   4.550   1.398   7.986 -0.1098 -1.4447 -0.1303
10390TIP3    H255366   4.555   1.416   8.136 -0.2719 -0.5145 -0.2314
10391TIP3   OH255367   5.431   5.613   5.977 -0.2784  0.3168 -0.0671
10391TIP3    H155368   5.380   5.687   6.011 -1.0747 -0.5351  0.6208
10391TIP3    H255369   5.448   5.559   6.053  1.8795  0.6797 -0.2364
10392TIP3   OH255370   2.357   2.795   6.674  0.0096 -0.6856 -0.1368
10392TIP3    H155371   2.425   2.786   6.607 -1.1104 -0.6113 -1.3287
10392TIP3    H255372   2.403   2.830   6.751  1.3295 -0.7731 -0.8568
10393TIP3   OH255373   2.457   3.670   5.978  0.5351 -0.3412  0.4048
10393TIP3    H155374   2.531   3.655   5.920 -0.6033 -2.7089 -0.5703
10393TIP3    H255375   2.396   3.723   5.926  0.3219 -0.8604  0.1189
10394TIP3   OH255376   6.413   5.073   9.186 -0.2321 -0.2226  0.4301
10394TIP3    H155377   6.406   5.153   9.133 -1.0554 -1.9191 -2.2160
10394TIP3    H255378   6.503   5.073   9.217  0.2725  0.8936 -0.9251
10395TIP3   OH255379   5.041   0.915   7.912 -0.7408 -0.1909  0.1069
10395TIP3    H155380   5.012   0.995   7.955  0.3900  0.6100 -0.5604
10395TIP3    H255381   5.126   0.895   7.951  0.2518  0.4833 -1.5818
10396TIP3   OH255382   1.211   4.279   8.682  0.4346 -0.3132 -0.1974
10396TIP3    H155383   1.253   4.310   8.601 -1.3053 -1.4016 -1.5882
10396TIP3    H255384   1.275   4.219   8.721  1.9617  1.4601  0.1458
10397TIP3   OH255385   1.858   1.687   7.380 -0.3983  0.5418  0.5523
10397TIP3    H155386   1.900   1.701   7.464 -2.3782  1.1379  1.5045
10397TIP3    H255387   1.825   1.597   7.383 -0.5003  0.5731  0.4224
10398TIP3   OH255388   5.235   0.453   6.472  0.2798  0.0332  0.6748
10398TIP3    H155389   5.272   0.375   6.512  0.4541  0.0936  0.6326
10398TIP3    H255390   5.191   0.422   6.393  0.4572 -0.0044  0.5920
10399TIP3   OH255391   0.219   4.792   6.697  0.4039 -0.3209 -0.0655
10399TIP3    H155392   0.250   4.878   6.728 -0.0650  0.2753 -1.1893
10399TIP3    H255393   0.300   4.745   6.674  0.6598 -0.1294  0.4327
10400TIP3   OH255394   3.495   0.903   8.236 -0.0211 -0.1767  0.1085
10400TIP3    H155395   3.509   0.997   8.226  1.4170 -0.2351  1.2817
10400TIP3    H255396   3.450   0.894   8.320 -1.0894 -0.4969 -0.4696
10401TIP3   OH255397   6.159   0.061   7.789 -0.4270 -0.2803 -0.4341
10401TIP3    H155398   6.221   0.011   7.843 -0.8759 -0.0856  0.2771
10401TIP3    H255399   6.191   0.051   7.700  1.0783  0.4414 -0.0032
10402TIP3   OH255400   1.801   5.589   7.181 -0.0834 -0.0258  0.1918
10402TIP3    H155401   1.874   5.529   7.199 -0.3979 -0.1406  1.1322
10402TIP3    H255402   1.834   5.675   7.205 -0.5981 -0.2150  1.6839
10403TIP3   OH255403   3.654   0.712   7.163  0.2830 -0.4907  0.5729
10403TIP3    H155404   3.562   0.711   7.190  0.0528  1.1387 -0.0115
10403TIP3    H255405   3.651   0.722   7.068  1.0342  0.7745  0.6579
10404TIP3   OH255406   1.638   2.531   8.600  0.1163  0.5770 -0.1388
10404TIP3    H155407   1.543   2.531   8.589  0.1489 -0.1929 -0.5004
10404TIP3    H255408   1.663   2.439   8.592  1.0262  0.8899 -1.1717
10405TIP3   OH255409   0.983   4.674   7.254  0.0058  0.4858  0.6253
10405TIP3    H155410   0.976   4.697   7.161 -0.3267  2.2735  1.0425
10405TIP3    H255411   0.949   4.751   7.299  0.1870 -0.3501  2.2419
10406TIP3   OH255412   5.354   6.205   8.080  0.1986  0.4235  0.3782
10406TIP3    H155413   5.411   6.233   8.008 -0.0082  1.8893  0.7615
10406TIP3    H255414   5.265   6.214   8.044  0.1318 -0.1461  0.3833
10407TIP3   OH255415   0.905   5.973   7.281 -1.0507 -0.2673  0.4732
10407TIP3    H155416   0.966   5.899   7.287 -0.2725  0.1721 -1.2913
10407TIP3    H255417   0.934   6.022   7.203 -1.2363  2.1666  1.8306
10408TIP3   OH255418   6.670   2.185   7.458  0.4823  0.5342 -0.3577
10408TIP3    H155419   6.742   2.247   7.446 -1.7561  3.3217 -0.4552
10408TIP3    H255420   6.625   2.183   7.374 -0.6390  0.3633  0.2246
10409TIP3   OH255421   1.933   3.238   6.554  0.0670 -0.1132 -0.0573
10409TIP3    H155422   1.948   3.189   6.635 -0.9824 -1.3076 -0.5511
10409TIP3    H255423   1.966   3.181   6.485 -1.3923 -0.2572 -0.6686
10410TIP3   OH255424   3.271   4.572   5.553  0.1171 -0.6049 -0.4289
10410TIP3    H155425   3.177   4.557   5.567 -0.0780  0.0934 -0.9537
10410TIP3    H255426   3.286   4.662   5.582  0.5816 -0.6338 -0.5713
10411TIP3   OH255427   1.056   1.088   7.429 -0.6110 -0.5393 -0.1028
10411TIP3    H155428   1.142   1.063   7.396 -1.0892 -0.6032 -1.3366
10411TIP3    H255429   1.056   1.183   7.425 -0.7262 -0.5528 -0.4472
10412TIP3   OH255430   2.773   0.844   8.267  0.5480 -0.6716 -0.2162
10412TIP3    H155431   2.783   0.779   8.198 -1.6195 -1.0216 -0.2995
10412TIP3    H255432   2.746   0.793   8.344 -0.3685  0.0070 -0.0627
10413TIP3   OH255433   3.755   5.557   7.972 -0.2274 -0.1210 -0.2559
10413TIP3    H155434   3.680   5.505   7.945 -0.8743 -0.1858  1.5520
10413TIP3    H255435   3.730   5.593   8.057  0.5188  2.4795 -1.0289
10414TIP3   OH255436   5.177   0.141   7.115  0.1481 -0.3086  0.6105
10414TIP3    H155437   5.164   0.115   7.023  0.0765  1.3243  0.1122
10414TIP3    H255438   5.122   0.082   7.165  0.1165 -1.1756 -0.4171
10415TIP3   OH255439   5.488   0.248   7.019 -0.0479 -0.7288  0.4214
10415TIP3    H155440   5.443   0.167   7.041 -1.0150 -0.8662 -1.7681
10415TIP3    H255441   5.462   0.266   6.928  2.3667  0.5286 -0.1125
10416TIP3   OH255442   5.400   2.593   8.305 -0.3937  0.0797 -0.1534
10416TIP3    H155443   5.472   2.538   8.338  0.1831  0.2836 -1.0394
10416TIP3    H255444   5.439   2.643   8.234 -0.8144  1.9203  0.8501
10417TIP3   OH255445   0.489   4.744   7.421  0.4981 -0.1137  0.0377
10417TIP3    H155446   0.492   4.815   7.485  0.1115  1.1110 -1.2295
10417TIP3    H255447   0.537   4.778   7.345  0.1465 -1.1402 -0.6719
10418TIP3   OH255448   2.110   5.113   6.340  0.4479  0.0679  0.2890
10418TIP3    H155449   2.074   5.112   6.251  0.5356 -1.2900  0.2491
10418TIP3    H255450   2.036   5.092   6.396  0.4373  0.7287  0.5291
10419TIP3   OH255451   5.166   6.087   5.902 -0.0920 -0.1069  0.2382
10419TIP3    H155452   5.239   6.062   5.845 -1.2862  1.3415 -2.0455
10419TIP3    H255453   5.204   6.150   5.963  0.8526 -0.3893 -0.0412
10420TIP3   OH255454   2.654   5.085   6.285 -0.1095 -0.6286 -0.2989
10420TIP3    H155455   2.608   5.127   6.358 -1.4416 -0.7372 -1.0330
10420TIP3    H255456   2.695   5.157   6.238 -1.7303 -0.1750 -1.1046
10421TIP3   OH255457   3.879   6.167   6.405  0.3339 -0.1566  0.2346
10421TIP3    H155458   3.941   6.093   6.407  0.4667 -0.1199 -1.3171
10421TIP3    H255459   3.893   6.212   6.488  2.9821  0.3017 -0.3639
10422TIP3   OH255460   1.450   5.432   8.541 -0.2028 -0.2749  0.2839
10422TIP3    H155461   1.416   5.510   8.585 -0.0420 -0.6271  1.0450
10422TIP3    H255462   1.504   5.466   8.470  1.7197  0.3530  1.9799
10423TIP3   OH255463   3.209   5.632   5.257 -0.3443  0.6911 -0.3501
10423TIP3    H155464   3.258   5.638   5.175  1.2293  0.6065  0.5455
10423TIP3    H255465   3.262   5.680   5.320 -0.3349 -1.1873  1.1475
10424TIP3   OH255466   3.130   1.782   8.116 -0.2703  0.7042  0.3354
10424TIP3    H155467   3.161   1.855   8.168 -0.6945  1.1681 -0.0567
10424TIP3    H255468   3.034   1.789   8.119 -0.3241  0.0269  0.4894
10425TIP3   OH255469   5.866   2.021   5.874  0.1818 -0.1230  0.4598
10425TIP3    H155470   5.924   2.073   5.929 -0.3996  0.4623  0.5305
10425TIP3    H255471   5.922   1.951   5.840  0.5676 -0.4787  1.7561
10426TIP3   OH255472   5.570   5.840   6.830  0.5968  0.3321 -0.3182
10426TIP3    H155473   5.643   5.827   6.890  1.1298  0.1394 -0.9929
10426TIP3    H255474   5.502   5.780   6.861  1.3832 -0.8210 -0.7234
10427TIP3   OH255475   2.624   5.294   7.148 -0.4391  0.5836  0.0748
10427TIP3    H155476   2.676   5.241   7.088 -1.1006  1.3151 -1.1839
10427TIP3    H255477   2.683   5.314   7.221  0.3445 -0.4098 -0.2831
10428TIP3   OH255478   6.045   2.571   8.185  0.2610 -0.3582 -0.2129
10428TIP3    H155479   6.098   2.614   8.119  1.1486 -0.3394  0.4850
10428TIP3    H255480   6.041   2.634   8.257  0.2630 -0.8188  0.1944
10429TIP3   OH255481   6.349   3.842   6.217 -0.0270 -0.4092  0.2050
10429TIP3    H155482   6.253   3.841   6.212 -0.0126 -1.6253 -0.3741
10429TIP3    H255483   6.373   3.750   6.227  1.0387  0.0128  1.8580
10430TIP3   OH255484   4.474   5.999   8.265  0.6563 -0.0130 -0.1925
10430TIP3    H155485   4.464   5.915   8.309  0.2580  0.8807  1.4790
10430TIP3    H255486   4.387   6.018   8.229  0.3453  0.3565  0.7182
10431TIP3   OH255487   5.809   3.091   7.577  0.1881  0.4227 -0.2361
10431TIP3    H155488   5.790   3.022   7.640  0.6413 -1.6428 -2.2004
10431TIP3    H255489   5.736   3.152   7.585 -1.7781 -1.7624 -0.3250
10432TIP3   OH255490   3.012   6.387   5.682 -1.1002  0.3285  0.1955
10432TIP3    H155491   3.065   6.466   5.685  0.0626 -0.4422  1.7062
10432TIP3    H255492   3.076   6.315   5.680 -2.0695 -0.6036  1.2686
10433TIP3   OH255493   2.318   5.360   7.707  0.4736  0.5685 -0.6914
10433TIP3    H155494   2.322   5.455   7.718 -0.1966  0.7200 -1.6056
10433TIP3    H255495   2.325   5.347   7.612 -0.6171 -0.2235 -0.6744
10434TIP3   OH255496   0.441   1.344   7.394  0.5073 -0.1205 -0.3982
10434TIP3    H155497   0.430   1.264   7.444  0.0844  0.1870  0.0160
10434TIP3    H255498   0.502   1.321   7.324  1.8667 -0.3148  0.8117
10435TIP3   OH255499   2.466   0.220   8.642 -0.3755 -0.7281 -0.2983
10435TIP3    H155500   2.379   0.256   8.661 -0.0056  0.5126 -0.8637
10435TIP3    H255501   2.506   0.208   8.728 -0.9174 -0.8388 -0.0564
10436TIP3   OH255502   4.088   5.763   5.931  0.1497  0.3084  0.1915
10436TIP3    H155503   4.138   5.819   5.991  1.4425 -1.0639  0.4457
10436TIP3    H255504   4.154   5.706   5.891 -1.2648 -2.1451  1.1523
10437TIP3   OH255505   1.364   5.088   7.235  0.3647  0.0808 -0.0737
10437TIP3    H155506   1.319   5.003   7.233 -0.2839  0.4172 -0.1525
10437TIP3    H255507   1.333   5.133   7.156  1.2765  0.1055 -0.4259
10438TIP3   OH255508   1.894   1.007   8.281  0.2691 -0.5902  0.4503
10438TIP3    H155509   1.813   0.983   8.326 -0.1984  1.0090  0.4976
10438TIP3    H255510   1.866   1.023   8.190  0.4473  0.3766  0.5607
10439TIP3   OH255511   4.089   3.186   5.451 -0.1157 -0.5513  0.5347
10439TIP3    H155512   4.159   3.184   5.516 -0.0106 -0.4443  0.4244
10439TIP3    H255513   4.117   3.251   5.387  2.0123 -3.7441 -2.1534
   6.71084   6.71084  30.00000
